 Entering Gaussian System, Link 0=g16
 Input=bigQM7w_TDwB97XD_def2TZVP_000015.com
 Output=bigQM7w_TDwB97XD_def2TZVP_000015.log
 Initial command:
 /home/rr/g16/l1.exe "/scratch/rr/PBS_7918668.helios/Gau-12808.inp" -scrdir="/scratch/rr/PBS_7918668.helios/"
 Entering Link 1 = /home/rr/g16/l1.exe PID=     12813.
  
 Copyright (c) 1988-2019, Gaussian, Inc.  All Rights Reserved.
  
 This is part of the Gaussian(R) 16 program.  It is based on
 the Gaussian(R) 09 system (copyright 2009, Gaussian, Inc.),
 the Gaussian(R) 03 system (copyright 2003, Gaussian, Inc.),
 the Gaussian(R) 98 system (copyright 1998, Gaussian, Inc.),
 the Gaussian(R) 94 system (copyright 1995, Gaussian, Inc.),
 the Gaussian 92(TM) system (copyright 1992, Gaussian, Inc.),
 the Gaussian 90(TM) system (copyright 1990, Gaussian, Inc.),
 the Gaussian 88(TM) system (copyright 1988, Gaussian, Inc.),
 the Gaussian 86(TM) system (copyright 1986, Carnegie Mellon
 University), and the Gaussian 82(TM) system (copyright 1983,
 Carnegie Mellon University). Gaussian is a federally registered
 trademark of Gaussian, Inc.
  
 This software contains proprietary and confidential information,
 including trade secrets, belonging to Gaussian, Inc.
  
 This software is provided under written license and may be
 used, copied, transmitted, or stored only in accord with that
 written license.
  
 The following legend is applicable only to US Government
 contracts under FAR:
  
                    RESTRICTED RIGHTS LEGEND
  
 Use, reproduction and disclosure by the US Government is
 subject to restrictions as set forth in subparagraphs (a)
 and (c) of the Commercial Computer Software - Restricted
 Rights clause in FAR 52.227-19.
  
 Gaussian, Inc.
 340 Quinnipiac St., Bldg. 40, Wallingford CT 06492
  
  
 ---------------------------------------------------------------
 Warning -- This program may not be used in any manner that
 competes with the business of Gaussian, Inc. or will provide
 assistance to any competitor of Gaussian, Inc.  The licensee
 of this program is prohibited from giving any competitor of
 Gaussian, Inc. access to this program.  By using this program,
 the user acknowledges that Gaussian, Inc. is engaged in the
 business of creating and licensing software in the field of
 computational chemistry and represents and warrants to the
 licensee that it is not a competitor of Gaussian, Inc. and that
 it will not use this program in any manner prohibited above.
 ---------------------------------------------------------------
  

 Cite this work as:
 Gaussian 16, Revision C.01,
 M. J. Frisch, G. W. Trucks, H. B. Schlegel, G. E. Scuseria, 
 M. A. Robb, J. R. Cheeseman, G. Scalmani, V. Barone, 
 G. A. Petersson, H. Nakatsuji, X. Li, M. Caricato, A. V. Marenich, 
 J. Bloino, B. G. Janesko, R. Gomperts, B. Mennucci, H. P. Hratchian, 
 J. V. Ortiz, A. F. Izmaylov, J. L. Sonnenberg, D. Williams-Young, 
 F. Ding, F. Lipparini, F. Egidi, J. Goings, B. Peng, A. Petrone, 
 T. Henderson, D. Ranasinghe, V. G. Zakrzewski, J. Gao, N. Rega, 
 G. Zheng, W. Liang, M. Hada, M. Ehara, K. Toyota, R. Fukuda, 
 J. Hasegawa, M. Ishida, T. Nakajima, Y. Honda, O. Kitao, H. Nakai, 
 T. Vreven, K. Throssell, J. A. Montgomery, Jr., J. E. Peralta, 
 F. Ogliaro, M. J. Bearpark, J. J. Heyd, E. N. Brothers, K. N. Kudin, 
 V. N. Staroverov, T. A. Keith, R. Kobayashi, J. Normand, 
 K. Raghavachari, A. P. Rendell, J. C. Burant, S. S. Iyengar, 
 J. Tomasi, M. Cossi, J. M. Millam, M. Klene, C. Adamo, R. Cammi, 
 J. W. Ochterski, R. L. Martin, K. Morokuma, O. Farkas, 
 J. B. Foresman, and D. J. Fox, Gaussian, Inc., Wallingford CT, 2019.
 
 ******************************************
 Gaussian 16:  EM64L-G16RevC.01  3-Jul-2019
                27-Feb-2022 
 ******************************************
 %mem=64gb
 %nproc=8
 Will use up to    8 processors via shared memory.
 ----------------------------------------------------------------------
 #P TD(Nstates=10000) wB97XD/Gen SCF(maxcycles=100) Int(Grid=ultrafine)
 ----------------------------------------------------------------------
 1/38=1,172=1/1;
 2/12=2,17=6,18=5,40=1/2;
 3/5=7,11=9,25=1,30=1,74=-58,75=-5/1,2,3,8;
 4//1;
 5/5=2,7=100,38=5/2;
 8/6=1,10=1,108=10000/1;
 9/41=10000,42=1,70=2/14;
 6/7=2,8=2,9=2,10=2/1;
 99/5=1,9=1/99;
 Leave Link    1 at Sun Feb 27 06:42:32 2022, MaxMem=  8589934592 cpu:               0.7 elap:               0.1
 (Enter /home/rr/g16/l101.exe)
 ---------------------
 xGDB7_00001_tier4.com
 ---------------------
 Symbolic Z-matrix:
 Charge =  0 Multiplicity = 1
 6                    -1.24079  -0.23762  -0.02753 
 6                     0.04895   0.55921   0.05371 
 7                     1.20234  -0.31761  -0.1167 
 1                    -2.10982   0.41583   0.0647 
 1                    -1.29293  -0.97621   0.77681 
 1                    -1.30033  -0.76988  -0.97775 
 1                     0.06631   1.12282   0.99797 
 1                     0.06996   1.29657  -0.75259 
 1                     1.23641  -1.00308   0.62716 
 1                     2.06508   0.20771  -0.07648 
 
 ITRead=  0  0  0  0  0  0  0  0  0  0
 MicOpt= -1 -1 -1 -1 -1 -1 -1 -1 -1 -1
 NAtoms=     10 NQM=       10 NQMF=       0 NMMI=      0 NMMIF=      0
                NMic=       0 NMicF=      0.
                    Isotopes and Nuclear Properties:
 (Nuclear quadrupole moments (NQMom) in fm**2, nuclear magnetic moments (NMagM)
  in nuclear magnetons)

  Atom         1           2           3           4           5           6           7           8           9          10
 IAtWgt=          12          12          14           1           1           1           1           1           1           1
 AtmWgt=  12.0000000  12.0000000  14.0030740   1.0078250   1.0078250   1.0078250   1.0078250   1.0078250   1.0078250   1.0078250
 NucSpn=           0           0           2           1           1           1           1           1           1           1
 AtZEff=  -0.0000000  -0.0000000  -0.0000000  -0.0000000  -0.0000000  -0.0000000  -0.0000000  -0.0000000  -0.0000000  -0.0000000
 NQMom=    0.0000000   0.0000000   2.0440000   0.0000000   0.0000000   0.0000000   0.0000000   0.0000000   0.0000000   0.0000000
 NMagM=    0.0000000   0.0000000   0.4037610   2.7928460   2.7928460   2.7928460   2.7928460   2.7928460   2.7928460   2.7928460
 AtZNuc=   6.0000000   6.0000000   7.0000000   1.0000000   1.0000000   1.0000000   1.0000000   1.0000000   1.0000000   1.0000000
 Leave Link  101 at Sun Feb 27 06:42:33 2022, MaxMem=  8589934592 cpu:               1.6 elap:               0.2
 (Enter /home/rr/g16/l202.exe)
                          Input orientation:                          
 ---------------------------------------------------------------------
 Center     Atomic      Atomic             Coordinates (Angstroms)
 Number     Number       Type             X           Y           Z
 ---------------------------------------------------------------------
      1          6           0       -1.240791   -0.237624   -0.027525
      2          6           0        0.048946    0.559205    0.053709
      3          7           0        1.202342   -0.317606   -0.116703
      4          1           0       -2.109817    0.415828    0.064703
      5          1           0       -1.292929   -0.976209    0.776809
      6          1           0       -1.300329   -0.769884   -0.977746
      7          1           0        0.066306    1.122818    0.997967
      8          1           0        0.069957    1.296574   -0.752592
      9          1           0        1.236408   -1.003082    0.627159
     10          1           0        2.065080    0.207710   -0.076483
 ---------------------------------------------------------------------
                    Distance matrix (angstroms):
                    1          2          3          4          5
     1  C    0.000000
     2  C    1.518208   0.000000
     3  N    2.446068   1.458821   0.000000
     4  H    1.091197   2.163547   3.397239   0.000000
     5  H    1.093243   2.163561   2.731025   1.764134   0.000000
     6  H    1.090764   2.156599   2.685016   1.774228   1.766660
     7  H    2.147310   1.099811   2.146599   2.471099   2.510447
     8  H    2.144189   1.092829   2.071769   2.488996   3.059750
     9  H    2.674145   2.044420   1.012111   3.677891   2.533903
    10  H    3.336091   2.050682   1.010886   4.182465   3.661420
                    6          7          8          9         10
     6  H    0.000000
     7  H    3.058342   0.000000
     8  H    2.489704   1.759165   0.000000
     9  H    3.010836   2.454809   2.924507   0.000000
    10  H    3.618555   2.446827   2.371342   1.627214   0.000000
 Stoichiometry    C2H7N
 Framework group  C1[X(C2H7N)]
 Deg. of freedom    24
 Full point group                 C1      NOp   1
 Largest Abelian subgroup         C1      NOp   1
 Largest concise Abelian subgroup C1      NOp   1
                         Standard orientation:                         
 ---------------------------------------------------------------------
 Center     Atomic      Atomic             Coordinates (Angstroms)
 Number     Number       Type             X           Y           Z
 ---------------------------------------------------------------------
      1          6           0       -1.240791   -0.237624   -0.027525
      2          6           0        0.048946    0.559205    0.053709
      3          7           0        1.202342   -0.317606   -0.116703
      4          1           0       -2.109817    0.415828    0.064703
      5          1           0       -1.292929   -0.976209    0.776809
      6          1           0       -1.300329   -0.769884   -0.977746
      7          1           0        0.066306    1.122818    0.997967
      8          1           0        0.069957    1.296574   -0.752592
      9          1           0        1.236408   -1.003082    0.627159
     10          1           0        2.065080    0.207710   -0.076483
 ---------------------------------------------------------------------
 Rotational constants (GHZ):          32.9271088           8.9927821           7.8881896
 Leave Link  202 at Sun Feb 27 06:42:34 2022, MaxMem=  8589934592 cpu:               2.3 elap:               0.4
 (Enter /home/rr/g16/l301.exe)
 General basis read from cards:  (5D, 7F)
 Centers:       4      5      6      7      8      9     10
 S 3 1.00
     Exponent=  3.4061341000D+01 Coefficients=  6.0251978000D-03
     Exponent=  5.1235746000D+00 Coefficients=  4.5021094000D-02
     Exponent=  1.1646626000D+00 Coefficients=  2.0189726000D-01
 S 1 1.00
     Exponent=  3.2723041000D-01 Coefficients=  1.0000000000D+00
 S 1 1.00
     Exponent=  1.0307241000D-01 Coefficients=  1.0000000000D+00
 P 1 1.00
     Exponent=  8.0000000000D-01 Coefficients=  1.0000000000D+00
 P 1 1.00
     Exponent=  9.5774129632D-02 Coefficients=  1.0000000000D+00
 ****
 Centers:       1      2
 S 6 1.00
     Exponent=  1.3575349682D+04 Coefficients=  2.2245814352D-04
     Exponent=  2.0352333680D+03 Coefficients=  1.7232738252D-03
     Exponent=  4.6322562359D+02 Coefficients=  8.9255715314D-03
     Exponent=  1.3120019598D+02 Coefficients=  3.5727984502D-02
     Exponent=  4.2853015891D+01 Coefficients=  1.1076259931D-01
     Exponent=  1.5584185766D+01 Coefficients=  2.4295627626D-01
 S 2 1.00
     Exponent=  6.2067138508D+00 Coefficients=  4.1440263448D-01
     Exponent=  2.5764896527D+00 Coefficients=  2.3744968655D-01
 S 1 1.00
     Exponent=  5.7696339419D-01 Coefficients=  1.0000000000D+00
 S 1 1.00
     Exponent=  2.2972831358D-01 Coefficients=  1.0000000000D+00
 S 1 1.00
     Exponent=  9.5164440028D-02 Coefficients=  1.0000000000D+00
 S 1 1.00
     Exponent=  4.8475401370D-02 Coefficients=  1.0000000000D+00
 P 4 1.00
     Exponent=  3.4697232244D+01 Coefficients=  5.3333657805D-03
     Exponent=  7.9582622826D+00 Coefficients=  3.5864109092D-02
     Exponent=  2.3780826883D+00 Coefficients=  1.4215873329D-01
     Exponent=  8.1433208183D-01 Coefficients=  3.4270471845D-01
 P 1 1.00
     Exponent=  2.8887547253D-01 Coefficients=  4.6445822433D-01
 P 1 1.00
     Exponent=  1.0056823671D-01 Coefficients=  2.4955789874D-01
 D 1 1.00
     Exponent=  1.0970000000D+00 Coefficients=  1.0000000000D+00
 D 1 1.00
     Exponent=  3.1800000000D-01 Coefficients=  1.0000000000D+00
 D 1 1.00
     Exponent=  9.0985336424D-02 Coefficients=  1.0000000000D+00
 F 1 1.00
     Exponent=  7.6100000000D-01 Coefficients=  1.0000000000D+00
 ****
 Centers:       3
 S 6 1.00
     Exponent=  1.9730800647D+04 Coefficients=  2.1887984991D-04
     Exponent=  2.9578958745D+03 Coefficients=  1.6960708803D-03
     Exponent=  6.7322133595D+02 Coefficients=  8.7954603538D-03
     Exponent=  1.9068249494D+02 Coefficients=  3.5359382605D-02
     Exponent=  6.2295441898D+01 Coefficients=  1.1095789217D-01
     Exponent=  2.2654161182D+01 Coefficients=  2.4982972552D-01
 S 2 1.00
     Exponent=  8.9791477428D+00 Coefficients=  4.0623896148D-01
     Exponent=  3.6863002370D+00 Coefficients=  2.4338217176D-01
 S 1 1.00
     Exponent=  8.4660076805D-01 Coefficients=  1.0000000000D+00
 S 1 1.00
     Exponent=  3.3647133771D-01 Coefficients=  1.0000000000D+00
 S 1 1.00
     Exponent=  1.3647653675D-01 Coefficients=  1.0000000000D+00
 S 1 1.00
     Exponent=  6.8441605847D-02 Coefficients=  1.0000000000D+00
 P 4 1.00
     Exponent=  4.9200380510D+01 Coefficients=  5.5552416751D-03
     Exponent=  1.1346790537D+01 Coefficients=  3.8052379723D-02
     Exponent=  3.4273972411D+00 Coefficients=  1.4953671029D-01
     Exponent=  1.1785525134D+00 Coefficients=  3.4949305230D-01
 P 1 1.00
     Exponent=  4.1642204972D-01 Coefficients=  4.5843153697D-01
 P 1 1.00
     Exponent=  1.4260826011D-01 Coefficients=  2.4428771672D-01
 D 1 1.00
     Exponent=  1.6540000000D+00 Coefficients=  1.0000000000D+00
 D 1 1.00
     Exponent=  4.6900000000D-01 Coefficients=  1.0000000000D+00
 D 1 1.00
     Exponent=  1.2829642058D-01 Coefficients=  1.0000000000D+00
 F 1 1.00
     Exponent=  1.0930000000D+00 Coefficients=  1.0000000000D+00
 ****
 Ernie: Thresh=  0.10000D-02 Tol=  0.10000D-05 Strict=F.
 There are   192 symmetry adapted cartesian basis functions of A   symmetry.
 There are   174 symmetry adapted basis functions of A   symmetry.
   174 basis functions,   251 primitive gaussians,   192 cartesian basis functions
    13 alpha electrons       13 beta electrons
       nuclear repulsion energy        83.1592446738 Hartrees.
 IExCor= 4639 DFT=T Ex+Corr=wB97XD ExCW=0 ScaHFX=  1.000000
 ScaDFX=  1.000000  1.000000  1.000000  1.000000 ScalE2=  1.000000  1.000000
 IRadAn=      5 IRanWt=     -1 IRanGd=            0 ICorTp=0 IEmpDi=121
 HFx  wShort=  0.000000 wLong=  0.200000 cFull=  0.222036 cShort=  0.000000 cLong=  0.777964
 DFx  wShort=  0.000000 wLong=  0.200000 cFull=  0.000000 cShort=  0.000000 cLong=  1.000000
 NAtoms=   10 NActive=   10 NUniq=   10 SFac= 1.00D+00 NAtFMM=   60 NAOKFM=F Big=F
 Integral buffers will be    131072 words long.
 Raffenetti 1 integral format.
 Two-electron integral symmetry is turned on.
 R6Disp:  Grimme-D2 Dispersion energy=       -0.0032362845 Hartrees.
 Nuclear repulsion after empirical dispersion term =       83.1560083893 Hartrees.
 Leave Link  301 at Sun Feb 27 06:42:34 2022, MaxMem=  8589934592 cpu:               1.7 elap:               0.3
 (Enter /home/rr/g16/l302.exe)
 NPDir=0 NMtPBC=     1 NCelOv=     1 NCel=       1 NClECP=     1 NCelD=      1
         NCelK=      1 NCelE2=     1 NClLst=     1 CellRange=     0.0.
 One-electron integrals computed using PRISM.
 One-electron integral symmetry used in STVInt
 NBasis=   174 RedAO= T EigKep=  1.41D-05  NBF=   174
 NBsUse=   174 1.00D-06 EigRej= -1.00D+00 NBFU=   174
 Precomputing XC quadrature grid using
 IXCGrd= 4 IRadAn=           5 IRanWt=          -1 IRanGd=           0 AccXCQ= 0.00D+00.
 Generated NRdTot=       0 NPtTot=           0 NUsed=           0 NTot=          32
 NSgBfM=   192   192   192   192   192 MxSgAt=    10 MxSgA2=    10.
 Leave Link  302 at Sun Feb 27 06:42:35 2022, MaxMem=  8589934592 cpu:               2.8 elap:               0.4
 (Enter /home/rr/g16/l303.exe)
 DipDrv:  MaxL=1.
 Leave Link  303 at Sun Feb 27 06:42:36 2022, MaxMem=  8589934592 cpu:               0.6 elap:               0.2
 (Enter /home/rr/g16/l308.exe)
 Leave Link  308 at Sun Feb 27 06:42:36 2022, MaxMem=  8589934592 cpu:               0.4 elap:               0.1
 (Enter /home/rr/g16/l401.exe)
 ExpMin= 4.85D-02 ExpMax= 1.97D+04 ExpMxC= 6.73D+02 IAcc=3 IRadAn=         5 AccDes= 0.00D+00
 Harris functional with IExCor= 4639 and IRadAn=       5 diagonalized for initial guess.
 HarFok:  IExCor= 4639 AccDes= 0.00D+00 IRadAn=         5 IDoV= 1 UseB2=F ITyADJ=14
 ICtDFT=  3500011 ScaDFX=  1.000000  1.000000  1.000000  1.000000
 FoFCou: FMM=F IPFlag=           0 FMFlag=      100000 FMFlg1=           0
         NFxFlg=           0 DoJE=T BraDBF=F KetDBF=T FulRan=T
         wScrn=  0.000000 ICntrl=       500 IOpCl=  0 I1Cent=   200000004 NGrid=           0
         NMat0=    1 NMatS0=      1 NMatT0=    0 NMatD0=    1 NMtDS0=    0 NMtDT0=    0
 Petite list used in FoFCou.
 Harris En= -128.760105520085    
 JPrj=0 DoOrth=F DoCkMO=F.
 Leave Link  401 at Sun Feb 27 06:42:37 2022, MaxMem=  8589934592 cpu:               9.7 elap:               1.4
 (Enter /home/rr/g16/l502.exe)
 Keep R1 ints in memory in canonical form, NReq=242673206.
 FoFCou: FMM=F IPFlag=           0 FMFlag=           0 FMFlg1=           0
         NFxFlg=           0 DoJE=F BraDBF=F KetDBF=F FulRan=T
         wScrn=  0.000000 ICntrl=       600 IOpCl=  0 I1Cent=           0 NGrid=           0
         NMat0=    1 NMatS0=  15225 NMatT0=    0 NMatD0=    1 NMtDS0=    0 NMtDT0=    0
 Symmetry not used in FoFCou.
 Two-electron integral symmetry not used.
 Closed shell SCF:
 Using DIIS extrapolation, IDIIS=  1040.
 NGot=  8589934592 LenX=  8358041372 LenY=  8358004067
 Requested convergence on RMS density matrix=1.00D-08 within 100 cycles.
 Requested convergence on MAX density matrix=1.00D-06.
 Requested convergence on             energy=1.00D-06.
 No special actions if energy rises.

 Cycle   1  Pass 1  IDiag  1:
 E= -135.147502086181    
 DIIS: error= 4.50D-02 at cycle   1 NSaved=   1.
 NSaved= 1 IEnMin= 1 EnMin= -135.147502086181     IErMin= 1 ErrMin= 4.50D-02
 ErrMax= 4.50D-02  0.00D+00 EMaxC= 1.00D-01 BMatC= 2.88D-01 BMatP= 2.88D-01
 IDIUse=3 WtCom= 5.50D-01 WtEn= 4.50D-01
 Coeff-Com:  0.100D+01
 Coeff-En:   0.100D+01
 Coeff:      0.100D+01
 Gap=     0.393 Goal=   None    Shift=    0.000
 GapD=    0.393 DampG=1.000 DampE=0.500 DampFc=0.5000 IDamp=-1.
 Damping current iteration by 5.00D-01
 RMSDP=4.55D-03 MaxDP=1.83D-01              OVMax= 5.41D-02

 Cycle   2  Pass 1  IDiag  1:
 E= -135.167394869300     Delta-E=       -0.019892783120 Rises=F Damp=T
 DIIS: error= 2.15D-02 at cycle   2 NSaved=   2.
 NSaved= 2 IEnMin= 2 EnMin= -135.167394869300     IErMin= 2 ErrMin= 2.15D-02
 ErrMax= 2.15D-02  0.00D+00 EMaxC= 1.00D-01 BMatC= 6.44D-02 BMatP= 2.88D-01
 IDIUse=3 WtCom= 7.85D-01 WtEn= 2.15D-01
 Coeff-Com: -0.832D+00 0.183D+01
 Coeff-En:   0.000D+00 0.100D+01
 Coeff:     -0.653D+00 0.165D+01
 Gap=     0.395 Goal=   None    Shift=    0.000
 RMSDP=2.39D-03 MaxDP=1.17D-01 DE=-1.99D-02 OVMax= 3.02D-02

 Cycle   3  Pass 1  IDiag  1:
 E= -135.184404440885     Delta-E=       -0.017009571585 Rises=F Damp=F
 DIIS: error= 3.38D-03 at cycle   3 NSaved=   3.
 NSaved= 3 IEnMin= 3 EnMin= -135.184404440885     IErMin= 3 ErrMin= 3.38D-03
 ErrMax= 3.38D-03  0.00D+00 EMaxC= 1.00D-01 BMatC= 2.23D-03 BMatP= 6.44D-02
 IDIUse=3 WtCom= 9.66D-01 WtEn= 3.38D-02
 Coeff-Com: -0.321D+00 0.687D+00 0.634D+00
 Coeff-En:   0.000D+00 0.000D+00 0.100D+01
 Coeff:     -0.310D+00 0.664D+00 0.646D+00
 Gap=     0.394 Goal=   None    Shift=    0.000
 RMSDP=2.86D-04 MaxDP=8.56D-03 DE=-1.70D-02 OVMax= 1.09D-02

 Cycle   4  Pass 1  IDiag  1:
 E= -135.186395257089     Delta-E=       -0.001990816204 Rises=F Damp=F
 DIIS: error= 2.19D-04 at cycle   4 NSaved=   4.
 NSaved= 4 IEnMin= 4 EnMin= -135.186395257089     IErMin= 4 ErrMin= 2.19D-04
 ErrMax= 2.19D-04  0.00D+00 EMaxC= 1.00D-01 BMatC= 1.60D-05 BMatP= 2.23D-03
 IDIUse=3 WtCom= 9.98D-01 WtEn= 2.19D-03
 Coeff-Com: -0.272D-01 0.587D-01 0.971D-01 0.871D+00
 Coeff-En:   0.000D+00 0.000D+00 0.000D+00 0.100D+01
 Coeff:     -0.272D-01 0.586D-01 0.969D-01 0.872D+00
 Gap=     0.392 Goal=   None    Shift=    0.000
 RMSDP=7.49D-05 MaxDP=2.35D-03 DE=-1.99D-03 OVMax= 1.17D-03

 Cycle   5  Pass 1  IDiag  1:
 E= -135.186408671259     Delta-E=       -0.000013414170 Rises=F Damp=F
 DIIS: error= 1.20D-04 at cycle   5 NSaved=   5.
 NSaved= 5 IEnMin= 5 EnMin= -135.186408671259     IErMin= 5 ErrMin= 1.20D-04
 ErrMax= 1.20D-04  0.00D+00 EMaxC= 1.00D-01 BMatC= 4.08D-06 BMatP= 1.60D-05
 IDIUse=3 WtCom= 9.99D-01 WtEn= 1.20D-03
 Coeff-Com:  0.278D-01-0.597D-01-0.355D-01 0.366D+00 0.701D+00
 Coeff-En:   0.000D+00 0.000D+00 0.000D+00 0.000D+00 0.100D+01
 Coeff:      0.278D-01-0.597D-01-0.355D-01 0.366D+00 0.702D+00
 Gap=     0.393 Goal=   None    Shift=    0.000
 RMSDP=4.78D-05 MaxDP=1.50D-03 DE=-1.34D-05 OVMax= 8.53D-04

 Cycle   6  Pass 1  IDiag  1:
 E= -135.186412481694     Delta-E=       -0.000003810435 Rises=F Damp=F
 DIIS: error= 2.99D-05 at cycle   6 NSaved=   6.
 NSaved= 6 IEnMin= 6 EnMin= -135.186412481694     IErMin= 6 ErrMin= 2.99D-05
 ErrMax= 2.99D-05  0.00D+00 EMaxC= 1.00D-01 BMatC= 1.72D-07 BMatP= 4.08D-06
 IDIUse=1 WtCom= 1.00D+00 WtEn= 0.00D+00
 Coeff-Com:  0.873D-02-0.187D-01-0.155D-01 0.180D-01 0.182D+00 0.825D+00
 Coeff:      0.873D-02-0.187D-01-0.155D-01 0.180D-01 0.182D+00 0.825D+00
 Gap=     0.392 Goal=   None    Shift=    0.000
 RMSDP=1.37D-05 MaxDP=3.62D-04 DE=-3.81D-06 OVMax= 2.14D-04

 Cycle   7  Pass 1  IDiag  1:
 E= -135.186412699677     Delta-E=       -0.000000217984 Rises=F Damp=F
 DIIS: error= 5.98D-06 at cycle   7 NSaved=   7.
 NSaved= 7 IEnMin= 7 EnMin= -135.186412699677     IErMin= 7 ErrMin= 5.98D-06
 ErrMax= 5.98D-06  0.00D+00 EMaxC= 1.00D-01 BMatC= 8.69D-09 BMatP= 1.72D-07
 IDIUse=1 WtCom= 1.00D+00 WtEn= 0.00D+00
 Coeff-Com: -0.124D-02 0.265D-02 0.114D-02-0.290D-01-0.299D-01 0.119D+00
 Coeff-Com:  0.937D+00
 Coeff:     -0.124D-02 0.265D-02 0.114D-02-0.290D-01-0.299D-01 0.119D+00
 Coeff:      0.937D+00
 Gap=     0.392 Goal=   None    Shift=    0.000
 RMSDP=6.37D-06 MaxDP=2.15D-04 DE=-2.18D-07 OVMax= 1.10D-04

 Cycle   8  Pass 1  IDiag  1:
 E= -135.186412719529     Delta-E=       -0.000000019852 Rises=F Damp=F
 DIIS: error= 2.61D-06 at cycle   8 NSaved=   8.
 NSaved= 8 IEnMin= 8 EnMin= -135.186412719529     IErMin= 8 ErrMin= 2.61D-06
 ErrMax= 2.61D-06  0.00D+00 EMaxC= 1.00D-01 BMatC= 1.12D-09 BMatP= 8.69D-09
 IDIUse=1 WtCom= 1.00D+00 WtEn= 0.00D+00
 Coeff-Com: -0.960D-03 0.206D-02 0.137D-02-0.102D-01-0.217D-01-0.218D-01
 Coeff-Com:  0.256D+00 0.795D+00
 Coeff:     -0.960D-03 0.206D-02 0.137D-02-0.102D-01-0.217D-01-0.218D-01
 Coeff:      0.256D+00 0.795D+00
 Gap=     0.392 Goal=   None    Shift=    0.000
 RMSDP=1.64D-06 MaxDP=6.34D-05 DE=-1.99D-08 OVMax= 3.40D-05

 Cycle   9  Pass 1  IDiag  1:
 E= -135.186412721791     Delta-E=       -0.000000002263 Rises=F Damp=F
 DIIS: error= 6.15D-07 at cycle   9 NSaved=   9.
 NSaved= 9 IEnMin= 9 EnMin= -135.186412721791     IErMin= 9 ErrMin= 6.15D-07
 ErrMax= 6.15D-07  0.00D+00 EMaxC= 1.00D-01 BMatC= 1.25D-10 BMatP= 1.12D-09
 IDIUse=1 WtCom= 1.00D+00 WtEn= 0.00D+00
 Coeff-Com: -0.435D-04 0.914D-04 0.164D-03 0.207D-02-0.532D-04-0.214D-01
 Coeff-Com: -0.953D-01 0.140D+00 0.974D+00
 Coeff:     -0.435D-04 0.914D-04 0.164D-03 0.207D-02-0.532D-04-0.214D-01
 Coeff:     -0.953D-01 0.140D+00 0.974D+00
 Gap=     0.392 Goal=   None    Shift=    0.000
 RMSDP=8.69D-07 MaxDP=3.68D-05 DE=-2.26D-09 OVMax= 1.92D-05

 Cycle  10  Pass 1  IDiag  1:
 E= -135.186412722178     Delta-E=       -0.000000000387 Rises=F Damp=F
 DIIS: error= 2.00D-07 at cycle  10 NSaved=  10.
 NSaved=10 IEnMin=10 EnMin= -135.186412722178     IErMin=10 ErrMin= 2.00D-07
 ErrMax= 2.00D-07  0.00D+00 EMaxC= 1.00D-01 BMatC= 5.76D-12 BMatP= 1.25D-10
 IDIUse=1 WtCom= 1.00D+00 WtEn= 0.00D+00
 Coeff-Com:  0.554D-04-0.119D-03-0.754D-04 0.676D-03 0.153D-02 0.121D-02
 Coeff-Com: -0.225D-01-0.552D-01 0.650D-01 0.101D+01
 Coeff:      0.554D-04-0.119D-03-0.754D-04 0.676D-03 0.153D-02 0.121D-02
 Coeff:     -0.225D-01-0.552D-01 0.650D-01 0.101D+01
 Gap=     0.392 Goal=   None    Shift=    0.000
 RMSDP=2.10D-07 MaxDP=7.76D-06 DE=-3.87D-10 OVMax= 5.00D-06

 Cycle  11  Pass 1  IDiag  1:
 E= -135.186412722199     Delta-E=       -0.000000000021 Rises=F Damp=F
 DIIS: error= 4.12D-08 at cycle  11 NSaved=  11.
 NSaved=11 IEnMin=11 EnMin= -135.186412722199     IErMin=11 ErrMin= 4.12D-08
 ErrMax= 4.12D-08  0.00D+00 EMaxC= 1.00D-01 BMatC= 3.66D-13 BMatP= 5.76D-12
 IDIUse=1 WtCom= 1.00D+00 WtEn= 0.00D+00
 Coeff-Com: -0.704D-05 0.153D-04 0.161D-05-0.239D-03-0.216D-03 0.140D-02
 Coeff-Com:  0.825D-02-0.503D-02-0.748D-01-0.687D-01 0.114D+01
 Coeff:     -0.704D-05 0.153D-04 0.161D-05-0.239D-03-0.216D-03 0.140D-02
 Coeff:      0.825D-02-0.503D-02-0.748D-01-0.687D-01 0.114D+01
 Gap=     0.392 Goal=   None    Shift=    0.000
 RMSDP=5.17D-08 MaxDP=1.86D-06 DE=-2.14D-11 OVMax= 1.45D-06

 Cycle  12  Pass 1  IDiag  1:
 E= -135.186412722202     Delta-E=       -0.000000000002 Rises=F Damp=F
 DIIS: error= 7.61D-09 at cycle  12 NSaved=  12.
 NSaved=12 IEnMin=12 EnMin= -135.186412722202     IErMin=12 ErrMin= 7.61D-09
 ErrMax= 7.61D-09  0.00D+00 EMaxC= 1.00D-01 BMatC= 1.76D-14 BMatP= 3.66D-13
 IDIUse=1 WtCom= 1.00D+00 WtEn= 0.00D+00
 Coeff-Com: -0.220D-05 0.474D-05 0.282D-05-0.200D-04-0.756D-04-0.246D-04
 Coeff-Com:  0.745D-03 0.281D-02 0.424D-03-0.435D-01-0.714D-01 0.111D+01
 Coeff:     -0.220D-05 0.474D-05 0.282D-05-0.200D-04-0.756D-04-0.246D-04
 Coeff:      0.745D-03 0.281D-02 0.424D-03-0.435D-01-0.714D-01 0.111D+01
 Gap=     0.392 Goal=   None    Shift=    0.000
 RMSDP=8.90D-09 MaxDP=2.28D-07 DE=-2.44D-12 OVMax= 2.70D-07

 SCF Done:  E(RwB97XD) =  -135.186412722     A.U. after   12 cycles
            NFock= 12  Conv=0.89D-08     -V/T= 2.0054
 KE= 1.344571750612D+02 PE=-4.802513031010D+02 EE= 1.274517069283D+02
 Leave Link  502 at Sun Feb 27 06:42:52 2022, MaxMem=  8589934592 cpu:              99.6 elap:              14.8
 (Enter /home/rr/g16/l801.exe)
 DoSCS=F DFT=T ScalE2(SS,OS)=  1.000000  1.000000
 ExpMin= 4.85D-02 ExpMax= 1.97D+04 ExpMxC= 6.73D+02 IAcc=3 IRadAn=         5 AccDes= 0.00D+00
 HarFok:  IExCor=  205 AccDes= 0.00D+00 IRadAn=         5 IDoV=-2 UseB2=F ITyADJ=14
 ICtDFT= 12500011 ScaDFX=  1.000000  1.000000  1.000000  1.000000
 Largest valence mixing into a core orbital is  6.62D-05
 Largest core mixing into a valence orbital is  1.17D-05
 Range of M.O.s used for correlation:     4   174
 NBasis=   174 NAE=    13 NBE=    13 NFC=     3 NFV=     0
 NROrb=    171 NOA=    10 NOB=    10 NVA=   161 NVB=   161

 **** Warning!!: The largest alpha MO coefficient is  0.73047618D+02

 Leave Link  801 at Sun Feb 27 06:42:52 2022, MaxMem=  8589934592 cpu:               0.8 elap:               0.1
 (Enter /home/rr/g16/l914.exe)
 RHF ground state
 Keep R1, R2, and R3 ints in memory in canonical form, NReq=5154126358.
 FoFCou: FMM=F IPFlag=           0 FMFlag=           0 FMFlg1=           0
         NFxFlg=           0 DoJE=F BraDBF=F KetDBF=F FulRan=T
         wScrn=  0.000000 ICntrl=       600 IOpCl=  0 I1Cent=           0 NGrid=           0
         NMat0=    1 NMatS0=  15225 NMatT0=    0 NMatD0=    1 NMtDS0=    0 NMtDT0=    0
 Symmetry not used in FoFCou.
 Two-electron integral symmetry not used.
 MDV=  8589934592 DFT=T DoStab=F Mixed=T DoRPA=T DoScal=F NonHer=T
 Making orbital integer symmetry assigments:
 Orbital symmetries:
       Occupied  (A) (A) (A) (A) (A) (A) (A) (A) (A) (A) (A) (A)
                 (A)
       Virtual   (A) (A) (A) (A) (A) (A) (A) (A) (A) (A) (A) (A)
                 (A) (A) (A) (A) (A) (A) (A) (A) (A) (A) (A) (A)
                 (A) (A) (A) (A) (A) (A) (A) (A) (A) (A) (A) (A)
                 (A) (A) (A) (A) (A) (A) (A) (A) (A) (A) (A) (A)
                 (A) (A) (A) (A) (A) (A) (A) (A) (A) (A) (A) (A)
                 (A) (A) (A) (A) (A) (A) (A) (A) (A) (A) (A) (A)
                 (A) (A) (A) (A) (A) (A) (A) (A) (A) (A) (A) (A)
                 (A) (A) (A) (A) (A) (A) (A) (A) (A) (A) (A) (A)
                 (A) (A) (A) (A) (A) (A) (A) (A) (A) (A) (A) (A)
                 (A) (A) (A) (A) (A) (A) (A) (A) (A) (A) (A) (A)
                 (A) (A) (A) (A) (A) (A) (A) (A) (A) (A) (A) (A)
                 (A) (A) (A) (A) (A) (A) (A) (A) (A) (A) (A) (A)
                 (A) (A) (A) (A) (A) (A) (A) (A) (A) (A) (A) (A)
                 (A) (A) (A) (A) (A)
  1610 initial guesses have been made.
 Convergence on wavefunction:    0.001000000000000
 Davidson Disk Diagonalization:  ConvIn= 1.00D-03 SkipCon=T Conv= 1.00D-03.
 Max sub-space:  9660 roots to seek:  3220 dimension of matrix:         3220
 *** WARNING: Number of orthogonal guesses is         1610
 Iteration     1 Dimension  1610 NMult     0 NNew   1610
 CISAX will form  1610 AO SS matrices at one time.
 NMat=  1610 NSing=  1610 JSym2X= 0.
 New state      2 was old state      3
 New state      3 was old state      2
 New state      7 was old state      8
 New state      8 was old state      7
 New state     11 was old state     13
 New state     13 was old state     11
 New state     14 was old state     15
 New state     15 was old state     14
 New state     18 was old state     21
 New state     19 was old state     18
 New state     20 was old state     22
 New state     21 was old state     19
 New state     22 was old state     20
 New state     24 was old state     26
 New state     26 was old state     24
 New state     28 was old state     29
 New state     29 was old state     28
 New state     32 was old state     35
 New state     34 was old state     32
 New state     35 was old state     37
 New state     37 was old state     38
 New state     38 was old state     42
 New state     39 was old state     40
 New state     40 was old state     34
 New state     41 was old state     44
 New state     42 was old state     41
 New state     43 was old state     46
 New state     44 was old state     45
 New state     45 was old state     48
 New state     46 was old state     43
 New state     47 was old state     39
 New state     48 was old state     49
 New state     49 was old state     54
 New state     50 was old state     47
 New state     51 was old state     50
 New state     52 was old state     57
 New state     54 was old state     56
 New state     56 was old state     51
 New state     57 was old state     65
 New state     58 was old state     62
 New state     61 was old state     58
 New state     62 was old state     52
 New state     63 was old state     64
 New state     64 was old state     69
 New state     65 was old state     63
 New state     66 was old state     67
 New state     67 was old state     73
 New state     68 was old state     71
 New state     69 was old state     70
 New state     70 was old state     68
 New state     71 was old state     75
 New state     72 was old state     76
 New state     73 was old state     72
 New state     74 was old state     82
 New state     75 was old state     74
 New state     76 was old state     84
 New state     77 was old state     66
 New state     78 was old state     77
 New state     79 was old state     81
 New state     81 was old state     86
 New state     82 was old state     79
 New state     84 was old state     89
 New state     86 was old state     90
 New state     89 was old state     92
 New state     90 was old state     95
 New state     92 was old state     96
 New state     94 was old state    100
 New state     95 was old state    103
 New state     96 was old state     94
 New state     97 was old state    102
 New state     98 was old state    104
 New state     99 was old state     97
 New state    100 was old state     98
 New state    101 was old state    105
 New state    102 was old state     99
 New state    103 was old state    111
 New state    104 was old state    107
 New state    105 was old state    106
 New state    106 was old state    109
 New state    107 was old state    101
 New state    108 was old state    110
 New state    109 was old state    120
 New state    110 was old state    112
 New state    111 was old state    108
 New state    112 was old state    117
 New state    113 was old state    122
 New state    114 was old state    116
 New state    116 was old state    123
 New state    117 was old state    114
 New state    118 was old state    113
 New state    120 was old state    126
 New state    121 was old state    128
 New state    122 was old state    133
 New state    123 was old state    125
 New state    124 was old state    129
 New state    125 was old state    140
 New state    126 was old state    124
 New state    127 was old state    121
 New state    128 was old state    130
 New state    129 was old state    135
 New state    130 was old state    142
 New state    131 was old state    134
 New state    132 was old state    127
 New state    133 was old state    137
 New state    134 was old state    131
 New state    135 was old state    138
 New state    136 was old state    146
 New state    137 was old state    136
 New state    138 was old state    143
 New state    139 was old state    152
 New state    140 was old state    149
 New state    141 was old state    144
 New state    142 was old state    145
 New state    143 was old state    157
 New state    144 was old state    160
 New state    145 was old state    155
 New state    146 was old state    151
 New state    147 was old state    154
 New state    148 was old state    162
 New state    149 was old state    158
 New state    150 was old state    148
 New state    151 was old state    165
 New state    152 was old state    141
 New state    153 was old state    163
 New state    154 was old state    159
 New state    155 was old state    153
 New state    156 was old state    139
 New state    157 was old state    150
 New state    158 was old state    161
 New state    159 was old state    156
 New state    160 was old state    171
 New state    161 was old state    177
 New state    162 was old state    166
 New state    163 was old state    164
 New state    164 was old state    167
 New state    165 was old state    183
 New state    166 was old state    168
 New state    167 was old state    174
 New state    168 was old state    170
 New state    170 was old state    181
 New state    171 was old state    178
 New state    172 was old state    173
 New state    173 was old state    176
 New state    174 was old state    172
 New state    175 was old state    179
 New state    176 was old state    186
 New state    177 was old state    182
 New state    178 was old state    175
 New state    179 was old state    184
 New state    180 was old state    185
 New state    181 was old state    192
 New state    182 was old state    188
 New state    183 was old state    180
 New state    184 was old state    196
 New state    185 was old state    197
 New state    186 was old state    191
 New state    187 was old state    189
 New state    188 was old state    194
 New state    189 was old state    190
 New state    190 was old state    193
 New state    191 was old state    200
 New state    192 was old state    204
 New state    193 was old state    195
 New state    194 was old state    187
 New state    195 was old state    213
 New state    196 was old state    202
 New state    197 was old state    199
 New state    198 was old state    201
 New state    199 was old state    198
 New state    200 was old state    208
 New state    201 was old state    215
 New state    202 was old state    210
 New state    203 was old state    205
 New state    204 was old state    206
 New state    205 was old state    212
 New state    206 was old state    207
 New state    207 was old state    214
 New state    208 was old state    209
 New state    209 was old state    203
 New state    210 was old state    216
 New state    212 was old state    226
 New state    213 was old state    236
 New state    214 was old state    217
 New state    215 was old state    222
 New state    216 was old state    233
 New state    217 was old state    220
 New state    220 was old state    230
 New state    221 was old state    227
 New state    222 was old state    228
 New state    223 was old state    225
 New state    224 was old state    221
 New state    225 was old state    239
 New state    226 was old state    223
 New state    227 was old state    248
 New state    228 was old state    229
 New state    229 was old state    237
 New state    230 was old state    232
 New state    232 was old state    224
 New state    233 was old state    234
 New state    234 was old state    240
 New state    235 was old state    243
 New state    236 was old state    235
 New state    237 was old state    249
 New state    238 was old state    246
 New state    239 was old state    244
 New state    240 was old state    247
 New state    241 was old state    238
 New state    242 was old state    241
 New state    243 was old state    250
 New state    244 was old state    256
 New state    245 was old state    242
 New state    246 was old state    254
 New state    247 was old state    251
 New state    248 was old state    258
 New state    249 was old state    267
 New state    250 was old state    255
 New state    251 was old state    261
 New state    253 was old state    245
 New state    254 was old state    264
 New state    255 was old state    259
 New state    256 was old state    260
 New state    257 was old state    265
 New state    258 was old state    257
 New state    259 was old state    262
 New state    260 was old state    269
 New state    261 was old state    275
 New state    262 was old state    274
 New state    263 was old state    253
 New state    264 was old state    273
 New state    265 was old state    270
 New state    266 was old state    276
 New state    267 was old state    283
 New state    268 was old state    281
 New state    269 was old state    263
 New state    270 was old state    278
 New state    271 was old state    266
 New state    272 was old state    271
 New state    273 was old state    268
 New state    274 was old state    277
 New state    275 was old state    272
 New state    276 was old state    280
 New state    277 was old state    293
 New state    278 was old state    279
 New state    279 was old state    285
 New state    280 was old state    295
 New state    281 was old state    291
 New state    282 was old state    288
 No map to state    283
 New state    284 was old state    287
 New state    285 was old state    284
 New state    286 was old state    282
 New state    287 was old state    286
 New state    288 was old state    289
 No map to state    289
 New state    290 was old state    296
 New state    291 was old state    294
 New state    292 was old state    297
 New state    293 was old state    299
 New state    294 was old state    290
 New state    295 was old state    300
 New state    296 was old state    303
 New state    297 was old state    298
 New state    298 was old state    306
 New state    299 was old state    292
 New state    300 was old state    304
 New state    302 was old state    314
 New state    303 was old state    305
 New state    304 was old state    302
 New state    305 was old state    309
 New state    306 was old state    320
 New state    307 was old state    313
 New state    308 was old state    319
 New state    309 was old state    312
 New state    310 was old state    307
 New state    311 was old state    310
 New state    312 was old state    308
 New state    313 was old state    315
 New state    314 was old state    316
 New state    315 was old state    324
 New state    316 was old state    317
 New state    317 was old state    311
 New state    318 was old state    322
 New state    319 was old state    333
 New state    320 was old state    328
 New state    321 was old state    318
 New state    322 was old state    321
 New state    323 was old state    338
 New state    324 was old state    336
 New state    325 was old state    327
 New state    327 was old state    323
 New state    328 was old state    332
 New state    329 was old state    331
 New state    330 was old state    325
 New state    331 was old state    334
 New state    332 was old state    335
 New state    333 was old state    330
 New state    334 was old state    329
 New state    335 was old state    342
 New state    336 was old state    358
 New state    337 was old state    355
 New state    338 was old state    337
 New state    339 was old state    340
 New state    340 was old state    343
 New state    341 was old state    349
 New state    342 was old state    345
 New state    343 was old state    346
 New state    344 was old state    339
 New state    345 was old state    350
 New state    346 was old state    344
 New state    348 was old state    341
 New state    349 was old state    348
 New state    350 was old state    356
 New state    351 was old state    360
 New state    352 was old state    353
 New state    353 was old state    351
 New state    354 was old state    352
 New state    355 was old state    363
 New state    356 was old state    354
 New state    358 was old state    368
 New state    359 was old state    365
 New state    360 was old state    366
 New state    361 was old state    370
 New state    363 was old state    373
 New state    364 was old state    371
 New state    365 was old state    379
 New state    366 was old state    380
 New state    367 was old state    376
 New state    368 was old state    359
 New state    369 was old state    375
 New state    370 was old state    374
 New state    371 was old state    372
 New state    372 was old state    364
 New state    373 was old state    369
 New state    374 was old state    361
 New state    375 was old state    384
 New state    376 was old state    367
 New state    377 was old state    386
 New state    378 was old state    399
 New state    379 was old state    378
 New state    380 was old state    391
 New state    381 was old state    389
 New state    382 was old state    387
 New state    384 was old state    390
 New state    385 was old state    393
 New state    386 was old state    385
 New state    387 was old state    377
 New state    388 was old state    396
 New state    389 was old state    382
 New state    390 was old state    381
 New state    391 was old state    388
 New state    392 was old state    400
 New state    393 was old state    402
 New state    394 was old state    398
 New state    395 was old state    392
 New state    396 was old state    397
 New state    397 was old state    394
 New state    398 was old state    405
 New state    399 was old state    406
 New state    400 was old state    395
 New state    401 was old state    403
 New state    402 was old state    413
 New state    403 was old state    408
 New state    405 was old state    418
 New state    406 was old state    401
 New state    407 was old state    409
 New state    408 was old state    415
 New state    409 was old state    416
 New state    412 was old state    423
 New state    413 was old state    420
 New state    414 was old state    425
 New state    415 was old state    424
 New state    416 was old state    407
 New state    417 was old state    414
 New state    418 was old state    421
 New state    419 was old state    417
 New state    420 was old state    430
 New state    421 was old state    412
 New state    422 was old state    429
 New state    423 was old state    433
 New state    424 was old state    422
 New state    425 was old state    441
 New state    426 was old state    419
 New state    427 was old state    444
 New state    428 was old state    438
 New state    429 was old state    436
 New state    430 was old state    442
 New state    431 was old state    426
 New state    432 was old state    434
 New state    433 was old state    450
 New state    434 was old state    431
 New state    435 was old state    446
 New state    436 was old state    452
 New state    437 was old state    447
 New state    438 was old state    427
 New state    439 was old state    428
 New state    440 was old state    460
 New state    441 was old state    443
 New state    442 was old state    451
 New state    443 was old state    457
 New state    444 was old state    455
 New state    445 was old state    440
 New state    446 was old state    475
 New state    447 was old state    435
 New state    448 was old state    453
 New state    449 was old state    437
 New state    450 was old state    463
 New state    451 was old state    462
 New state    452 was old state    472
 New state    453 was old state    439
 New state    454 was old state    471
 New state    455 was old state    445
 New state    456 was old state    448
 New state    457 was old state    466
 New state    458 was old state    456
 New state    459 was old state    449
 New state    460 was old state    458
 New state    461 was old state    468
 New state    462 was old state    465
 New state    463 was old state    470
 New state    464 was old state    454
 New state    465 was old state    469
 New state    466 was old state    467
 New state    467 was old state    485
 New state    468 was old state    459
 New state    469 was old state    461
 New state    470 was old state    478
 New state    471 was old state    476
 New state    472 was old state    473
 New state    473 was old state    477
 New state    474 was old state    479
 New state    475 was old state    486
 New state    476 was old state    464
 New state    477 was old state    484
 New state    478 was old state    474
 New state    479 was old state    482
 New state    480 was old state    481
 New state    481 was old state    496
 New state    482 was old state    489
 No map to state    483
 New state    484 was old state    480
 New state    485 was old state    488
 New state    486 was old state    483
 New state    487 was old state    490
 New state    488 was old state    487
 New state    489 was old state    503
 New state    490 was old state    493
 New state    491 was old state    500
 New state    492 was old state    494
 New state    493 was old state    507
 New state    494 was old state    495
 New state    495 was old state    491
 New state    496 was old state    501
 New state    497 was old state    512
 New state    498 was old state    502
 New state    499 was old state    509
 New state    500 was old state    492
 New state    501 was old state    505
 New state    502 was old state    499
 New state    503 was old state    504
 New state    504 was old state    498
 New state    505 was old state    510
 New state    506 was old state    528
 New state    507 was old state    508
 New state    508 was old state    513
 New state    509 was old state    497
 New state    510 was old state    511
 New state    511 was old state    516
 New state    512 was old state    522
 New state    513 was old state    520
 New state    514 was old state    531
 New state    515 was old state    514
 New state    516 was old state    506
 New state    517 was old state    518
 New state    518 was old state    530
 New state    519 was old state    517
 New state    520 was old state    527
 New state    522 was old state    523
 New state    523 was old state    526
 New state    524 was old state    519
 New state    525 was old state    515
 New state    526 was old state    546
 New state    527 was old state    532
 New state    528 was old state    543
 New state    530 was old state    524
 New state    531 was old state    525
 New state    532 was old state    536
 New state    533 was old state    537
 New state    534 was old state    535
 New state    535 was old state    544
 New state    536 was old state    541
 New state    537 was old state    534
 New state    538 was old state    533
 New state    539 was old state    550
 New state    540 was old state    545
 New state    541 was old state    553
 New state    542 was old state    539
 New state    543 was old state    542
 New state    544 was old state    540
 New state    545 was old state    549
 New state    546 was old state    559
 New state    548 was old state    565
 New state    549 was old state    538
 New state    550 was old state    557
 New state    551 was old state    560
 New state    552 was old state    551
 New state    553 was old state    561
 New state    554 was old state    552
 New state    555 was old state    556
 New state    556 was old state    548
 New state    557 was old state    568
 New state    558 was old state    563
 New state    559 was old state    554
 New state    560 was old state    573
 New state    561 was old state    555
 New state    562 was old state    564
 New state    563 was old state    558
 New state    564 was old state    566
 New state    565 was old state    574
 New state    566 was old state    569
 New state    567 was old state    562
 New state    568 was old state    567
 New state    569 was old state    570
 New state    570 was old state    575
 New state    571 was old state    583
 New state    572 was old state    579
 New state    573 was old state    578
 New state    574 was old state    572
 New state    575 was old state    576
 New state    576 was old state    587
 New state    578 was old state    571
 New state    579 was old state    597
 New state    580 was old state    581
 New state    581 was old state    584
 New state    582 was old state    588
 New state    583 was old state    582
 New state    584 was old state    595
 New state    585 was old state    589
 New state    586 was old state    580
 New state    587 was old state    592
 New state    588 was old state    586
 New state    589 was old state    594
 New state    590 was old state    605
 New state    592 was old state    593
 New state    593 was old state    585
 New state    594 was old state    603
 New state    595 was old state    596
 New state    596 was old state    606
 New state    597 was old state    615
 New state    598 was old state    599
 New state    599 was old state    609
 New state    601 was old state    602
 New state    602 was old state    601
 New state    603 was old state    604
 New state    604 was old state    598
 New state    605 was old state    617
 New state    606 was old state    590
 New state    607 was old state    612
 New state    608 was old state    619
 New state    609 was old state    611
 New state    610 was old state    608
 No map to state    611
 New state    612 was old state    614
 New state    613 was old state    616
 New state    614 was old state    610
 New state    615 was old state    626
 New state    616 was old state    607
 New state    617 was old state    623
 New state    618 was old state    633
 New state    619 was old state    618
 New state    620 was old state    621
 New state    621 was old state    613
 New state    622 was old state    628
 New state    623 was old state    624
 New state    624 was old state    625
 New state    625 was old state    622
 New state    626 was old state    631
 New state    627 was old state    629
 New state    628 was old state    620
 New state    629 was old state    636
 New state    631 was old state    627
 New state    632 was old state    637
 New state    633 was old state    639
 New state    635 was old state    632
 New state    636 was old state    640
 New state    637 was old state    641
 New state    638 was old state    635
 New state    639 was old state    644
 New state    640 was old state    638
 New state    641 was old state    646
 New state    642 was old state    643
 New state    643 was old state    647
 New state    644 was old state    642
 New state    646 was old state    650
 New state    647 was old state    651
 New state    650 was old state    654
 New state    651 was old state    652
 New state    652 was old state    658
 New state    653 was old state    660
 New state    654 was old state    655
 New state    655 was old state    653
 New state    656 was old state    666
 New state    658 was old state    656
 New state    660 was old state    665
 New state    661 was old state    664
 New state    663 was old state    661
 New state    664 was old state    663
 New state    665 was old state    668
 New state    666 was old state    673
 New state    668 was old state    670
 New state    669 was old state    678
 New state    670 was old state    675
 New state    671 was old state    669
 New state    672 was old state    671
 New state    673 was old state    674
 New state    674 was old state    682
 New state    675 was old state    680
 New state    676 was old state    681
 New state    677 was old state    676
 New state    678 was old state    672
 New state    679 was old state    698
 New state    680 was old state    684
 New state    681 was old state    677
 New state    682 was old state    687
 New state    683 was old state    679
 New state    684 was old state    685
 New state    685 was old state    688
 New state    686 was old state    683
 New state    687 was old state    686
 New state    688 was old state    692
 New state    689 was old state    696
 New state    691 was old state    702
 New state    692 was old state    693
 New state    693 was old state    695
 New state    695 was old state    689
 New state    696 was old state    700
 New state    698 was old state    701
 New state    699 was old state    691
 New state    700 was old state    712
 New state    701 was old state    707
 New state    702 was old state    708
 New state    705 was old state    699
 New state    706 was old state    710
 New state    707 was old state    713
 New state    708 was old state    714
 New state    709 was old state    730
 New state    710 was old state    705
 New state    711 was old state    721
 New state    712 was old state    709
 New state    713 was old state    718
 New state    714 was old state    711
 New state    715 was old state    716
 New state    716 was old state    706
 New state    717 was old state    715
 New state    718 was old state    717
 New state    719 was old state    720
 New state    720 was old state    726
 New state    721 was old state    723
 New state    722 was old state    719
 New state    723 was old state    724
 New state    724 was old state    734
 New state    725 was old state    722
 New state    726 was old state    727
 New state    727 was old state    731
 New state    728 was old state    725
 New state    729 was old state    728
 New state    730 was old state    732
 New state    731 was old state    737
 New state    732 was old state    729
 New state    733 was old state    743
 New state    734 was old state    733
 New state    735 was old state    738
 New state    737 was old state    741
 New state    738 was old state    735
 New state    739 was old state    740
 New state    740 was old state    739
 New state    741 was old state    742
 New state    742 was old state    747
 New state    743 was old state    746
 New state    744 was old state    748
 New state    745 was old state    752
 New state    746 was old state    753
 New state    747 was old state    745
 New state    748 was old state    744
 No map to state    750
 New state    751 was old state    750
 No map to state    752
 New state    753 was old state    751
 New state    756 was old state    757
 New state    757 was old state    756
 New state    758 was old state    759
 New state    759 was old state    758
 New state    765 was old state    766
 New state    766 was old state    765
 New state    767 was old state    768
 New state    768 was old state    769
 New state    769 was old state    771
 New state    770 was old state    772
 New state    771 was old state    775
 New state    772 was old state    770
 New state    775 was old state    767
 New state    778 was old state    780
 New state    780 was old state    778
 New state    782 was old state    784
 New state    783 was old state    782
 New state    784 was old state    783
 New state    785 was old state    786
 New state    786 was old state    785
 New state    787 was old state    788
 New state    788 was old state    789
 New state    789 was old state    790
 New state    790 was old state    791
 New state    791 was old state    792
 New state    792 was old state    787
 New state    796 was old state    797
 New state    797 was old state    796
 New state    798 was old state    799
 New state    799 was old state    798
 New state    800 was old state    801
 New state    801 was old state    802
 New state    802 was old state    800
 New state    805 was old state    806
 New state    806 was old state    805
 New state    807 was old state    808
 New state    808 was old state    807
 New state    809 was old state    810
 New state    810 was old state    811
 New state    811 was old state    809
 New state    813 was old state    817
 New state    814 was old state    820
 New state    815 was old state    814
 New state    816 was old state    823
 New state    817 was old state    818
 New state    818 was old state    813
 New state    819 was old state    815
 New state    820 was old state    824
 New state    821 was old state    816
 New state    822 was old state    819
 New state    823 was old state    825
 New state    824 was old state    827
 New state    825 was old state    830
 New state    826 was old state    822
 New state    827 was old state    833
 New state    829 was old state    836
 New state    830 was old state    821
 New state    831 was old state    834
 New state    832 was old state    831
 New state    833 was old state    826
 New state    834 was old state    835
 New state    835 was old state    837
 New state    836 was old state    829
 New state    837 was old state    832
 New state    841 was old state    846
 New state    842 was old state    844
 New state    844 was old state    841
 New state    846 was old state    851
 New state    847 was old state    856
 New state    848 was old state    849
 New state    849 was old state    847
 New state    850 was old state    842
 New state    851 was old state    855
 New state    854 was old state    850
 New state    855 was old state    848
 New state    856 was old state    854
 New state    859 was old state    861
 New state    860 was old state    859
 New state    861 was old state    863
 New state    862 was old state    860
 New state    863 was old state    864
 New state    864 was old state    865
 New state    865 was old state    867
 New state    866 was old state    862
 New state    867 was old state    868
 New state    868 was old state    866
 New state    870 was old state    872
 New state    871 was old state    873
 New state    872 was old state    874
 New state    873 was old state    878
 New state    874 was old state    876
 New state    875 was old state    870
 New state    876 was old state    877
 New state    877 was old state    875
 New state    878 was old state    871
 New state    879 was old state    880
 New state    880 was old state    879
 New state    881 was old state    882
 New state    882 was old state    885
 New state    883 was old state    881
 New state    884 was old state    888
 New state    885 was old state    887
 New state    886 was old state    891
 New state    887 was old state    890
 New state    888 was old state    886
 New state    889 was old state    883
 New state    890 was old state    884
 New state    891 was old state    893
 New state    892 was old state    894
 New state    893 was old state    889
 New state    894 was old state    896
 New state    896 was old state    901
 New state    897 was old state    892
 New state    898 was old state    903
 New state    899 was old state    897
 New state    900 was old state    899
 New state    901 was old state    900
 New state    902 was old state    905
 New state    903 was old state    904
 New state    904 was old state    902
 New state    905 was old state    906
 New state    906 was old state    907
 New state    907 was old state    908
 New state    908 was old state    909
 New state    909 was old state    911
 New state    911 was old state    914
 New state    912 was old state    913
 New state    913 was old state    917
 New state    914 was old state    912
 New state    915 was old state    919
 New state    917 was old state    920
 New state    918 was old state    921
 New state    919 was old state    915
 New state    920 was old state    922
 New state    921 was old state    923
 New state    922 was old state    918
 New state    923 was old state    926
 New state    924 was old state    927
 New state    926 was old state    924
 New state    927 was old state    928
 New state    928 was old state    929
 New state    929 was old state    934
 New state    930 was old state    935
 New state    932 was old state    936
 New state    934 was old state    930
 New state    935 was old state    950
 New state    936 was old state    937
 New state    937 was old state    939
 New state    939 was old state    932
 New state    940 was old state    944
 New state    941 was old state    940
 New state    942 was old state    941
 New state    944 was old state    945
 New state    945 was old state    948
 New state    946 was old state    942
 New state    948 was old state    946
 New state    949 was old state    951
 New state    950 was old state    952
 New state    951 was old state    953
 New state    952 was old state    949
 New state    953 was old state    957
 New state    954 was old state    961
 New state    955 was old state    954
 New state    957 was old state    955
 New state    959 was old state    965
 New state    960 was old state    959
 New state    961 was old state    962
 New state    962 was old state    963
 New state    963 was old state    964
 New state    964 was old state    960
 New state    965 was old state    974
 New state    966 was old state    968
 New state    967 was old state    969
 New state    968 was old state    966
 New state    969 was old state    967
 New state    970 was old state    973
 New state    971 was old state    970
 New state    972 was old state    975
 New state    973 was old state    971
 New state    974 was old state    981
 New state    975 was old state    972
 New state    976 was old state    977
 New state    977 was old state    976
 New state    978 was old state    979
 New state    979 was old state    978
 New state    980 was old state    982
 New state    981 was old state    980
 New state    982 was old state    986
 New state    983 was old state    984
 New state    984 was old state    987
 New state    985 was old state    983
 New state    986 was old state    991
 New state    987 was old state    985
 New state    989 was old state    990
 New state    990 was old state    994
 New state    991 was old state    992
 New state    992 was old state    993
 New state    993 was old state    997
 New state    994 was old state    995
 New state    995 was old state    989
 New state    996 was old state    999
 New state    997 was old state   1002
 New state    999 was old state   1004
 New state   1000 was old state   1001
 New state   1001 was old state   1000
 New state   1002 was old state    996
 New state   1003 was old state   1005
 New state   1004 was old state   1006
 New state   1005 was old state   1008
 New state   1006 was old state   1010
 New state   1008 was old state   1003
 New state   1009 was old state   1017
 New state   1010 was old state   1011
 New state   1011 was old state   1012
 New state   1012 was old state   1014
 New state   1013 was old state   1015
 New state   1014 was old state   1016
 New state   1015 was old state   1009
 New state   1016 was old state   1013
 New state   1017 was old state   1023
 New state   1018 was old state   1019
 New state   1019 was old state   1018
 New state   1023 was old state   1030
 New state   1024 was old state   1025
 New state   1025 was old state   1029
 New state   1026 was old state   1024
 New state   1027 was old state   1031
 New state   1028 was old state   1027
 New state   1029 was old state   1032
 New state   1030 was old state   1026
 New state   1031 was old state   1028
 New state   1032 was old state   1033
 New state   1033 was old state   1036
 New state   1034 was old state   1041
 New state   1035 was old state   1038
 New state   1036 was old state   1035
 New state   1038 was old state   1034
 New state   1039 was old state   1046
 New state   1041 was old state   1039
 New state   1043 was old state   1048
 New state   1044 was old state   1043
 New state   1045 was old state   1050
 New state   1046 was old state   1044
 New state   1047 was old state   1055
 New state   1048 was old state   1045
 New state   1049 was old state   1047
 New state   1050 was old state   1049
 New state   1052 was old state   1053
 New state   1053 was old state   1056
 New state   1054 was old state   1061
 New state   1055 was old state   1054
 New state   1056 was old state   1063
 New state   1057 was old state   1052
 New state   1058 was old state   1057
 New state   1059 was old state   1064
 New state   1060 was old state   1062
 New state   1061 was old state   1059
 New state   1062 was old state   1058
 New state   1063 was old state   1060
 New state   1064 was old state   1066
 New state   1066 was old state   1072
 New state   1067 was old state   1068
 New state   1068 was old state   1079
 New state   1069 was old state   1076
 New state   1070 was old state   1071
 New state   1071 was old state   1070
 New state   1072 was old state   1067
 New state   1073 was old state   1074
 New state   1074 was old state   1069
 New state   1075 was old state   1078
 New state   1076 was old state   1073
 New state   1078 was old state   1080
 New state   1079 was old state   1075
 New state   1080 was old state   1082
 New state   1081 was old state   1084
 New state   1082 was old state   1081
 New state   1083 was old state   1085
 New state   1084 was old state   1086
 New state   1085 was old state   1083
 New state   1086 was old state   1087
 New state   1087 was old state   1088
 New state   1088 was old state   1091
 New state   1089 was old state   1090
 New state   1090 was old state   1092
 New state   1091 was old state   1094
 New state   1092 was old state   1093
 New state   1093 was old state   1089
 New state   1094 was old state   1095
 New state   1095 was old state   1096
 New state   1096 was old state   1099
 New state   1098 was old state   1100
 New state   1099 was old state   1105
 New state   1100 was old state   1101
 New state   1101 was old state   1104
 New state   1104 was old state   1098
 New state   1105 was old state   1106
 New state   1106 was old state   1112
 New state   1107 was old state   1108
 New state   1108 was old state   1109
 New state   1109 was old state   1110
 New state   1110 was old state   1114
 New state   1111 was old state   1107
 New state   1112 was old state   1111
 New state   1113 was old state   1115
 New state   1114 was old state   1116
 New state   1115 was old state   1118
 New state   1116 was old state   1113
 New state   1117 was old state   1119
 New state   1118 was old state   1117
 New state   1119 was old state   1122
 New state   1120 was old state   1121
 New state   1121 was old state   1124
 New state   1122 was old state   1126
 New state   1123 was old state   1125
 New state   1124 was old state   1123
 New state   1125 was old state   1128
 New state   1126 was old state   1127
 New state   1127 was old state   1120
 New state   1128 was old state   1131
 New state   1129 was old state   1132
 New state   1130 was old state   1133
 New state   1131 was old state   1129
 New state   1132 was old state   1130
 New state   1133 was old state   1139
 New state   1134 was old state   1138
 New state   1135 was old state   1137
 New state   1137 was old state   1140
 New state   1138 was old state   1135
 New state   1139 was old state   1134
 New state   1140 was old state   1142
 New state   1141 was old state   1147
 New state   1142 was old state   1141
 New state   1145 was old state   1146
 New state   1146 was old state   1145
 New state   1147 was old state   1148
 New state   1148 was old state   1150
 New state   1150 was old state   1153
 New state   1151 was old state   1152
 New state   1152 was old state   1154
 New state   1153 was old state   1151
 New state   1154 was old state   1158
 New state   1156 was old state   1157
 New state   1157 was old state   1156
 No map to state   1158
 New state   1159 was old state   1160
 New state   1160 was old state   1163
 New state   1162 was old state   1164
 New state   1163 was old state   1162
 New state   1164 was old state   1159
 New state   1165 was old state   1166
 New state   1166 was old state   1165
 New state   1167 was old state   1168
 New state   1168 was old state   1170
 New state   1169 was old state   1171
 New state   1170 was old state   1167
 New state   1171 was old state   1173
 New state   1172 was old state   1169
 New state   1173 was old state   1174
 New state   1174 was old state   1172
 New state   1175 was old state   1177
 New state   1176 was old state   1175
 New state   1177 was old state   1179
 New state   1179 was old state   1180
 New state   1180 was old state   1176
 New state   1182 was old state   1183
 New state   1183 was old state   1185
 New state   1184 was old state   1182
 New state   1185 was old state   1190
 New state   1188 was old state   1184
 New state   1189 was old state   1188
 New state   1190 was old state   1192
 New state   1191 was old state   1196
 New state   1192 was old state   1189
 New state   1193 was old state   1194
 New state   1194 was old state   1199
 New state   1196 was old state   1193
 New state   1197 was old state   1191
 New state   1198 was old state   1201
 New state   1199 was old state   1202
 New state   1201 was old state   1197
 New state   1202 was old state   1198
 New state   1205 was old state   1209
 New state   1207 was old state   1208
 New state   1208 was old state   1205
 New state   1209 was old state   1210
 New state   1210 was old state   1213
 New state   1211 was old state   1215
 New state   1212 was old state   1211
 New state   1213 was old state   1207
 New state   1215 was old state   1212
 New state   1218 was old state   1219
 New state   1219 was old state   1223
 New state   1221 was old state   1222
 New state   1222 was old state   1221
 New state   1223 was old state   1233
 New state   1224 was old state   1232
 New state   1226 was old state   1227
 New state   1227 was old state   1224
 New state   1228 was old state   1226
 New state   1229 was old state   1237
 New state   1230 was old state   1228
 New state   1231 was old state   1235
 New state   1232 was old state   1231
 New state   1233 was old state   1230
 New state   1234 was old state   1242
 New state   1235 was old state   1229
 New state   1236 was old state   1239
 New state   1237 was old state   1238
 New state   1238 was old state   1234
 New state   1239 was old state   1236
 New state   1240 was old state   1244
 New state   1242 was old state   1243
 New state   1243 was old state   1248
 New state   1244 was old state   1240
 New state   1246 was old state   1247
 New state   1247 was old state   1246
 New state   1248 was old state   1249
 New state   1249 was old state   1252
 New state   1250 was old state   1251
 New state   1251 was old state   1250
 New state   1252 was old state   1253
 New state   1253 was old state   1254
 New state   1254 was old state   1256
 New state   1255 was old state   1257
 New state   1256 was old state   1255
 New state   1257 was old state   1259
 New state   1259 was old state   1261
 New state   1260 was old state   1266
 New state   1261 was old state   1263
 New state   1262 was old state   1260
 New state   1263 was old state   1267
 New state   1264 was old state   1262
 New state   1265 was old state   1268
 New state   1266 was old state   1264
 New state   1267 was old state   1269
 New state   1268 was old state   1270
 New state   1269 was old state   1265
 New state   1270 was old state   1274
 New state   1272 was old state   1273
 New state   1273 was old state   1272
 New state   1274 was old state   1275
 New state   1275 was old state   1276
 New state   1276 was old state   1277
 New state   1277 was old state   1279
 New state   1279 was old state   1282
 New state   1282 was old state   1283
 New state   1283 was old state   1288
 New state   1285 was old state   1287
 New state   1286 was old state   1290
 New state   1287 was old state   1293
 New state   1288 was old state   1289
 New state   1289 was old state   1294
 New state   1290 was old state   1286
 New state   1291 was old state   1285
 New state   1293 was old state   1291
 New state   1294 was old state   1295
 New state   1295 was old state   1296
 New state   1296 was old state   1307
 New state   1299 was old state   1300
 New state   1300 was old state   1299
 New state   1302 was old state   1303
 New state   1303 was old state   1302
 New state   1304 was old state   1305
 New state   1305 was old state   1306
 New state   1306 was old state   1309
 New state   1307 was old state   1308
 New state   1308 was old state   1304
 New state   1309 was old state   1312
 New state   1310 was old state   1315
 New state   1312 was old state   1310
 New state   1313 was old state   1316
 New state   1314 was old state   1313
 New state   1315 was old state   1317
 New state   1316 was old state   1318
 New state   1317 was old state   1314
 New state   1318 was old state   1319
 New state   1319 was old state   1320
 New state   1320 was old state   1323
 New state   1321 was old state   1322
 New state   1322 was old state   1321
 New state   1323 was old state   1328
 New state   1326 was old state   1331
 New state   1328 was old state   1326
 New state   1331 was old state   1332
 No map to state   1332
 New state   1335 was old state   1337
 New state   1336 was old state   1339
 New state   1337 was old state   1338
 New state   1338 was old state   1336
 New state   1339 was old state   1335
 New state   1347 was old state   1348
 New state   1348 was old state   1351
 New state   1349 was old state   1347
 New state   1350 was old state   1349
 New state   1351 was old state   1350
 New state   1352 was old state   1353
 New state   1353 was old state   1355
 New state   1354 was old state   1352
 New state   1355 was old state   1354
 New state   1360 was old state   1362
 New state   1361 was old state   1363
 New state   1362 was old state   1361
 New state   1363 was old state   1360
 New state   1364 was old state   1366
 New state   1366 was old state   1364
 New state   1372 was old state   1373
 New state   1373 was old state   1372
 New state   1374 was old state   1375
 New state   1375 was old state   1376
 New state   1376 was old state   1374
 New state   1378 was old state   1379
 New state   1379 was old state   1378
 New state   1381 was old state   1382
 New state   1382 was old state   1383
 New state   1383 was old state   1385
 New state   1384 was old state   1381
 New state   1385 was old state   1387
 New state   1386 was old state   1384
 New state   1387 was old state   1386
 New state   1392 was old state   1393
 New state   1393 was old state   1392
 New state   1400 was old state   1401
 New state   1401 was old state   1400
 New state   1403 was old state   1405
 New state   1404 was old state   1407
 New state   1405 was old state   1409
 New state   1406 was old state   1404
 New state   1407 was old state   1408
 New state   1408 was old state   1406
 New state   1409 was old state   1410
 New state   1410 was old state   1412
 New state   1411 was old state   1413
 New state   1412 was old state   1411
 New state   1413 was old state   1416
 New state   1414 was old state   1420
 New state   1416 was old state   1417
 New state   1417 was old state   1424
 New state   1418 was old state   1414
 New state   1419 was old state   1418
 New state   1420 was old state   1419
 New state   1421 was old state   1422
 New state   1422 was old state   1421
 New state   1424 was old state   1425
 New state   1425 was old state   1426
 New state   1426 was old state   1428
 New state   1427 was old state   1430
 New state   1428 was old state   1429
 New state   1429 was old state   1431
 New state   1430 was old state   1427
 New state   1431 was old state   1436
 New state   1433 was old state   1435
 New state   1435 was old state   1433
 New state   1436 was old state   1437
 No map to state   1437
 New state   1440 was old state   1441
 New state   1441 was old state   1440
 New state   1443 was old state   1444
 New state   1444 was old state   1443
 New state   1445 was old state   1449
 New state   1446 was old state   1447
 New state   1447 was old state   1445
 New state   1448 was old state   1451
 New state   1449 was old state   1450
 New state   1450 was old state   1448
 New state   1451 was old state   1453
 New state   1452 was old state   1446
 New state   1453 was old state   1452
 New state   1454 was old state   1456
 New state   1455 was old state   1454
 New state   1456 was old state   1460
 New state   1457 was old state   1455
 New state   1458 was old state   1457
 New state   1459 was old state   1461
 New state   1460 was old state   1458
 New state   1461 was old state   1467
 New state   1462 was old state   1459
 New state   1463 was old state   1462
 New state   1464 was old state   1466
 New state   1466 was old state   1463
 New state   1467 was old state   1464
 New state   1469 was old state   1470
 New state   1470 was old state   1475
 New state   1472 was old state   1469
 New state   1474 was old state   1476
 New state   1475 was old state   1478
 New state   1476 was old state   1474
 New state   1477 was old state   1479
 New state   1478 was old state   1481
 New state   1479 was old state   1477
 New state   1481 was old state   1483
 New state   1483 was old state   1485
 New state   1484 was old state   1486
 New state   1485 was old state   1487
 New state   1486 was old state   1484
 New state   1487 was old state   1489
 New state   1489 was old state   1490
 New state   1490 was old state   1491
 New state   1491 was old state   1496
 New state   1493 was old state   1494
 New state   1494 was old state   1495
 New state   1495 was old state   1493
 New state   1496 was old state   1497
 New state   1497 was old state   1499
 New state   1498 was old state   1506
 New state   1499 was old state   1498
 New state   1501 was old state   1503
 No map to state   1503
 New state   1504 was old state   1501
 New state   1505 was old state   1504
 New state   1506 was old state   1505
 New state   1510 was old state   1512
 New state   1511 was old state   1510
 New state   1512 was old state   1513
 New state   1513 was old state   1517
 New state   1514 was old state   1511
 New state   1515 was old state   1514
 New state   1516 was old state   1515
 New state   1517 was old state   1524
 New state   1519 was old state   1516
 New state   1520 was old state   1519
 New state   1523 was old state   1520
 New state   1524 was old state   1523
 New state   1525 was old state   1526
 New state   1526 was old state   1525
[...]
     15   0.160652D+00  0.442856D-01 -0.525726D-01  0.133008D+00 -0.174838D+00
     16   0.167803D-01 -0.241183D-02  0.162434D-01 -0.796701D-02  0.131551D+00
              1541          1542          1543          1544          1545 
      1  -0.129452D+03 -0.129448D+03 -0.129437D+03 -0.129426D+03 -0.129419D+03
      2   0.310387D-01 -0.129621D-01  0.810487D-02 -0.144632D-01  0.128198D-01
      3  -0.137612D-01  0.724467D-02  0.168453D-02  0.302312D-01  0.230151D-01
      4   0.129040D-01  0.146777D-01  0.121638D-01  0.745317D-02 -0.399399D-02
      5  -0.175871D+00  0.533141D-01 -0.529558D-01  0.822046D-01 -0.695207D-01
      6   0.765261D-01 -0.326563D-01 -0.858336D-02 -0.179157D+00 -0.138106D+00
      7  -0.775237D-01 -0.826159D-01 -0.832953D-01 -0.522279D-01  0.284434D-01
      8   0.649309D-01 -0.364663D-02  0.558801D-01  0.187488D-01 -0.909632D-01
      9   0.209490D+00  0.122557D+00  0.192876D+00  0.902468D-01 -0.722155D-01
     10   0.590508D-01  0.122557D-01 -0.229888D-01 -0.315985D+00 -0.305405D+00
     11  -0.102858D+01  0.486572D+00 -0.173467D+00  0.171990D+00 -0.378160D+00
     12  -0.143647D+00  0.132407D+00 -0.216740D-01  0.153511D+00  0.722691D-01
     13   0.107125D+00 -0.407379D-01  0.616941D-01  0.657971D-01  0.225091D-01
     14   0.397360D+00 -0.237479D+00  0.352310D-01 -0.370862D+00 -0.174655D+00
     15  -0.111104D+00 -0.284775D+00 -0.164487D+00 -0.104517D+00  0.753951D-01
     16   0.313849D-01  0.612206D-02  0.740038D-01  0.784599D-01 -0.109001D-01
              1546          1547          1548          1549          1550 
      1  -0.129412D+03 -0.129409D+03 -0.129375D+03 -0.129361D+03 -0.129357D+03
      2  -0.412994D-02 -0.110614D-01  0.156518D-01  0.916409D-02  0.835312D-02
      3   0.471274D-02 -0.150096D-01  0.199426D-01 -0.238006D-01 -0.114063D-02
      4   0.330357D-02  0.332029D-02 -0.108671D-01 -0.189592D-02 -0.228262D-02
      5   0.132099D-01  0.575521D-01 -0.101842D+00 -0.325296D-01 -0.482522D-01
      6  -0.330870D-01  0.807107D-01 -0.126795D+00  0.132362D+00 -0.161718D-01
      7  -0.103574D-01 -0.164094D-01  0.722294D-01  0.132385D-01  0.159394D-01
      8  -0.132535D-01  0.357836D-02 -0.673281D-01  0.324895D-01 -0.758558D-02
      9   0.205180D-01  0.441950D-01 -0.145434D+00  0.239859D-01 -0.196940D-02
     10  -0.100181D+00  0.132165D+00 -0.329992D+00  0.162706D+00 -0.685996D-01
     11  -0.217458D+00  0.364886D+00 -0.613192D+00 -0.487822D+00 -0.223934D+00
     12   0.321494D+00 -0.186979D+00  0.132613D+00 -0.213837D+00 -0.118898D-02
     13   0.422659D-01  0.112707D+00  0.114463D-01  0.852016D-01  0.536061D-01
     14  -0.213735D+00  0.746804D-01 -0.247122D+00  0.378404D+00 -0.408123D-02
     15  -0.244859D-02 -0.201217D+00  0.171774D+00  0.653940D-01  0.518110D-01
     16  -0.930564D-01 -0.235585D-02 -0.592894D-01 -0.376809D-01 -0.181308D-02
              1551          1552          1553          1554          1555 
      1  -0.129355D+03 -0.129319D+03 -0.129283D+03 -0.129257D+03 -0.129246D+03
      2   0.100690D-02  0.651481D-02  0.336713D-02  0.876513D-02  0.279514D-02
      3  -0.105991D-01 -0.295002D-02 -0.259104D-01 -0.865578D-02  0.863345D-02
      4   0.132548D-01  0.864460D-02 -0.820759D-02 -0.467007D-02 -0.741928D-03
      5  -0.953929D-02 -0.347473D-01 -0.308721D-01 -0.290014D-01 -0.394362D-01
      6   0.553604D-01  0.192223D-01  0.160911D+00  0.364935D-01 -0.650919D-01
      7  -0.853094D-01 -0.500819D-01  0.519847D-01  0.451631D-01  0.125973D-01
      8  -0.115926D-01  0.457289D-01 -0.179549D-01 -0.348651D-01 -0.322188D-01
      9   0.777412D-01  0.147022D+00 -0.103329D+00 -0.116258D+00 -0.195968D-01
     10   0.715158D-01  0.453177D-01  0.157924D+00  0.533314D-01 -0.134466D+00
     11  -0.943453D-01 -0.111109D+00 -0.150404D+00 -0.976524D-01 -0.221548D-02
     12  -0.407234D-01 -0.580236D-01  0.350763D-01 -0.681682D-01 -0.693489D-02
     13   0.576649D-01  0.421087D-01 -0.777288D-01  0.998370D-01  0.424934D-01
     14   0.754226D-01  0.131802D+00  0.187207D+00  0.239769D+00 -0.125171D+00
     15  -0.120865D+00 -0.970542D-01  0.913855D-01  0.198820D+00 -0.426139D-01
     16  -0.564610D-01  0.285404D-01 -0.437060D-01 -0.177230D+00 -0.257271D-01
              1556          1557          1558          1559          1560 
      1  -0.129238D+03 -0.129227D+03 -0.129213D+03 -0.129212D+03 -0.129178D+03
      2   0.116926D-01 -0.720556D-02 -0.213327D-01 -0.319161D-01 -0.613039D-02
      3   0.201595D-01  0.228713D-02  0.364130D-02  0.195457D-01  0.731497D-02
      4  -0.766218D-02 -0.545354D-03  0.551413D-02  0.290366D-02  0.223932D-02
      5  -0.541756D-01  0.339452D-01  0.120514D+00  0.176183D+00  0.676407D-02
      6  -0.107134D+00 -0.707600D-02 -0.262587D-01 -0.958851D-01 -0.253619D-01
      7   0.434393D-01  0.551046D-02 -0.214523D-01 -0.236567D-01 -0.280644D-01
      8  -0.147140D-01 -0.166318D-01 -0.558626D-03 -0.872943D-02  0.227532D-01
      9  -0.726444D-01 -0.278974D-01  0.148177D-01  0.259155D-01  0.688692D-01
     10  -0.169307D+00 -0.227329D-03 -0.473112D-01 -0.165260D+00 -0.402222D-01
     11  -0.220240D+00  0.133530D+00  0.422087D+00  0.629555D+00  0.529082D-01
     12   0.248955D+00  0.511945D-01  0.111834D-01  0.895792D-01  0.118609D+00
     13  -0.134049D+00 -0.235458D-01  0.634228D-01 -0.317890D-01 -0.783734D-01
     14  -0.133375D+00 -0.465752D-01 -0.750376D-01 -0.228366D+00 -0.184637D+00
     15   0.213764D+00 -0.232892D-01 -0.866293D-01 -0.131832D+00 -0.148290D+00
     16   0.553957D-01 -0.377780D-02 -0.596749D-01  0.710841D-01  0.166931D+00
              1561          1562          1563          1564          1565 
      1  -0.129154D+03 -0.129142D+03 -0.129141D+03 -0.129125D+03 -0.129117D+03
      2   0.325861D-02 -0.549702D-02 -0.881595D-02 -0.527937D-02 -0.517560D-04
      3  -0.445536D-02  0.487419D-02 -0.218792D-02 -0.206137D-02 -0.188709D-02
      4   0.201839D-03  0.501919D-02 -0.436094D-02  0.462920D-02 -0.129084D-02
      5  -0.196501D-01  0.383952D-01  0.739684D-01  0.123922D-01  0.722089D-02
      6   0.469662D-01 -0.278142D-01  0.167287D-01  0.112663D-01  0.647176D-02
      7  -0.662495D-02 -0.259373D-01  0.293316D-01 -0.270633D-01  0.138360D-01
      8   0.187124D-01  0.250915D-02 -0.188906D-01  0.383985D-02  0.159055D-03
      9   0.998295D-02  0.380226D-01 -0.869510D-01  0.423577D-01 -0.209155D-01
     10   0.173618D+00 -0.301102D-01  0.596689D-01 -0.523158D-02  0.214306D-01
     11   0.569486D-01  0.308374D+00  0.133882D+00  0.575643D-01 -0.392413D-01
     12  -0.944177D-01  0.997269D-01  0.187970D-01 -0.869409D-02 -0.315938D-01
     13   0.108626D-02 -0.166335D+00 -0.137538D-01  0.268136D-01  0.378914D-01
     14   0.144462D+00 -0.860706D-01 -0.375058D-01 -0.107506D+00  0.577624D-01
     15  -0.311682D-01 -0.851105D-01  0.471375D-01 -0.142989D+00  0.641107D-01
     16  -0.814665D-02 -0.138382D+00  0.300737D-01  0.106540D-02 -0.509643D-01
              1566          1567          1568          1569          1570 
      1  -0.129078D+03 -0.129041D+03 -0.128985D+03 -0.128982D+03 -0.128974D+03
      2  -0.228841D-01  0.211264D-01 -0.578555D-02  0.174602D-01 -0.226967D-02
      3   0.218106D-01 -0.139827D-01 -0.315310D-02 -0.996469D-02 -0.491803D-02
      4   0.559212D-02  0.616521D-03  0.273132D-02 -0.433821D-02  0.373791D-02
      5   0.151559D+00 -0.159035D+00  0.213642D-01 -0.146051D+00  0.124972D-01
      6  -0.130956D+00  0.101973D+00 -0.118191D-01  0.796650D-01  0.234646D-01
      7  -0.320201D-01 -0.406696D-02 -0.930848D-03  0.253752D-01 -0.226834D-01
      8  -0.748440D-02  0.199874D-01 -0.335693D-01  0.414395D-02 -0.725556D-02
      9   0.302137D-01  0.524647D-01 -0.263668D-01 -0.256929D-01  0.187722D-01
     10  -0.133674D+00  0.564557D-01 -0.105134D+00  0.125873D+00  0.200910D-01
     11   0.609816D+00 -0.728629D+00 -0.194678D+00 -0.706829D+00 -0.511093D-01
     12   0.103118D+00  0.297683D-01  0.142025D+00 -0.143279D+00  0.815486D-01
     13   0.706749D-02  0.506239D-01  0.101109D+00 -0.105259D-02  0.118576D-01
     14  -0.231280D+00  0.231804D+00 -0.145462D+00  0.351492D+00 -0.139898D-01
     15  -0.125082D+00  0.418784D-01  0.368838D-01  0.128209D+00 -0.578623D-02
     16   0.480320D-01 -0.802907D-03 -0.119081D+00 -0.629016D-01 -0.174295D-01
              1571          1572          1573          1574          1575 
      1  -0.128966D+03 -0.128941D+03 -0.128904D+03 -0.128853D+03 -0.128845D+03
      2   0.193545D-02 -0.602961D-02 -0.207574D-02 -0.203095D-02 -0.276012D-03
      3  -0.476568D-02  0.817849D-03 -0.258909D-02 -0.211588D-02  0.527143D-02
      4  -0.335570D-02 -0.165415D-02 -0.143795D-02 -0.351686D-03 -0.500152D-02
      5  -0.429013D-01  0.505133D-01  0.247592D-01  0.406432D-01 -0.258297D-02
      6   0.429724D-01 -0.204147D-01  0.421291D-01  0.200101D-01 -0.501552D-01
      7   0.237602D-01  0.139866D-01 -0.688640D-02 -0.155111D-02  0.394692D-01
      8   0.319598D-01  0.224428D-01  0.577259D-02  0.172506D-02  0.135144D-01
      9   0.706594D-02  0.267079D-02  0.204771D-01 -0.718188D-03 -0.601256D-02
     10   0.272982D-01 -0.586961D-01  0.289530D-01 -0.883990D-02 -0.765738D-01
     11   0.371485D-01  0.131187D-01  0.234677D+00  0.495653D-01 -0.859085D-01
     12   0.376057D-01  0.490404D-01 -0.444105D-01 -0.256780D-01  0.619047D-01
     13  -0.558712D-01  0.185996D-01 -0.997185D-01 -0.221064D-01  0.996525D-02
     14  -0.243795D+00  0.566390D-01  0.937601D-01  0.207454D+00 -0.947622D-01
     15   0.365849D-01 -0.252361D-01 -0.292714D-01 -0.185048D-01  0.164702D-01
     16   0.500851D-01 -0.479812D-01  0.982486D-01  0.883323D-03 -0.226978D-01
              1576          1577          1578          1579          1580 
      1  -0.128843D+03 -0.128749D+03 -0.128705D+03 -0.128570D+03 -0.128477D+03
      2  -0.416208D-02  0.416025D-02 -0.117811D-01 -0.761490D-02  0.719836D-02
      3  -0.422445D-02  0.729902D-02  0.860171D-02  0.109565D-01 -0.353538D-02
      4   0.820733D-03 -0.281878D-02  0.336067D-02  0.323688D-02 -0.104867D-02
      5   0.266688D-01 -0.403768D-01  0.480076D-01  0.391000D-01 -0.542558D-01
      6   0.358069D-01 -0.719142D-01 -0.362868D-01 -0.714871D-01  0.439088D-01
      7  -0.139153D-01  0.333332D-01 -0.278151D-01 -0.333555D-01  0.272652D-01
      8   0.354608D-01 -0.383098D-01 -0.739652D-02 -0.317762D-04 -0.749286D-02
      9   0.473295D-01 -0.679752D-01  0.399858D-01  0.464235D-01 -0.579078D-01
     10   0.914148D-01 -0.163529D+00 -0.937463D-01 -0.695706D-01  0.100181D+00
     11   0.844382D-01 -0.185217D+00  0.150251D+00  0.181537D+00 -0.145854D+00
     12  -0.731084D-01  0.124347D+00 -0.449228D-02  0.610506D-02 -0.438830D-01
     13   0.369460D-01 -0.458206D-01 -0.247469D-01  0.824117D-03 -0.963321D-02
     14   0.588516D-01 -0.129019D+00 -0.139522D+00 -0.117883D+00  0.121216D+00
     15  -0.613120D-01  0.118402D+00 -0.427734D-01 -0.625202D-01  0.803086D-01
     16  -0.112142D-01  0.633969D-02  0.400749D-01  0.337744D-01 -0.368005D-01
              1581          1582          1583          1584          1585 
      1  -0.112434D+03 -0.112413D+03 -0.112410D+03 -0.112403D+03 -0.112387D+03
      2  -0.470928D-02  0.290472D-03  0.337724D-02  0.619952D-02  0.736019D-02
      3  -0.255336D-02  0.208694D-02  0.350981D-02 -0.113136D-01  0.303052D-02
      4  -0.423586D-02  0.681226D-02 -0.107357D-01 -0.186654D-02  0.374069D-02
      5   0.658763D-01 -0.160477D-02 -0.451925D-01 -0.671201D-01 -0.961579D-01
      6   0.363382D-01 -0.290342D-01 -0.424156D-01  0.123825D+00 -0.383342D-01
      7   0.427508D-01 -0.763681D-01  0.123543D+00  0.216267D-01 -0.487683D-01
      8  -0.132222D-01 -0.775672D-01 -0.569541D-01 -0.352831D-02  0.187610D-01
      9   0.884995D-01  0.187937D-01  0.290754D+00  0.550387D-01 -0.107936D+00
     10  -0.545595D-01 -0.288610D-02  0.788127D-01 -0.318712D+00  0.441974D-01
     11  -0.288003D+00 -0.310765D-01  0.196031D+00  0.342610D+00  0.426051D+00
     12  -0.610393D-02 -0.623449D-01  0.317182D-01 -0.113099D+00  0.285408D-01
     13   0.411614D-02 -0.531216D-02 -0.238129D-01 -0.247017D-01  0.106533D-01
     14  -0.100981D+00  0.260203D-02  0.109476D+00 -0.278432D+00  0.108814D+00
     15  -0.999001D-01 -0.223361D-01 -0.290323D+00 -0.506945D-01  0.111918D+00
     16  -0.223490D-01 -0.984999D-01 -0.782100D-01 -0.150329D-01  0.312007D-01
              1586          1587          1588          1589          1590 
      1  -0.112346D+03 -0.112318D+03 -0.112284D+03 -0.112277D+03 -0.112226D+03
      2  -0.435085D-02 -0.758927D-02 -0.620462D-02 -0.201867D-03  0.104030D-02
      3  -0.794878D-02  0.506930D-03  0.640064D-02  0.236497D-02 -0.119554D-02
      4   0.555030D-02 -0.575583D-02  0.405297D-02 -0.299404D-02 -0.201899D-02
      5   0.583419D-01  0.996302D-01  0.553841D-01 -0.161234D-02 -0.118082D-01
      6   0.100314D+00 -0.321136D-02 -0.699885D-01 -0.316258D-01  0.207704D-01
      7  -0.641792D-01  0.666410D-01 -0.451551D-01  0.380763D-01  0.248018D-01
      8  -0.794103D-01  0.755879D-01 -0.423978D-01 -0.160346D-01 -0.917473D-02
      9   0.143812D-01  0.202895D-02  0.844972D-02  0.876335D-01  0.568562D-01
     10  -0.470730D-01 -0.108327D+00 -0.692062D-01  0.632949D-01 -0.576423D-01
     11   0.138336D-02  0.191999D-01  0.376147D-01  0.177794D-01  0.642168D-01
     12   0.215482D+00 -0.177424D-01 -0.162967D+00  0.397595D-01 -0.245018D-01
     13  -0.797582D-02  0.176421D-01 -0.433622D-01  0.973656D-02 -0.164047D-01
     14   0.760117D-01  0.105692D+00  0.368485D-01  0.743481D-01 -0.474982D-01
     15  -0.435124D-02  0.211514D-01  0.341653D-02 -0.876000D-01 -0.579278D-01
     16  -0.761937D-01  0.895008D-01 -0.647820D-01 -0.252393D-01 -0.193536D-01
              1591          1592          1593          1594          1595 
      1  -0.112217D+03 -0.112199D+03 -0.112173D+03 -0.112147D+03 -0.112093D+03
      2  -0.204917D-02  0.242935D-02  0.216317D-02  0.971177D-04 -0.191061D-02
      3   0.249935D-02 -0.357909D-02  0.340643D-03 -0.183076D-02 -0.991873D-03
      4  -0.164232D-02 -0.437104D-02  0.830755D-03  0.172133D-02  0.225703D-03
      5   0.314716D-01 -0.296563D-01 -0.277609D-01  0.490974D-02  0.280055D-01
      6  -0.291329D-01  0.423680D-01 -0.286217D-02  0.308679D-01  0.185504D-01
      7   0.265070D-01  0.575874D-01 -0.804234D-02 -0.203129D-01 -0.813675D-03
      8   0.275462D-01  0.546836D-01  0.428436D-02 -0.266591D-01  0.117963D-02
      9   0.284214D-02 -0.174815D-02 -0.166467D-01 -0.539283D-03 -0.190706D-02
     10  -0.323042D-01  0.297984D-01 -0.753405D-02 -0.137501D-01 -0.358412D-01
     11   0.489721D-02 -0.118098D-01  0.170872D+00 -0.134222D-01 -0.254242D+00
     12  -0.564078D-01  0.886644D-01  0.482099D-01  0.662369D-01 -0.158262D+00
     13   0.171550D-02  0.308066D-01  0.458442D-01 -0.984408D-02 -0.147897D+00
     14   0.300520D-01 -0.225505D-01  0.941791D-02  0.557021D-02 -0.397110D-01
     15   0.505121D-02 -0.204391D-02  0.219487D-01  0.792984D-03  0.279093D-02
     16   0.288543D-01  0.767136D-01  0.914124D-02 -0.267033D-01  0.143377D-02
              1596          1597          1598          1599          1600 
      1  -0.112037D+03 -0.111976D+03 -0.111901D+03 -0.111770D+03 -0.111758D+03
      2  -0.769382D-03 -0.213382D-03  0.226607D-02 -0.462105D-03 -0.264744D-02
      3  -0.286216D-02  0.236207D-04 -0.725647D-03 -0.567875D-04  0.132425D-02
      4  -0.804341D-04  0.111399D-05 -0.215087D-04  0.471467D-04  0.109743D-03
      5   0.133134D-01  0.681752D-02 -0.348538D-01  0.851119D-02  0.363643D-01
      6   0.343217D-01  0.651881D-02  0.408753D-02  0.159569D-02 -0.234779D-01
      7  -0.458173D-03  0.944817D-03  0.445410D-03 -0.280819D-03 -0.386456D-02
      8  -0.427391D-02 -0.209383D-03  0.457912D-04  0.312987D-03 -0.114887D-02
      9   0.676464D-03  0.195032D-02 -0.421235D-02  0.126528D-02  0.514374D-02
     10  -0.103034D-01 -0.163179D-01  0.389485D-01 -0.297478D-03 -0.425159D-01
     11   0.112144D+00  0.104294D+00  0.754457D-01 -0.762141D-03  0.154477D+00
     12   0.212367D+00  0.125433D+00  0.890078D-01  0.156481D-01  0.798819D-01
     13   0.162907D+00  0.133475D+00  0.856512D-01  0.120744D-01  0.907441D-01
     14   0.121279D-01 -0.124884D-01 -0.393623D-02 -0.516816D-02 -0.127237D-01
     15   0.272552D-02 -0.988132D-03  0.196890D-02 -0.328312D-02 -0.689639D-02
     16  -0.312241D-02 -0.103917D-02 -0.255207D-02  0.362391D-03  0.439321D-02
              1601          1602          1603          1604          1605 
      1  -0.102808D+03 -0.102614D+03 -0.102612D+03 -0.102555D+03 -0.102526D+03
      2  -0.138346D-02  0.570966D-02  0.788511D-02 -0.607570D-03 -0.192750D-02
      3  -0.540440D-02  0.762871D-02 -0.449454D-02  0.124295D-02 -0.413117D-02
      4  -0.121332D-01 -0.479997D-02  0.209280D-02 -0.242857D-02  0.207244D-02
      5   0.980462D-02 -0.799629D-01 -0.138235D+00  0.124635D-01  0.334756D-01
      6   0.100710D+00 -0.114820D+00  0.789526D-01 -0.223030D-01  0.717591D-01
      7   0.188408D+00  0.642665D-01 -0.218682D-01  0.437759D-01 -0.312848D-01
      8  -0.896309D-01 -0.635609D-01  0.305892D-01 -0.325072D-01  0.350729D-01
      9  -0.428320D+00 -0.126936D+00  0.803956D-01 -0.104627D+00  0.636245D-01
     10   0.234378D+00 -0.306586D+00  0.955310D-01 -0.414455D-01  0.187429D+00
     11  -0.142814D-01 -0.385702D+00 -0.635757D+00  0.403755D-01  0.145341D+00
     12  -0.186227D+00  0.146058D+00 -0.940523D-01  0.129260D-01 -0.105995D+00
     13  -0.146884D+00 -0.168005D-01  0.329501D-01 -0.331506D-01  0.325675D-03
     14   0.231043D+00 -0.228646D+00  0.269220D+00 -0.632390D-01  0.147108D+00
     15   0.420821D+00  0.160002D+00 -0.144836D-01  0.103965D+00 -0.800122D-01
     16  -0.142880D+00 -0.237668D-01 -0.166398D-02 -0.206152D-01  0.511727D-02
              1606          1607          1608          1609          1610 
      1  -0.102468D+03 -0.102456D+03 -0.102314D+03 -0.102176D+03 -0.102084D+03
      2  -0.425406D-02  0.691816D-03  0.305123D-02  0.240524D-02 -0.823328D-03
      3  -0.191375D-02  0.987782D-03 -0.201035D-02 -0.125728D-02  0.207782D-03
      4  -0.188392D-03 -0.102550D-02  0.618129D-03  0.299891D-03 -0.394040D-03
      5   0.620182D-01 -0.510875D-02 -0.422704D-01 -0.313892D-01  0.575139D-02
      6   0.102877D-01 -0.186187D-01  0.273162D-01  0.541369D-02  0.207038D-02
      7   0.121818D-02  0.304984D-01 -0.124141D-01 -0.123418D-01  0.137839D-01
      8   0.141155D-02 -0.231753D-01  0.138134D-01  0.852548D-02 -0.780591D-02
      9  -0.159701D-01 -0.680824D-01  0.359031D-01  0.344846D-01 -0.338392D-01
     10   0.571038D-01 -0.449267D-01  0.475821D-01 -0.888452D-02  0.134913D-01
     11   0.306266D+00 -0.330016D-01 -0.242886D+00 -0.235389D+00  0.202517D+00
     12   0.703507D-02  0.135508D-01 -0.105628D+00 -0.120343D+00  0.149452D+00
     13   0.133594D-01 -0.228864D-01 -0.672990D-01 -0.113604D+00  0.149382D+00
     14  -0.234827D-01 -0.405974D-01  0.717195D-01  0.164501D-01 -0.109162D-02
     15  -0.132913D-01  0.764898D-01 -0.201439D-01 -0.232901D-01  0.299637D-01
     16  -0.291633D-02 -0.155854D-01  0.363744D-02  0.939778D-02 -0.120220D-01
 Unable to Open any file for archive entry.
 1\1\GINC-HEL18\SP\RwB97XD TD-FC\Gen\C2H7N1\RR\27-Feb-2022\0\\#P TD(Nst
 ates=10000) wB97XD/Gen SCF(maxcycles=100) Int(Grid=ultrafine)\\xGDB7_0
 0001_tier4.com\\0,1\C,0,-1.240791,-0.237624,-0.027525\C,0,0.048946,0.5
 59205,0.053709\N,0,1.202342,-0.317606,-0.116703\H,0,-2.109817,0.415828
 ,0.064703\H,0,-1.292929,-0.976209,0.776809\H,0,-1.300329,-0.769884,-0.
 977746\H,0,0.066306,1.122818,0.997967\H,0,0.069957,1.296574,-0.752592\
 H,0,1.236408,-1.003082,0.627159\H,0,2.06508,0.20771,-0.076483\\Version
 =EM64L-G16RevC.01\State=1-A\HF=-135.1864127\RMSD=8.896e-09\PG=C01 [X(C
 2H7N1)]\\@
 The archive entry for this job was punched.


 TIMES HAVE CHANGED. IN THE BIBLE WHEN AN ASS
 SPOKE IT WAS CONSIDERED A MIRACLE.
 Job cpu time:       0 days  2 hours 31 minutes 12.7 seconds.
 Elapsed time:       0 days  0 hours 18 minutes 56.9 seconds.
 File lengths (MBytes):  RWF=   3454 Int=      0 D2E=      0 Chk=   1092 Scr=      1
 Normal termination of Gaussian 16 at Sun Feb 27 07:01:32 2022.
