 Entering Gaussian System, Link 0=g16
 Input=bigQM7w_TDwB97XD_def2TZVP_000021.com
 Output=bigQM7w_TDwB97XD_def2TZVP_000021.log
 Initial command:
 /home/rr/g16/l1.exe "/scratch/rr/PBS_7918674.helios/Gau-12891.inp" -scrdir="/scratch/rr/PBS_7918674.helios/"
 Entering Link 1 = /home/rr/g16/l1.exe PID=     12897.
  
 Copyright (c) 1988-2019, Gaussian, Inc.  All Rights Reserved.
  
 This is part of the Gaussian(R) 16 program.  It is based on
 the Gaussian(R) 09 system (copyright 2009, Gaussian, Inc.),
 the Gaussian(R) 03 system (copyright 2003, Gaussian, Inc.),
 the Gaussian(R) 98 system (copyright 1998, Gaussian, Inc.),
 the Gaussian(R) 94 system (copyright 1995, Gaussian, Inc.),
 the Gaussian 92(TM) system (copyright 1992, Gaussian, Inc.),
 the Gaussian 90(TM) system (copyright 1990, Gaussian, Inc.),
 the Gaussian 88(TM) system (copyright 1988, Gaussian, Inc.),
 the Gaussian 86(TM) system (copyright 1986, Carnegie Mellon
 University), and the Gaussian 82(TM) system (copyright 1983,
 Carnegie Mellon University). Gaussian is a federally registered
 trademark of Gaussian, Inc.
  
 This software contains proprietary and confidential information,
 including trade secrets, belonging to Gaussian, Inc.
  
 This software is provided under written license and may be
 used, copied, transmitted, or stored only in accord with that
 written license.
  
 The following legend is applicable only to US Government
 contracts under FAR:
  
                    RESTRICTED RIGHTS LEGEND
  
 Use, reproduction and disclosure by the US Government is
 subject to restrictions as set forth in subparagraphs (a)
 and (c) of the Commercial Computer Software - Restricted
 Rights clause in FAR 52.227-19.
  
 Gaussian, Inc.
 340 Quinnipiac St., Bldg. 40, Wallingford CT 06492
  
  
 ---------------------------------------------------------------
 Warning -- This program may not be used in any manner that
 competes with the business of Gaussian, Inc. or will provide
 assistance to any competitor of Gaussian, Inc.  The licensee
 of this program is prohibited from giving any competitor of
 Gaussian, Inc. access to this program.  By using this program,
 the user acknowledges that Gaussian, Inc. is engaged in the
 business of creating and licensing software in the field of
 computational chemistry and represents and warrants to the
 licensee that it is not a competitor of Gaussian, Inc. and that
 it will not use this program in any manner prohibited above.
 ---------------------------------------------------------------
  

 Cite this work as:
 Gaussian 16, Revision C.01,
 M. J. Frisch, G. W. Trucks, H. B. Schlegel, G. E. Scuseria, 
 M. A. Robb, J. R. Cheeseman, G. Scalmani, V. Barone, 
 G. A. Petersson, H. Nakatsuji, X. Li, M. Caricato, A. V. Marenich, 
 J. Bloino, B. G. Janesko, R. Gomperts, B. Mennucci, H. P. Hratchian, 
 J. V. Ortiz, A. F. Izmaylov, J. L. Sonnenberg, D. Williams-Young, 
 F. Ding, F. Lipparini, F. Egidi, J. Goings, B. Peng, A. Petrone, 
 T. Henderson, D. Ranasinghe, V. G. Zakrzewski, J. Gao, N. Rega, 
 G. Zheng, W. Liang, M. Hada, M. Ehara, K. Toyota, R. Fukuda, 
 J. Hasegawa, M. Ishida, T. Nakajima, Y. Honda, O. Kitao, H. Nakai, 
 T. Vreven, K. Throssell, J. A. Montgomery, Jr., J. E. Peralta, 
 F. Ogliaro, M. J. Bearpark, J. J. Heyd, E. N. Brothers, K. N. Kudin, 
 V. N. Staroverov, T. A. Keith, R. Kobayashi, J. Normand, 
 K. Raghavachari, A. P. Rendell, J. C. Burant, S. S. Iyengar, 
 J. Tomasi, M. Cossi, J. M. Millam, M. Klene, C. Adamo, R. Cammi, 
 J. W. Ochterski, R. L. Martin, K. Morokuma, O. Farkas, 
 J. B. Foresman, and D. J. Fox, Gaussian, Inc., Wallingford CT, 2019.
 
 ******************************************
 Gaussian 16:  EM64L-G16RevC.01  3-Jul-2019
                27-Feb-2022 
 ******************************************
 %mem=64gb
 %nproc=8
 Will use up to    8 processors via shared memory.
 ----------------------------------------------------------------------
 #P TD(Nstates=10000) wB97XD/Gen SCF(maxcycles=100) Int(Grid=ultrafine)
 ----------------------------------------------------------------------
 1/38=1,172=1/1;
 2/12=2,17=6,18=5,40=1/2;
 3/5=7,11=9,25=1,30=1,74=-58,75=-5/1,2,3,8;
 4//1;
 5/5=2,7=100,38=5/2;
 8/6=1,10=1,108=10000/1;
 9/41=10000,42=1,70=2/14;
 6/7=2,8=2,9=2,10=2/1;
 99/5=1,9=1/99;
 Leave Link    1 at Sun Feb 27 06:39:57 2022, MaxMem=  8589934592 cpu:               0.8 elap:               0.1
 (Enter /home/rr/g16/l101.exe)
 ---------------------
 xGDB7_00001_tier4.com
 ---------------------
 Symbolic Z-matrix:
 Charge =  0 Multiplicity = 1
 6                    -1.13157  -0.50439   0. 
 6                     0.        0.47222   0. 
 6                     1.28414   0.15079   0. 
 1                    -1.76745  -0.36278   0.8777 
 1                    -0.77012  -1.53346   0. 
 1                    -1.76745  -0.36278  -0.8777 
 1                    -0.27655   1.52347   0. 
 1                     1.60844  -0.88456   0. 
 1                     2.05775   0.90833   0. 
 
 ITRead=  0  0  0  0  0  0  0  0  0
 MicOpt= -1 -1 -1 -1 -1 -1 -1 -1 -1
 NAtoms=      9 NQM=        9 NQMF=       0 NMMI=      0 NMMIF=      0
                NMic=       0 NMicF=      0.
                    Isotopes and Nuclear Properties:
 (Nuclear quadrupole moments (NQMom) in fm**2, nuclear magnetic moments (NMagM)
  in nuclear magnetons)

  Atom         1           2           3           4           5           6           7           8           9
 IAtWgt=          12          12          12           1           1           1           1           1           1
 AtmWgt=  12.0000000  12.0000000  12.0000000   1.0078250   1.0078250   1.0078250   1.0078250   1.0078250   1.0078250
 NucSpn=           0           0           0           1           1           1           1           1           1
 AtZEff=  -0.0000000  -0.0000000  -0.0000000  -0.0000000  -0.0000000  -0.0000000  -0.0000000  -0.0000000  -0.0000000
 NQMom=    0.0000000   0.0000000   0.0000000   0.0000000   0.0000000   0.0000000   0.0000000   0.0000000   0.0000000
 NMagM=    0.0000000   0.0000000   0.0000000   2.7928460   2.7928460   2.7928460   2.7928460   2.7928460   2.7928460
 AtZNuc=   6.0000000   6.0000000   6.0000000   1.0000000   1.0000000   1.0000000   1.0000000   1.0000000   1.0000000
 Leave Link  101 at Sun Feb 27 06:39:57 2022, MaxMem=  8589934592 cpu:               1.1 elap:               0.2
 (Enter /home/rr/g16/l202.exe)
                          Input orientation:                          
 ---------------------------------------------------------------------
 Center     Atomic      Atomic             Coordinates (Angstroms)
 Number     Number       Type             X           Y           Z
 ---------------------------------------------------------------------
      1          6           0       -1.131573   -0.504386    0.000000
      2          6           0        0.000000    0.472223    0.000000
      3          6           0        1.284136    0.150792    0.000000
      4          1           0       -1.767446   -0.362775    0.877699
      5          1           0       -0.770123   -1.533458    0.000000
      6          1           0       -1.767446   -0.362775   -0.877699
      7          1           0       -0.276551    1.523465    0.000000
      8          1           0        1.608435   -0.884556    0.000000
      9          1           0        2.057749    0.908326    0.000000
 ---------------------------------------------------------------------
                    Distance matrix (angstroms):
                    1          2          3          4          5
     1  C    0.000000
     2  C    1.494732   0.000000
     3  C    2.502980   1.323753   0.000000
     4  H    1.093043   2.142765   3.216560   0.000000
     5  H    1.090704   2.148452   2.656441   1.770736   0.000000
     6  H    1.093043   2.142765   3.216560   1.755398   1.770736
     7  H    2.200737   1.087010   2.078455   2.559497   3.096513
     8  H    2.766256   2.104261   1.084949   3.526923   2.465484
     9  H    3.488199   2.103454   1.082744   4.125308   3.736197
                    6          7          8          9
     6  H    0.000000
     7  H    2.559497   0.000000
     8  H    3.526923   3.058061   0.000000
     9  H    4.125308   2.413991   1.848326   0.000000
 Stoichiometry    C3H6
 Framework group  CS[SG(C3H4),X(H2)]
 Deg. of freedom    14
 Full point group                 CS      NOp   2
 Largest Abelian subgroup         CS      NOp   2
 Largest concise Abelian subgroup CS      NOp   2
                         Standard orientation:                         
 ---------------------------------------------------------------------
 Center     Atomic      Atomic             Coordinates (Angstroms)
 Number     Number       Type             X           Y           Z
 ---------------------------------------------------------------------
      1          6           0       -1.131573   -0.504386    0.000000
      2          6           0        0.000000    0.472223    0.000000
      3          6           0        1.284136    0.150792    0.000000
      4          1           0       -1.767446   -0.362776    0.877699
      5          1           0       -0.770122   -1.533458    0.000000
      6          1           0       -1.767446   -0.362776   -0.877699
      7          1           0       -0.276551    1.523465    0.000000
      8          1           0        1.608435   -0.884555    0.000000
      9          1           0        2.057749    0.908327    0.000000
 ---------------------------------------------------------------------
 Rotational constants (GHZ):          47.1476739           9.3674147           8.2089652
 Leave Link  202 at Sun Feb 27 06:39:58 2022, MaxMem=  8589934592 cpu:               0.2 elap:               0.1
 (Enter /home/rr/g16/l301.exe)
 General basis read from cards:  (5D, 7F)
 Centers:       4      5      6      7      8      9
 S 3 1.00
     Exponent=  3.4061341000D+01 Coefficients=  6.0251978000D-03
     Exponent=  5.1235746000D+00 Coefficients=  4.5021094000D-02
     Exponent=  1.1646626000D+00 Coefficients=  2.0189726000D-01
 S 1 1.00
     Exponent=  3.2723041000D-01 Coefficients=  1.0000000000D+00
 S 1 1.00
     Exponent=  1.0307241000D-01 Coefficients=  1.0000000000D+00
 P 1 1.00
     Exponent=  8.0000000000D-01 Coefficients=  1.0000000000D+00
 P 1 1.00
     Exponent=  9.5774129632D-02 Coefficients=  1.0000000000D+00
 ****
 Centers:       1      2      3
 S 6 1.00
     Exponent=  1.3575349682D+04 Coefficients=  2.2245814352D-04
     Exponent=  2.0352333680D+03 Coefficients=  1.7232738252D-03
     Exponent=  4.6322562359D+02 Coefficients=  8.9255715314D-03
     Exponent=  1.3120019598D+02 Coefficients=  3.5727984502D-02
     Exponent=  4.2853015891D+01 Coefficients=  1.1076259931D-01
     Exponent=  1.5584185766D+01 Coefficients=  2.4295627626D-01
 S 2 1.00
     Exponent=  6.2067138508D+00 Coefficients=  4.1440263448D-01
     Exponent=  2.5764896527D+00 Coefficients=  2.3744968655D-01
 S 1 1.00
     Exponent=  5.7696339419D-01 Coefficients=  1.0000000000D+00
 S 1 1.00
     Exponent=  2.2972831358D-01 Coefficients=  1.0000000000D+00
 S 1 1.00
     Exponent=  9.5164440028D-02 Coefficients=  1.0000000000D+00
 S 1 1.00
     Exponent=  4.8475401370D-02 Coefficients=  1.0000000000D+00
 P 4 1.00
     Exponent=  3.4697232244D+01 Coefficients=  5.3333657805D-03
     Exponent=  7.9582622826D+00 Coefficients=  3.5864109092D-02
     Exponent=  2.3780826883D+00 Coefficients=  1.4215873329D-01
     Exponent=  8.1433208183D-01 Coefficients=  3.4270471845D-01
 P 1 1.00
     Exponent=  2.8887547253D-01 Coefficients=  4.6445822433D-01
 P 1 1.00
     Exponent=  1.0056823671D-01 Coefficients=  2.4955789874D-01
 D 1 1.00
     Exponent=  1.0970000000D+00 Coefficients=  1.0000000000D+00
 D 1 1.00
     Exponent=  3.1800000000D-01 Coefficients=  1.0000000000D+00
 D 1 1.00
     Exponent=  9.0985336424D-02 Coefficients=  1.0000000000D+00
 F 1 1.00
     Exponent=  7.6100000000D-01 Coefficients=  1.0000000000D+00
 ****
 Ernie: Thresh=  0.10000D-02 Tol=  0.10000D-05 Strict=F.
 There are   127 symmetry adapted cartesian basis functions of A'  symmetry.
 There are    56 symmetry adapted cartesian basis functions of A"  symmetry.
 There are   112 symmetry adapted basis functions of A'  symmetry.
 There are    53 symmetry adapted basis functions of A"  symmetry.
   165 basis functions,   240 primitive gaussians,   183 cartesian basis functions
    12 alpha electrons       12 beta electrons
       nuclear repulsion energy        70.9801488057 Hartrees.
 IExCor= 4639 DFT=T Ex+Corr=wB97XD ExCW=0 ScaHFX=  1.000000
 ScaDFX=  1.000000  1.000000  1.000000  1.000000 ScalE2=  1.000000  1.000000
 IRadAn=      5 IRanWt=     -1 IRanGd=            0 ICorTp=0 IEmpDi=121
 HFx  wShort=  0.000000 wLong=  0.200000 cFull=  0.222036 cShort=  0.000000 cLong=  0.777964
 DFx  wShort=  0.000000 wLong=  0.200000 cFull=  0.000000 cShort=  0.000000 cLong=  1.000000
 NAtoms=    9 NActive=    9 NUniq=    8 SFac= 1.27D+00 NAtFMM=   60 NAOKFM=F Big=F
 Integral buffers will be    131072 words long.
 Raffenetti 1 integral format.
 Two-electron integral symmetry is turned on.
 R6Disp:  Grimme-D2 Dispersion energy=       -0.0023156498 Hartrees.
 Nuclear repulsion after empirical dispersion term =       70.9778331559 Hartrees.
 Leave Link  301 at Sun Feb 27 06:39:58 2022, MaxMem=  8589934592 cpu:               1.5 elap:               0.3
 (Enter /home/rr/g16/l302.exe)
 NPDir=0 NMtPBC=     1 NCelOv=     1 NCel=       1 NClECP=     1 NCelD=      1
         NCelK=      1 NCelE2=     1 NClLst=     1 CellRange=     0.0.
 One-electron integrals computed using PRISM.
 One-electron integral symmetry used in STVInt
 NBasis=   165 RedAO= T EigKep=  8.21D-06  NBF=   112    53
 NBsUse=   165 1.00D-06 EigRej= -1.00D+00 NBFU=   112    53
 Precomputing XC quadrature grid using
 IXCGrd= 4 IRadAn=           5 IRanWt=          -1 IRanGd=           0 AccXCQ= 0.00D+00.
 Generated NRdTot=       0 NPtTot=           0 NUsed=           0 NTot=          32
 NSgBfM=   183   183   183   183   183 MxSgAt=     9 MxSgA2=     9.
 Leave Link  302 at Sun Feb 27 06:39:59 2022, MaxMem=  8589934592 cpu:               2.6 elap:               0.4
 (Enter /home/rr/g16/l303.exe)
 DipDrv:  MaxL=1.
 Leave Link  303 at Sun Feb 27 06:39:59 2022, MaxMem=  8589934592 cpu:               0.7 elap:               0.2
 (Enter /home/rr/g16/l308.exe)
 Leave Link  308 at Sun Feb 27 06:40:00 2022, MaxMem=  8589934592 cpu:               0.7 elap:               0.2
 (Enter /home/rr/g16/l401.exe)
 ExpMin= 4.85D-02 ExpMax= 1.36D+04 ExpMxC= 4.63D+02 IAcc=3 IRadAn=         5 AccDes= 0.00D+00
 Harris functional with IExCor= 4639 and IRadAn=       5 diagonalized for initial guess.
 HarFok:  IExCor= 4639 AccDes= 0.00D+00 IRadAn=         5 IDoV= 1 UseB2=F ITyADJ=14
 ICtDFT=  3500011 ScaDFX=  1.000000  1.000000  1.000000  1.000000
 FoFCou: FMM=F IPFlag=           0 FMFlag=      100000 FMFlg1=           0
         NFxFlg=           0 DoJE=T BraDBF=F KetDBF=T FulRan=T
         wScrn=  0.000000 ICntrl=       500 IOpCl=  0 I1Cent=   200000004 NGrid=           0
         NMat0=    1 NMatS0=      1 NMatT0=    0 NMatD0=    1 NMtDS0=    0 NMtDT0=    0
 Petite list used in FoFCou.
 Harris En= -112.066673137210    
 JPrj=0 DoOrth=F DoCkMO=F.
 Initial guess orbital symmetries:
       Occupied  (A') (A') (A') (A') (A') (A') (A') (A') (A") (A')
                 (A') (A")
       Virtual   (A") (A') (A') (A') (A') (A") (A') (A') (A") (A')
                 (A') (A") (A') (A') (A") (A') (A") (A') (A') (A')
                 (A') (A") (A') (A") (A') (A') (A') (A") (A") (A')
                 (A') (A') (A") (A') (A') (A") (A') (A') (A") (A')
                 (A') (A') (A") (A") (A') (A") (A') (A') (A") (A')
                 (A") (A') (A') (A') (A') (A") (A') (A') (A') (A')
                 (A') (A') (A") (A') (A") (A') (A") (A') (A") (A')
                 (A") (A') (A') (A") (A') (A') (A') (A') (A") (A")
                 (A') (A") (A') (A") (A') (A') (A') (A") (A') (A')
                 (A") (A') (A") (A') (A') (A') (A") (A') (A') (A")
                 (A') (A') (A') (A") (A') (A') (A") (A") (A') (A')
                 (A') (A') (A') (A") (A') (A") (A') (A") (A') (A")
                 (A") (A') (A") (A') (A") (A') (A') (A') (A") (A')
                 (A") (A') (A') (A") (A') (A") (A') (A') (A") (A')
                 (A') (A') (A") (A') (A") (A') (A') (A') (A') (A')
                 (A') (A') (A')
 The electronic state of the initial guess is 1-A'.
 Leave Link  401 at Sun Feb 27 06:40:01 2022, MaxMem=  8589934592 cpu:               5.2 elap:               0.8
 (Enter /home/rr/g16/l502.exe)
 Keep R1 ints in memory in symmetry-blocked form, NReq=283049768.
 FoFCou: FMM=F IPFlag=           0 FMFlag=           0 FMFlg1=           0
         NFxFlg=           0 DoJE=F BraDBF=F KetDBF=F FulRan=T
         wScrn=  0.000000 ICntrl=       600 IOpCl=  0 I1Cent=           0 NGrid=           0
         NMat0=    1 NMatS0=  13695 NMatT0=    0 NMatD0=    1 NMtDS0=    0 NMtDT0=    0
 Petite list used in FoFCou.
 Closed shell SCF:
 Using DIIS extrapolation, IDIIS=  1040.
 NGot=  8589934592 LenX=  8542108382 LenY=  8542074452
 Requested convergence on RMS density matrix=1.00D-08 within 100 cycles.
 Requested convergence on MAX density matrix=1.00D-06.
 Requested convergence on             energy=1.00D-06.
 No special actions if energy rises.

 Cycle   1  Pass 1  IDiag  1:
 E= -117.868350620567    
 DIIS: error= 5.70D-02 at cycle   1 NSaved=   1.
 NSaved= 1 IEnMin= 1 EnMin= -117.868350620567     IErMin= 1 ErrMin= 5.70D-02
 ErrMax= 5.70D-02  0.00D+00 EMaxC= 1.00D-01 BMatC= 2.53D-01 BMatP= 2.53D-01
 IDIUse=3 WtCom= 4.30D-01 WtEn= 5.70D-01
 Coeff-Com:  0.100D+01
 Coeff-En:   0.100D+01
 Coeff:      0.100D+01
 Gap=     0.376 Goal=   None    Shift=    0.000
 GapD=    0.376 DampG=1.000 DampE=0.500 DampFc=0.5000 IDamp=-1.
 Damping current iteration by 5.00D-01
 RMSDP=4.96D-03 MaxDP=1.76D-01              OVMax= 5.50D-02

 Cycle   2  Pass 1  IDiag  1:
 E= -117.890175366431     Delta-E=       -0.021824745864 Rises=F Damp=T
 DIIS: error= 2.92D-02 at cycle   2 NSaved=   2.
 NSaved= 2 IEnMin= 2 EnMin= -117.890175366431     IErMin= 2 ErrMin= 2.92D-02
 ErrMax= 2.92D-02  0.00D+00 EMaxC= 1.00D-01 BMatC= 5.67D-02 BMatP= 2.53D-01
 IDIUse=3 WtCom= 7.08D-01 WtEn= 2.92D-01
 Coeff-Com: -0.815D+00 0.181D+01
 Coeff-En:   0.000D+00 0.100D+01
 Coeff:     -0.577D+00 0.158D+01
 Gap=     0.427 Goal=   None    Shift=    0.000
 RMSDP=2.43D-03 MaxDP=1.03D-01 DE=-2.18D-02 OVMax= 3.33D-02

 Cycle   3  Pass 1  IDiag  1:
 E= -117.909050490932     Delta-E=       -0.018875124501 Rises=F Damp=F
 DIIS: error= 2.97D-03 at cycle   3 NSaved=   3.
 NSaved= 3 IEnMin= 3 EnMin= -117.909050490932     IErMin= 3 ErrMin= 2.97D-03
 ErrMax= 2.97D-03  0.00D+00 EMaxC= 1.00D-01 BMatC= 1.55D-03 BMatP= 5.67D-02
 IDIUse=3 WtCom= 9.70D-01 WtEn= 2.97D-02
 Coeff-Com: -0.267D+00 0.580D+00 0.687D+00
 Coeff-En:   0.000D+00 0.000D+00 0.100D+01
 Coeff:     -0.259D+00 0.563D+00 0.696D+00
 Gap=     0.414 Goal=   None    Shift=    0.000
 RMSDP=2.17D-04 MaxDP=7.42D-03 DE=-1.89D-02 OVMax= 1.20D-02

 Cycle   4  Pass 1  IDiag  1:
 E= -117.910413377865     Delta-E=       -0.001362886933 Rises=F Damp=F
 DIIS: error= 3.71D-04 at cycle   4 NSaved=   4.
 NSaved= 4 IEnMin= 4 EnMin= -117.910413377865     IErMin= 4 ErrMin= 3.71D-04
 ErrMax= 3.71D-04  0.00D+00 EMaxC= 1.00D-01 BMatC= 2.34D-05 BMatP= 1.55D-03
 IDIUse=3 WtCom= 9.96D-01 WtEn= 3.71D-03
 Coeff-Com: -0.610D-01 0.133D+00 0.197D+00 0.731D+00
 Coeff-En:   0.000D+00 0.000D+00 0.000D+00 0.100D+01
 Coeff:     -0.608D-01 0.133D+00 0.196D+00 0.732D+00
 Gap=     0.414 Goal=   None    Shift=    0.000
 RMSDP=4.78D-05 MaxDP=1.01D-03 DE=-1.36D-03 OVMax= 2.46D-03

 Cycle   5  Pass 1  IDiag  1:
 E= -117.910432086111     Delta-E=       -0.000018708246 Rises=F Damp=F
 DIIS: error= 1.94D-04 at cycle   5 NSaved=   5.
 NSaved= 5 IEnMin= 5 EnMin= -117.910432086111     IErMin= 5 ErrMin= 1.94D-04
 ErrMax= 1.94D-04  0.00D+00 EMaxC= 1.00D-01 BMatC= 5.25D-06 BMatP= 2.34D-05
 IDIUse=3 WtCom= 9.98D-01 WtEn= 1.94D-03
 Coeff-Com:  0.263D-01-0.573D-01-0.481D-01 0.323D+00 0.756D+00
 Coeff-En:   0.000D+00 0.000D+00 0.000D+00 0.467D-01 0.953D+00
 Coeff:      0.263D-01-0.572D-01-0.480D-01 0.323D+00 0.756D+00
 Gap=     0.414 Goal=   None    Shift=    0.000
 RMSDP=3.31D-05 MaxDP=1.62D-03 DE=-1.87D-05 OVMax= 1.31D-03

 Cycle   6  Pass 1  IDiag  1:
 E= -117.910438084754     Delta-E=       -0.000005998643 Rises=F Damp=F
 DIIS: error= 2.96D-05 at cycle   6 NSaved=   6.
 NSaved= 6 IEnMin= 6 EnMin= -117.910438084754     IErMin= 6 ErrMin= 2.96D-05
 ErrMax= 2.96D-05  0.00D+00 EMaxC= 1.00D-01 BMatC= 7.41D-08 BMatP= 5.25D-06
 IDIUse=1 WtCom= 1.00D+00 WtEn= 0.00D+00
 Coeff-Com:  0.598D-02-0.130D-01-0.144D-01 0.644D-03 0.101D+00 0.920D+00
 Coeff:      0.598D-02-0.130D-01-0.144D-01 0.644D-03 0.101D+00 0.920D+00
 Gap=     0.414 Goal=   None    Shift=    0.000
 RMSDP=7.33D-06 MaxDP=1.22D-04 DE=-6.00D-06 OVMax= 1.45D-04

 Cycle   7  Pass 1  IDiag  1:
 E= -117.910438203657     Delta-E=       -0.000000118903 Rises=F Damp=F
 DIIS: error= 8.80D-06 at cycle   7 NSaved=   7.
 NSaved= 7 IEnMin= 7 EnMin= -117.910438203657     IErMin= 7 ErrMin= 8.80D-06
 ErrMax= 8.80D-06  0.00D+00 EMaxC= 1.00D-01 BMatC= 5.02D-09 BMatP= 7.41D-08
 IDIUse=1 WtCom= 1.00D+00 WtEn= 0.00D+00
 Coeff-Com: -0.634D-03 0.140D-02 0.859D-03-0.215D-01-0.253D-01 0.129D+00
 Coeff-Com:  0.916D+00
 Coeff:     -0.634D-03 0.140D-02 0.859D-03-0.215D-01-0.253D-01 0.129D+00
 Coeff:      0.916D+00
 Gap=     0.414 Goal=   None    Shift=    0.000
 RMSDP=2.11D-06 MaxDP=6.75D-05 DE=-1.19D-07 OVMax= 4.64D-05

 Cycle   8  Pass 1  IDiag  1:
 E= -117.910438211875     Delta-E=       -0.000000008218 Rises=F Damp=F
 DIIS: error= 1.94D-06 at cycle   8 NSaved=   8.
 NSaved= 8 IEnMin= 8 EnMin= -117.910438211875     IErMin= 8 ErrMin= 1.94D-06
 ErrMax= 1.94D-06  0.00D+00 EMaxC= 1.00D-01 BMatC= 7.22D-10 BMatP= 5.02D-09
 IDIUse=1 WtCom= 1.00D+00 WtEn= 0.00D+00
 Coeff-Com: -0.630D-03 0.137D-02 0.140D-02-0.723D-02-0.131D-01-0.251D-01
 Coeff-Com:  0.277D+00 0.766D+00
 Coeff:     -0.630D-03 0.137D-02 0.140D-02-0.723D-02-0.131D-01-0.251D-01
 Coeff:      0.277D+00 0.766D+00
 Gap=     0.414 Goal=   None    Shift=    0.000
 RMSDP=4.79D-07 MaxDP=2.05D-05 DE=-8.22D-09 OVMax= 1.41D-05

 Cycle   9  Pass 1  IDiag  1:
 E= -117.910438212857     Delta-E=       -0.000000000981 Rises=F Damp=F
 DIIS: error= 7.09D-07 at cycle   9 NSaved=   9.
 NSaved= 9 IEnMin= 9 EnMin= -117.910438212857     IErMin= 9 ErrMin= 7.09D-07
 ErrMax= 7.09D-07  0.00D+00 EMaxC= 1.00D-01 BMatC= 5.57D-11 BMatP= 7.22D-10
 IDIUse=1 WtCom= 1.00D+00 WtEn= 0.00D+00
 Coeff-Com:  0.539D-04-0.119D-03-0.346D-04 0.152D-02 0.311D-02-0.152D-01
 Coeff-Com: -0.907D-01 0.569D-01 0.104D+01
 Coeff:      0.539D-04-0.119D-03-0.346D-04 0.152D-02 0.311D-02-0.152D-01
 Coeff:     -0.907D-01 0.569D-01 0.104D+01
 Gap=     0.414 Goal=   None    Shift=    0.000
 RMSDP=2.39D-07 MaxDP=1.01D-05 DE=-9.81D-10 OVMax= 6.53D-06

 Cycle  10  Pass 1  IDiag  1:
 E= -117.910438212959     Delta-E=       -0.000000000102 Rises=F Damp=F
 DIIS: error= 1.47D-07 at cycle  10 NSaved=  10.
 NSaved=10 IEnMin=10 EnMin= -117.910438212959     IErMin=10 ErrMin= 1.47D-07
 ErrMax= 1.47D-07  0.00D+00 EMaxC= 1.00D-01 BMatC= 1.96D-12 BMatP= 5.57D-11
 IDIUse=1 WtCom= 1.00D+00 WtEn= 0.00D+00
 Coeff-Com:  0.333D-04-0.727D-04-0.626D-04 0.449D-03 0.117D-02-0.777D-03
 Coeff-Com: -0.251D-01-0.269D-01 0.123D+00 0.928D+00
 Coeff:      0.333D-04-0.727D-04-0.626D-04 0.449D-03 0.117D-02-0.777D-03
 Coeff:     -0.251D-01-0.269D-01 0.123D+00 0.928D+00
 Gap=     0.414 Goal=   None    Shift=    0.000
 RMSDP=4.36D-08 MaxDP=1.37D-06 DE=-1.02D-10 OVMax= 1.08D-06

 Cycle  11  Pass 1  IDiag  1:
 E= -117.910438212963     Delta-E=       -0.000000000004 Rises=F Damp=F
 DIIS: error= 2.31D-08 at cycle  11 NSaved=  11.
 NSaved=11 IEnMin=11 EnMin= -117.910438212963     IErMin=11 ErrMin= 2.31D-08
 ErrMax= 2.31D-08  0.00D+00 EMaxC= 1.00D-01 BMatC= 8.55D-14 BMatP= 1.96D-12
 IDIUse=1 WtCom= 1.00D+00 WtEn= 0.00D+00
 Coeff-Com: -0.535D-05 0.117D-04 0.669D-05-0.121D-03-0.182D-03 0.773D-03
 Coeff-Com:  0.597D-02-0.147D-02-0.626D-01-0.442D-01 0.110D+01
 Coeff:     -0.535D-05 0.117D-04 0.669D-05-0.121D-03-0.182D-03 0.773D-03
 Coeff:      0.597D-02-0.147D-02-0.626D-01-0.442D-01 0.110D+01
 Gap=     0.414 Goal=   None    Shift=    0.000
 RMSDP=1.39D-08 MaxDP=6.94D-07 DE=-4.21D-12 OVMax= 2.81D-07

 Cycle  12  Pass 1  IDiag  1:
 E= -117.910438212963     Delta-E=       -0.000000000000 Rises=F Damp=F
 DIIS: error= 4.91D-09 at cycle  12 NSaved=  12.
 NSaved=12 IEnMin=12 EnMin= -117.910438212963     IErMin=12 ErrMin= 4.91D-09
 ErrMax= 4.91D-09  0.00D+00 EMaxC= 1.00D-01 BMatC= 2.55D-15 BMatP= 8.55D-14
 IDIUse=1 WtCom= 1.00D+00 WtEn= 0.00D+00
 Coeff-Com: -0.936D-06 0.204D-05 0.186D-05-0.162D-04-0.287D-04 0.161D-04
 Coeff-Com:  0.777D-03 0.953D-03-0.369D-02-0.322D-01-0.135D-01 0.105D+01
 Coeff:     -0.936D-06 0.204D-05 0.186D-05-0.162D-04-0.287D-04 0.161D-04
 Coeff:      0.777D-03 0.953D-03-0.369D-02-0.322D-01-0.135D-01 0.105D+01
 Gap=     0.414 Goal=   None    Shift=    0.000
 RMSDP=1.90D-09 MaxDP=9.75D-08 DE=-5.68D-14 OVMax= 3.51D-08

 SCF Done:  E(RwB97XD) =  -117.910438213     A.U. after   12 cycles
            NFock= 12  Conv=0.19D-08     -V/T= 2.0056
 KE= 1.172533960993D+02 PE=-4.146897219856D+02 EE= 1.085480545174D+02
 Leave Link  502 at Sun Feb 27 06:40:10 2022, MaxMem=  8589934592 cpu:              72.8 elap:               9.7
 (Enter /home/rr/g16/l801.exe)
 DoSCS=F DFT=T ScalE2(SS,OS)=  1.000000  1.000000
 ExpMin= 4.85D-02 ExpMax= 1.36D+04 ExpMxC= 4.63D+02 IAcc=3 IRadAn=         5 AccDes= 0.00D+00
 HarFok:  IExCor=  205 AccDes= 0.00D+00 IRadAn=         5 IDoV=-2 UseB2=F ITyADJ=14
 ICtDFT= 12500011 ScaDFX=  1.000000  1.000000  1.000000  1.000000
 Largest valence mixing into a core orbital is  6.24D-05
 Largest core mixing into a valence orbital is  1.19D-05
 Range of M.O.s used for correlation:     4   165
 NBasis=   165 NAE=    12 NBE=    12 NFC=     3 NFV=     0
 NROrb=    162 NOA=     9 NOB=     9 NVA=   153 NVB=   153

 **** Warning!!: The largest alpha MO coefficient is  0.12480541D+03

 Leave Link  801 at Sun Feb 27 06:40:11 2022, MaxMem=  8589934592 cpu:               0.8 elap:               0.1
 (Enter /home/rr/g16/l914.exe)
 RHF ground state
 Keep R1, R2, and R3 ints in memory in symmetry-blocked form, NReq=3665673935.
 FoFCou: FMM=F IPFlag=           0 FMFlag=           0 FMFlg1=           0
         NFxFlg=           0 DoJE=F BraDBF=F KetDBF=F FulRan=T
         wScrn=  0.000000 ICntrl=       600 IOpCl=  0 I1Cent=           0 NGrid=           0
         NMat0=    1 NMatS0=  13695 NMatT0=    0 NMatD0=    1 NMtDS0=    0 NMtDT0=    0
 Petite list used in FoFCou.
 MDV=  8589934592 DFT=T DoStab=F Mixed=T DoRPA=T DoScal=F NonHer=T
 Making orbital integer symmetry assigments:
 Orbital symmetries:
       Occupied  (A') (A') (A') (A') (A') (A') (A') (A') (A") (A')
                 (A') (A")
       Virtual   (A') (A") (A') (A') (A') (A") (A') (A') (A") (A')
                 (A') (A") (A') (A') (A") (A') (A") (A') (A') (A')
                 (A") (A') (A') (A') (A") (A') (A") (A') (A") (A')
                 (A') (A') (A") (A') (A') (A") (A') (A') (A") (A')
                 (A') (A") (A') (A") (A') (A") (A') (A') (A") (A')
                 (A") (A') (A') (A') (A') (A') (A") (A') (A') (A')
                 (A') (A') (A") (A') (A") (A') (A") (A') (A") (A')
                 (A") (A') (A') (A") (A') (A') (A') (A') (A") (A")
                 (A') (A") (A') (A") (A') (A') (A') (A") (A') (A')
                 (A") (A') (A") (A') (A') (A') (A") (A') (A') (A")
                 (A') (A') (A') (A") (A') (A') (A") (A") (A') (A')
                 (A') (A') (A') (A") (A') (A") (A') (A") (A') (A")
                 (A") (A') (A") (A') (A') (A") (A') (A') (A") (A')
                 (A") (A') (A') (A") (A') (A") (A') (A') (A") (A')
                 (A') (A') (A") (A') (A") (A') (A') (A') (A') (A')
                 (A') (A') (A')
  1377 initial guesses have been made.
 Convergence on wavefunction:    0.001000000000000
 Davidson Disk Diagonalization:  ConvIn= 1.00D-03 SkipCon=T Conv= 1.00D-03.
 Max sub-space:  8262 roots to seek:  2754 dimension of matrix:         2754
 *** WARNING: Number of orthogonal guesses is         1377
 Iteration     1 Dimension  1377 NMult     0 NNew   1377
 CISAX will form  1377 AO SS matrices at one time.
 NMat=  1377 NSing=  1377 JSym2X=-1.
 New state      3 was old state      4
 New state      4 was old state      3
 New state      5 was old state      9
 New state      6 was old state      5
 New state      8 was old state     15
 New state      9 was old state      6
 New state     10 was old state      8
 New state     11 was old state     10
 New state     12 was old state     13
 New state     13 was old state     14
 New state     14 was old state     12
 New state     15 was old state     11
 New state     16 was old state     17
 New state     17 was old state     28
 New state     18 was old state     16
 New state     19 was old state     20
 New state     20 was old state     19
 New state     21 was old state     18
 New state     22 was old state     23
 New state     23 was old state     25
 New state     24 was old state     21
 New state     25 was old state     22
 New state     26 was old state     24
 New state     28 was old state     30
 New state     29 was old state     47
 New state     30 was old state     26
 New state     31 was old state     34
 New state     32 was old state     36
 New state     34 was old state     31
 New state     35 was old state     37
 New state     36 was old state     39
 New state     37 was old state     38
 New state     38 was old state     40
 New state     39 was old state     35
 New state     40 was old state     29
 New state     41 was old state     32
 New state     42 was old state     46
 New state     43 was old state     42
 New state     44 was old state     43
 New state     45 was old state     52
 New state     46 was old state     48
 New state     47 was old state     41
 New state     48 was old state     44
 New state     50 was old state     45
 New state     51 was old state     55
 New state     52 was old state     50
 New state     54 was old state     57
 New state     55 was old state     62
 New state     56 was old state     59
 New state     57 was old state     58
 New state     58 was old state     61
 New state     59 was old state     60
 New state     60 was old state     63
 New state     61 was old state     64
 New state     62 was old state     54
 New state     63 was old state     56
 New state     64 was old state     65
 New state     65 was old state     51
 New state     67 was old state     73
 New state     68 was old state     76
 New state     70 was old state     67
 New state     72 was old state     70
 New state     73 was old state     72
 New state     74 was old state     68
 New state     75 was old state     74
 New state     76 was old state     94
 New state     77 was old state     84
 New state     78 was old state     79
 New state     79 was old state     83
 New state     80 was old state     82
 New state     81 was old state     86
 New state     82 was old state     78
 New state     83 was old state     85
 New state     84 was old state     92
 New state     85 was old state     87
 New state     86 was old state     75
 New state     87 was old state     80
 New state     88 was old state     81
 New state     89 was old state     77
 New state     90 was old state     89
 New state     91 was old state     97
 New state     92 was old state     91
 New state     94 was old state     88
 New state     95 was old state     90
 New state     97 was old state     98
 New state     98 was old state    100
 New state    100 was old state    106
 New state    101 was old state    105
 New state    104 was old state    107
 New state    105 was old state     95
 New state    106 was old state    112
 New state    107 was old state    108
 New state    108 was old state    104
 New state    109 was old state    115
 New state    111 was old state    101
 New state    112 was old state    109
 New state    113 was old state    114
 New state    114 was old state    117
 New state    115 was old state    125
 New state    116 was old state    113
 New state    117 was old state    123
 New state    118 was old state    111
 New state    119 was old state    121
 New state    121 was old state    119
 New state    122 was old state    116
 New state    123 was old state    124
 New state    124 was old state    134
 New state    125 was old state    129
 New state    126 was old state    118
 New state    127 was old state    131
 New state    128 was old state    126
 New state    129 was old state    139
 New state    131 was old state    128
 New state    132 was old state    137
 New state    133 was old state    146
 New state    134 was old state    143
 New state    135 was old state    132
 New state    136 was old state    133
 New state    137 was old state    127
 New state    138 was old state    159
 New state    139 was old state    138
 New state    140 was old state    145
 New state    141 was old state    147
 New state    143 was old state    135
 New state    144 was old state    136
 New state    145 was old state    148
 New state    146 was old state    150
 New state    147 was old state    141
 New state    148 was old state    149
 New state    149 was old state    155
 New state    150 was old state    156
 New state    151 was old state    154
 New state    152 was old state    160
 New state    153 was old state    158
 New state    154 was old state    151
 New state    155 was old state    153
 New state    156 was old state    186
 New state    158 was old state    167
 New state    159 was old state    162
 New state    160 was old state    144
 New state    161 was old state    166
 New state    162 was old state    152
 New state    163 was old state    161
 New state    165 was old state    199
 New state    166 was old state    163
 New state    167 was old state    169
 New state    168 was old state    165
 New state    169 was old state    173
 New state    170 was old state    168
 New state    171 was old state    175
 New state    172 was old state    178
 New state    173 was old state    177
 New state    174 was old state    183
 New state    175 was old state    182
 New state    176 was old state    174
 New state    177 was old state    179
 New state    178 was old state    176
 New state    179 was old state    171
 New state    180 was old state    170
 New state    181 was old state    180
 New state    182 was old state    184
 New state    183 was old state    172
 New state    184 was old state    185
 New state    185 was old state    197
 New state    186 was old state    181
 New state    187 was old state    190
 New state    188 was old state    193
 New state    189 was old state    187
 New state    190 was old state    198
 New state    191 was old state    188
 New state    192 was old state    191
 New state    193 was old state    189
 New state    194 was old state    202
 New state    195 was old state    201
 New state    196 was old state    194
 New state    197 was old state    203
 New state    198 was old state    200
 New state    199 was old state    207
 New state    200 was old state    196
 New state    201 was old state    211
 New state    202 was old state    212
 New state    203 was old state    195
 New state    204 was old state    205
 New state    205 was old state    204
 New state    206 was old state    216
 New state    207 was old state    220
 New state    208 was old state    192
 New state    209 was old state    214
 New state    210 was old state    208
 New state    211 was old state    213
 New state    212 was old state    206
 New state    213 was old state    215
 New state    214 was old state    219
 New state    215 was old state    217
 New state    216 was old state    209
 New state    217 was old state    225
 New state    219 was old state    222
 New state    220 was old state    210
 New state    221 was old state    224
 New state    222 was old state    223
 New state    223 was old state    227
 New state    224 was old state    228
 New state    225 was old state    231
 New state    226 was old state    221
 New state    227 was old state    233
 New state    228 was old state    232
 New state    229 was old state    234
 New state    230 was old state    236
 New state    231 was old state    241
 New state    232 was old state    230
 New state    233 was old state    237
 New state    234 was old state    262
 New state    235 was old state    238
 New state    236 was old state    226
 New state    237 was old state    235
 New state    238 was old state    253
 New state    239 was old state    244
 New state    241 was old state    243
 New state    243 was old state    252
 New state    244 was old state    260
 New state    245 was old state    258
 New state    247 was old state    239
 New state    248 was old state    229
 New state    249 was old state    251
 New state    250 was old state    257
 New state    251 was old state    277
 New state    252 was old state    245
 New state    253 was old state    248
 New state    254 was old state    249
 New state    255 was old state    267
 New state    256 was old state    247
 New state    257 was old state    250
 New state    258 was old state    270
 New state    259 was old state    256
 New state    260 was old state    259
 New state    261 was old state    269
 New state    262 was old state    254
 New state    263 was old state    268
 New state    264 was old state    265
 New state    265 was old state    275
 New state    266 was old state    276
 New state    267 was old state    261
 New state    268 was old state    266
 New state    269 was old state    264
 New state    270 was old state    255
 New state    271 was old state    263
 New state    272 was old state    273
 No map to state    273
 New state    274 was old state    279
 New state    275 was old state    278
 New state    276 was old state    280
 New state    277 was old state    285
 New state    278 was old state    293
 New state    279 was old state    281
 New state    280 was old state    295
 New state    281 was old state    272
 New state    283 was old state    287
 New state    284 was old state    288
 New state    285 was old state    271
 New state    286 was old state    289
 New state    287 was old state    286
 New state    288 was old state    284
 New state    289 was old state    283
 New state    291 was old state    274
 New state    292 was old state    301
 New state    293 was old state    291
 New state    294 was old state    299
 New state    295 was old state    294
 New state    297 was old state    298
 New state    298 was old state    292
 New state    299 was old state    297
 New state    300 was old state    305
 New state    301 was old state    304
 New state    302 was old state    303
 New state    303 was old state    300
 New state    304 was old state    302
 New state    305 was old state    306
 New state    306 was old state    315
 New state    308 was old state    310
 New state    309 was old state    308
 New state    310 was old state    311
 New state    311 was old state    322
 New state    313 was old state    318
 New state    314 was old state    309
 New state    315 was old state    317
 New state    316 was old state    313
 New state    317 was old state    316
 New state    318 was old state    319
 New state    319 was old state    314
 New state    320 was old state    323
 New state    321 was old state    334
 New state    322 was old state    324
 New state    323 was old state    320
 New state    324 was old state    327
 New state    325 was old state    336
 New state    326 was old state    339
 New state    327 was old state    325
 New state    328 was old state    340
 New state    329 was old state    328
 New state    330 was old state    332
 New state    331 was old state    326
 New state    332 was old state    330
 New state    333 was old state    329
 New state    334 was old state    335
 New state    335 was old state    343
 New state    336 was old state    348
 New state    337 was old state    344
 New state    338 was old state    333
 New state    339 was old state    341
 New state    340 was old state    338
 New state    341 was old state    345
 New state    342 was old state    337
 New state    343 was old state    355
 New state    344 was old state    358
 New state    345 was old state    351
 New state    346 was old state    347
 New state    347 was old state    331
 New state    348 was old state    350
 New state    350 was old state    346
 New state    351 was old state    342
 New state    352 was old state    363
 New state    353 was old state    360
 New state    354 was old state    353
 New state    355 was old state    364
 New state    356 was old state    362
 New state    357 was old state    352
 New state    358 was old state    367
 New state    359 was old state    354
 New state    360 was old state    356
 New state    361 was old state    359
 New state    362 was old state    374
 New state    363 was old state    373
 New state    364 was old state    380
 New state    365 was old state    357
 New state    366 was old state    361
 New state    367 was old state    369
 New state    369 was old state    370
 New state    370 was old state    383
 New state    371 was old state    381
 New state    372 was old state    365
 New state    373 was old state    371
 New state    374 was old state    379
 New state    375 was old state    376
 New state    376 was old state    372
 New state    377 was old state    375
 New state    378 was old state    366
 New state    379 was old state    388
 New state    380 was old state    378
 New state    381 was old state    377
 New state    382 was old state    385
 New state    383 was old state    384
 New state    384 was old state    390
 New state    385 was old state    391
 New state    386 was old state    389
 New state    387 was old state    386
 New state    388 was old state    394
 New state    389 was old state    382
 New state    390 was old state    387
 New state    391 was old state    401
 New state    392 was old state    402
 New state    393 was old state    405
 New state    394 was old state    392
 New state    395 was old state    400
 New state    396 was old state    393
 New state    397 was old state    395
 New state    398 was old state    404
 New state    399 was old state    407
 New state    400 was old state    408
 New state    401 was old state    406
 New state    402 was old state    416
 New state    403 was old state    420
 New state    404 was old state    397
 New state    405 was old state    413
 New state    406 was old state    398
 New state    407 was old state    411
 New state    408 was old state    396
 New state    409 was old state    399
 New state    410 was old state    403
 New state    411 was old state    415
 New state    412 was old state    414
 New state    413 was old state    412
 New state    414 was old state    423
 New state    415 was old state    419
 New state    416 was old state    409
 New state    417 was old state    426
 New state    418 was old state    410
 New state    419 was old state    424
 New state    420 was old state    417
 New state    421 was old state    427
 New state    422 was old state    418
 New state    423 was old state    421
 New state    424 was old state    436
 New state    425 was old state    429
 New state    426 was old state    430
 New state    427 was old state    425
 New state    428 was old state    446
 New state    429 was old state    449
 New state    430 was old state    435
 New state    431 was old state    428
 New state    432 was old state    422
 New state    433 was old state    443
 New state    434 was old state    432
 New state    435 was old state    434
 New state    436 was old state    437
 New state    437 was old state    439
 New state    438 was old state    431
 New state    439 was old state    445
 New state    440 was old state    433
 New state    441 was old state    447
 New state    442 was old state    441
 New state    443 was old state    438
 New state    444 was old state    464
 New state    445 was old state    453
 New state    446 was old state    450
 New state    447 was old state    442
 New state    448 was old state    444
 New state    449 was old state    440
 New state    450 was old state    454
 New state    451 was old state    459
 New state    453 was old state    448
 New state    454 was old state    451
 New state    455 was old state    456
 New state    456 was old state    460
 New state    457 was old state    467
 New state    458 was old state    455
 New state    459 was old state    462
 New state    460 was old state    468
 New state    461 was old state    458
 New state    462 was old state    457
 New state    463 was old state    474
 New state    464 was old state    466
 New state    465 was old state    461
 New state    466 was old state    473
 New state    467 was old state    472
 New state    468 was old state    469
 New state    469 was old state    480
 New state    471 was old state    463
 New state    472 was old state    481
 New state    473 was old state    465
 New state    474 was old state    471
 New state    475 was old state    479
 New state    476 was old state    485
 New state    477 was old state    478
 New state    478 was old state    476
 New state    479 was old state    475
 New state    480 was old state    482
 New state    481 was old state    484
 New state    482 was old state    477
 New state    483 was old state    493
 New state    484 was old state    483
 New state    485 was old state    496
 New state    486 was old state    487
 New state    487 was old state    499
 New state    488 was old state    491
 New state    489 was old state    486
 New state    490 was old state    488
 New state    491 was old state    509
 New state    492 was old state    503
 New state    493 was old state    498
 New state    494 was old state    489
 New state    495 was old state    490
 New state    496 was old state    504
 New state    497 was old state    510
 New state    498 was old state    500
 New state    499 was old state    492
 New state    500 was old state    495
 New state    501 was old state    494
 New state    502 was old state    505
 New state    503 was old state    511
 New state    504 was old state    513
 New state    505 was old state    512
 New state    506 was old state    502
 New state    507 was old state    501
 New state    508 was old state    507
 New state    509 was old state    506
 New state    510 was old state    497
 New state    511 was old state    518
 New state    512 was old state    522
 New state    513 was old state    508
 New state    515 was old state    517
 New state    516 was old state    520
 New state    517 was old state    515
 New state    518 was old state    516
 New state    519 was old state    525
 New state    520 was old state    532
 New state    521 was old state    519
 New state    522 was old state    524
 New state    523 was old state    527
 New state    524 was old state    521
 New state    525 was old state    535
 New state    526 was old state    523
 New state    527 was old state    526
 New state    528 was old state    531
 New state    530 was old state    528
 New state    531 was old state    530
 New state    532 was old state    542
 New state    533 was old state    536
 New state    535 was old state    538
 New state    536 was old state    533
 New state    537 was old state    541
 New state    538 was old state    537
 New state    539 was old state    547
 New state    540 was old state    546
 New state    541 was old state    539
 New state    542 was old state    551
 New state    543 was old state    555
 New state    544 was old state    543
 New state    545 was old state    540
 New state    546 was old state    552
 New state    547 was old state    544
 New state    548 was old state    550
 No map to state    549
 New state    550 was old state    549
 New state    551 was old state    557
 New state    552 was old state    545
 New state    553 was old state    562
 New state    554 was old state    553
 New state    555 was old state    563
 New state    556 was old state    554
 New state    557 was old state    556
 New state    558 was old state    559
 New state    559 was old state    564
 New state    561 was old state    570
 New state    562 was old state    558
 New state    563 was old state    561
 New state    564 was old state    565
 New state    565 was old state    566
 New state    566 was old state    573
 New state    567 was old state    585
 New state    569 was old state    567
 New state    570 was old state    569
 New state    571 was old state    583
 New state    572 was old state    577
 New state    573 was old state    576
 New state    574 was old state    575
 New state    575 was old state    580
 New state    576 was old state    574
 New state    577 was old state    582
 New state    578 was old state    584
 New state    579 was old state    571
 New state    580 was old state    572
 New state    581 was old state    579
 New state    582 was old state    578
 New state    583 was old state    586
 New state    584 was old state    581
 No map to state    585
 New state    586 was old state    588
 New state    587 was old state    589
 New state    588 was old state    587
 New state    589 was old state    592
 New state    591 was old state    596
 New state    592 was old state    591
 New state    593 was old state    594
 New state    594 was old state    595
 New state    595 was old state    598
 New state    596 was old state    593
 New state    598 was old state    600
 New state    599 was old state    602
 New state    600 was old state    599
 New state    601 was old state    606
 New state    602 was old state    603
 New state    603 was old state    608
 New state    604 was old state    612
 New state    605 was old state    607
 New state    606 was old state    601
 New state    607 was old state    605
 New state    608 was old state    604
 New state    609 was old state    610
 New state    610 was old state    611
 New state    611 was old state    609
 New state    612 was old state    614
 New state    613 was old state    616
 New state    614 was old state    613
 New state    615 was old state    618
 New state    616 was old state    619
 New state    617 was old state    620
 New state    618 was old state    617
 New state    619 was old state    615
 New state    620 was old state    625
 New state    621 was old state    623
 New state    622 was old state    621
 New state    623 was old state    622
 New state    624 was old state    629
 New state    625 was old state    624
 New state    628 was old state    630
 New state    629 was old state    634
 New state    630 was old state    628
 New state    631 was old state    632
 New state    632 was old state    631
 New state    633 was old state    635
 New state    634 was old state    633
 New state    635 was old state    638
 New state    636 was old state    640
 New state    637 was old state    636
 New state    638 was old state    637
 New state    640 was old state    641
 New state    641 was old state    642
 No map to state    642
 New state    643 was old state    644
 New state    644 was old state    643
 New state    646 was old state    649
 New state    647 was old state    648
 New state    648 was old state    647
 New state    649 was old state    646
 New state    650 was old state    653
 New state    652 was old state    650
 New state    653 was old state    652
 New state    654 was old state    655
 New state    655 was old state    654
 New state    658 was old state    661
 New state    659 was old state    660
 New state    660 was old state    658
 New state    661 was old state    662
 New state    662 was old state    659
 New state    663 was old state    664
 New state    664 was old state    665
 New state    665 was old state    663
 New state    666 was old state    668
 New state    667 was old state    669
 New state    668 was old state    666
 New state    669 was old state    667
 New state    671 was old state    672
 New state    672 was old state    671
 New state    673 was old state    679
 New state    674 was old state    673
 New state    676 was old state    677
 New state    677 was old state    678
 New state    678 was old state    676
 New state    679 was old state    674
 New state    683 was old state    685
 New state    684 was old state    683
 New state    685 was old state    684
 New state    687 was old state    688
 New state    688 was old state    690
 New state    689 was old state    687
 New state    690 was old state    689
 New state    692 was old state    696
 New state    693 was old state    695
 New state    694 was old state    693
 New state    695 was old state    692
 New state    696 was old state    694
 New state    697 was old state    698
 New state    698 was old state    697
 New state    700 was old state    703
 New state    702 was old state    700
 New state    703 was old state    705
 New state    705 was old state    702
 New state    707 was old state    708
 New state    708 was old state    709
 New state    709 was old state    711
 New state    710 was old state    707
 New state    711 was old state    710
 New state    712 was old state    713
 New state    713 was old state    712
 New state    717 was old state    718
 New state    718 was old state    719
 New state    719 was old state    721
 New state    721 was old state    725
 New state    722 was old state    717
 New state    724 was old state    722
 New state    725 was old state    730
 New state    727 was old state    729
 New state    728 was old state    724
 New state    729 was old state    728
 New state    730 was old state    732
 New state    731 was old state    727
 New state    732 was old state    731
 New state    733 was old state    737
 New state    735 was old state    733
 New state    737 was old state    735
 New state    738 was old state    741
 New state    739 was old state    738
 New state    740 was old state    744
 New state    741 was old state    742
 New state    742 was old state    743
 New state    743 was old state    747
 New state    744 was old state    739
 New state    745 was old state    740
 New state    747 was old state    745
 New state    748 was old state    752
 New state    751 was old state    754
 New state    752 was old state    748
 New state    753 was old state    755
 New state    754 was old state    756
 New state    755 was old state    751
 New state    756 was old state    758
 New state    758 was old state    759
 New state    759 was old state    753
 New state    760 was old state    763
 New state    761 was old state    762
 New state    762 was old state    760
 New state    763 was old state    768
 New state    766 was old state    772
 New state    767 was old state    774
 New state    768 was old state    766
 New state    769 was old state    778
 New state    770 was old state    761
 New state    771 was old state    770
 New state    772 was old state    767
 New state    773 was old state    769
 New state    774 was old state    779
 New state    775 was old state    773
 New state    776 was old state    775
 New state    777 was old state    776
 New state    778 was old state    781
 New state    779 was old state    771
 New state    781 was old state    785
 New state    783 was old state    777
 New state    784 was old state    789
 New state    785 was old state    786
 New state    786 was old state    783
 New state    787 was old state    784
 New state    789 was old state    793
 New state    790 was old state    791
 New state    791 was old state    792
 New state    792 was old state    790
 New state    793 was old state    795
 New state    795 was old state    797
 New state    796 was old state    787
 New state    797 was old state    802
 New state    798 was old state    796
 New state    799 was old state    798
 New state    800 was old state    799
 New state    801 was old state    800
 New state    802 was old state    801
 New state    803 was old state    806
 New state    804 was old state    808
 New state    805 was old state    803
 New state    806 was old state    804
 New state    807 was old state    810
 New state    808 was old state    809
 New state    809 was old state    811
 New state    810 was old state    805
 New state    811 was old state    807
 New state    817 was old state    818
 New state    818 was old state    817
 New state    819 was old state    820
 New state    820 was old state    819
 New state    821 was old state    824
 New state    822 was old state    828
 New state    824 was old state    822
 New state    826 was old state    821
 New state    827 was old state    829
 New state    828 was old state    830
 New state    829 was old state    826
 New state    830 was old state    834
 New state    831 was old state    827
 New state    832 was old state    831
 New state    833 was old state    832
 New state    834 was old state    833
 New state    835 was old state    836
 New state    836 was old state    837
 New state    837 was old state    835
 New state    839 was old state    842
 New state    840 was old state    841
 New state    841 was old state    840
 New state    842 was old state    839
 New state    845 was old state    846
 New state    846 was old state    845
 New state    847 was old state    848
 New state    848 was old state    851
 New state    849 was old state    847
 New state    851 was old state    849
 New state    852 was old state    854
 New state    853 was old state    852
 New state    854 was old state    856
 New state    855 was old state    857
 New state    856 was old state    855
 New state    857 was old state    853
 New state    858 was old state    861
 New state    859 was old state    858
 New state    861 was old state    859
 New state    863 was old state    864
 New state    864 was old state    866
 New state    866 was old state    863
 New state    867 was old state    868
 New state    868 was old state    867
 New state    869 was old state    872
 New state    872 was old state    874
 New state    873 was old state    869
 New state    874 was old state    876
 New state    876 was old state    877
 New state    877 was old state    880
 New state    878 was old state    873
 New state    879 was old state    881
 New state    880 was old state    882
 New state    881 was old state    878
 New state    882 was old state    879
 New state    885 was old state    887
 New state    886 was old state    889
 New state    887 was old state    890
 New state    888 was old state    885
 New state    889 was old state    888
 New state    890 was old state    886
 New state    891 was old state    893
 New state    892 was old state    894
 New state    893 was old state    892
 New state    894 was old state    891
 New state    895 was old state    896
 New state    896 was old state    898
 New state    897 was old state    901
 New state    898 was old state    900
 New state    900 was old state    897
 New state    901 was old state    902
 New state    902 was old state    907
 New state    903 was old state    895
 New state    904 was old state    905
 New state    905 was old state    911
 New state    907 was old state    908
 New state    908 was old state    904
 New state    909 was old state    903
 New state    910 was old state    912
 New state    911 was old state    916
 New state    912 was old state    910
 New state    914 was old state    915
 New state    915 was old state    914
 New state    916 was old state    909
 New state    917 was old state    918
 New state    918 was old state    919
 New state    919 was old state    920
 New state    920 was old state    917
 New state    924 was old state    926
 New state    926 was old state    930
 New state    927 was old state    929
 New state    928 was old state    932
 New state    929 was old state    924
 New state    930 was old state    927
 New state    932 was old state    933
 New state    933 was old state    928
 New state    938 was old state    939
 New state    939 was old state    945
 New state    940 was old state    944
 New state    941 was old state    940
 New state    942 was old state    943
 New state    943 was old state    946
 New state    944 was old state    938
 New state    945 was old state    942
 New state    946 was old state    947
 New state    947 was old state    949
 New state    948 was old state    941
 New state    949 was old state    951
 New state    951 was old state    960
 New state    952 was old state    954
 New state    953 was old state    948
 New state    954 was old state    955
 New state    955 was old state    952
 New state    956 was old state    953
 New state    957 was old state    959
 New state    958 was old state    957
 New state    959 was old state    956
 New state    960 was old state    958
 New state    961 was old state    962
 New state    962 was old state    961
 New state    964 was old state    971
 New state    965 was old state    964
 New state    966 was old state    965
 New state    967 was old state    969
 New state    968 was old state    967
 New state    969 was old state    974
 New state    970 was old state    966
 New state    971 was old state    970
 New state    972 was old state    979
 New state    974 was old state    972
 New state    976 was old state    968
 New state    977 was old state    980
 New state    978 was old state    976
 New state    979 was old state    977
 New state    980 was old state    982
 New state    982 was old state    978
 New state    983 was old state    985
 New state    984 was old state    983
 New state    985 was old state    984
 New state    987 was old state    992
 New state    988 was old state    995
 New state    990 was old state    993
 New state    991 was old state    988
 New state    992 was old state    994
 New state    993 was old state    991
 New state    994 was old state    990
 New state    995 was old state    998
 New state    996 was old state    987
 New state    997 was old state    996
 New state    998 was old state    999
 New state    999 was old state    997
 New state   1000 was old state   1003
 New state   1001 was old state   1002
 New state   1002 was old state   1000
 New state   1003 was old state   1001
 New state   1004 was old state   1005
 New state   1005 was old state   1009
 New state   1006 was old state   1012
 New state   1007 was old state   1004
 New state   1009 was old state   1007
 New state   1011 was old state   1006
 New state   1012 was old state   1013
 New state   1013 was old state   1011
 New state   1014 was old state   1017
 New state   1016 was old state   1014
 New state   1017 was old state   1016
 New state   1018 was old state   1024
 New state   1019 was old state   1018
 New state   1021 was old state   1022
 New state   1022 was old state   1019
 New state   1024 was old state   1021
 New state   1026 was old state   1029
 New state   1027 was old state   1026
 New state   1029 was old state   1027
 New state   1030 was old state   1032
 New state   1031 was old state   1033
 New state   1032 was old state   1030
 New state   1033 was old state   1031
 New state   1035 was old state   1041
 New state   1036 was old state   1039
 New state   1037 was old state   1042
 New state   1038 was old state   1036
 New state   1039 was old state   1035
 New state   1040 was old state   1038
 New state   1041 was old state   1040
 New state   1042 was old state   1044
 New state   1043 was old state   1037
 New state   1044 was old state   1045
 New state   1045 was old state   1043
 New state   1046 was old state   1047
 New state   1047 was old state   1046
 New state   1048 was old state   1050
 New state   1049 was old state   1048
 New state   1050 was old state   1051
 New state   1051 was old state   1052
 New state   1052 was old state   1054
 New state   1053 was old state   1055
 New state   1054 was old state   1049
 New state   1055 was old state   1059
 New state   1057 was old state   1058
 New state   1058 was old state   1063
 New state   1059 was old state   1057
 New state   1060 was old state   1053
 New state   1061 was old state   1064
 New state   1063 was old state   1065
 New state   1064 was old state   1060
 New state   1065 was old state   1066
 New state   1066 was old state   1061
 New state   1068 was old state   1069
 New state   1069 was old state   1072
 New state   1070 was old state   1068
 New state   1071 was old state   1073
 New state   1072 was old state   1075
 New state   1073 was old state   1071
 New state   1074 was old state   1076
 New state   1075 was old state   1070
 New state   1076 was old state   1085
 New state   1077 was old state   1083
 New state   1078 was old state   1074
 New state   1079 was old state   1077
 New state   1080 was old state   1084
 New state   1081 was old state   1082
 New state   1082 was old state   1079
 New state   1083 was old state   1078
 New state   1084 was old state   1080
 New state   1085 was old state   1081
 New state   1086 was old state   1093
 New state   1088 was old state   1092
 New state   1092 was old state   1088
 New state   1093 was old state   1086
 New state   1095 was old state   1096
 New state   1096 was old state   1095
 New state   1098 was old state   1103
 New state   1099 was old state   1104
 New state   1100 was old state   1098
 New state   1101 was old state   1109
 New state   1102 was old state   1099
 New state   1103 was old state   1100
 New state   1104 was old state   1101
 New state   1105 was old state   1102
 New state   1106 was old state   1105
 New state   1109 was old state   1106
 New state   1110 was old state   1111
 New state   1111 was old state   1110
 New state   1112 was old state   1113
 New state   1113 was old state   1112
 New state   1115 was old state   1116
 New state   1116 was old state   1115
 New state   1117 was old state   1119
 New state   1118 was old state   1117
 New state   1119 was old state   1120
 New state   1120 was old state   1118
 New state   1121 was old state   1122
 New state   1122 was old state   1126
 New state   1123 was old state   1128
 New state   1124 was old state   1123
 New state   1125 was old state   1121
 New state   1126 was old state   1127
 New state   1127 was old state   1131
 New state   1128 was old state   1124
 New state   1129 was old state   1130
 New state   1130 was old state   1129
 New state   1131 was old state   1132
 New state   1132 was old state   1133
 New state   1133 was old state   1125
 New state   1136 was old state   1139
 New state   1137 was old state   1141
 New state   1138 was old state   1136
 New state   1139 was old state   1144
 New state   1140 was old state   1137
 New state   1141 was old state   1143
 New state   1143 was old state   1138
 New state   1144 was old state   1140
 New state   1145 was old state   1146
 New state   1146 was old state   1148
 New state   1147 was old state   1149
 New state   1148 was old state   1145
 New state   1149 was old state   1147
 New state   1151 was old state   1152
 New state   1152 was old state   1151
 New state   1153 was old state   1154
 New state   1154 was old state   1155
 New state   1155 was old state   1153
 New state   1156 was old state   1161
 New state   1157 was old state   1159
 New state   1158 was old state   1156
 New state   1159 was old state   1157
 New state   1161 was old state   1158
 New state   1164 was old state   1166
 New state   1165 was old state   1164
 New state   1166 was old state   1165
 New state   1170 was old state   1171
 New state   1171 was old state   1173
 New state   1172 was old state   1170
 New state   1173 was old state   1176
 New state   1174 was old state   1172
 New state   1175 was old state   1174
 New state   1176 was old state   1175
 New state   1177 was old state   1178
 New state   1178 was old state   1177
 New state   1179 was old state   1180
 New state   1180 was old state   1179
 New state   1181 was old state   1183
 New state   1182 was old state   1186
 New state   1183 was old state   1184
 New state   1184 was old state   1181
 New state   1185 was old state   1188
 New state   1186 was old state   1182
 New state   1187 was old state   1189
 New state   1188 was old state   1187
 New state   1189 was old state   1185
 New state   1192 was old state   1193
 New state   1193 was old state   1195
 New state   1194 was old state   1192
 New state   1195 was old state   1198
 New state   1196 was old state   1194
 New state   1198 was old state   1199
 New state   1199 was old state   1203
 New state   1201 was old state   1196
 New state   1203 was old state   1204
 New state   1204 was old state   1201
 New state   1205 was old state   1207
 New state   1207 was old state   1205
 New state   1213 was old state   1215
 New state   1214 was old state   1213
 New state   1215 was old state   1214
 New state   1217 was old state   1218
 New state   1218 was old state   1217
 New state   1226 was old state   1227
 New state   1227 was old state   1226
 New state   1231 was old state   1233
 New state   1232 was old state   1231
 New state   1233 was old state   1232
 New state   1234 was old state   1235
 New state   1235 was old state   1234
 New state   1238 was old state   1239
 New state   1239 was old state   1238
 New state   1245 was old state   1248
 New state   1248 was old state   1245
 New state   1249 was old state   1250
 New state   1250 was old state   1251
 New state   1251 was old state   1249
 New state   1252 was old state   1253
 New state   1253 was old state   1252
 New state   1254 was old state   1257
 New state   1255 was old state   1254
 New state   1257 was old state   1255
 New state   1260 was old state   1261
 New state   1261 was old state   1263
 New state   1263 was old state   1265
 New state   1265 was old state   1260
 New state   1266 was old state   1267
 New state   1267 was old state   1266
 New state   1269 was old state   1270
 New state   1270 was old state   1269
 New state   1272 was old state   1273
 New state   1273 was old state   1272
 New state   1274 was old state   1276
 New state   1275 was old state   1274
 New state   1276 was old state   1275
 New state   1278 was old state   1280
 New state   1279 was old state   1284
 New state   1280 was old state   1281
 New state   1281 was old state   1278
 New state   1282 was old state   1279
 New state   1283 was old state   1282
 New state   1284 was old state   1285
 New state   1285 was old state   1283
 New state   1288 was old state   1294
 New state   1289 was old state   1288
 New state   1290 was old state   1291
 New state   1291 was old state   1290
 New state   1292 was old state   1289
 New state   1293 was old state   1295
 New state   1294 was old state   1292
 New state   1295 was old state   1293
 New state   1299 was old state   1301
 New state   1301 was old state   1299
 New state   1302 was old state   1303
 New state   1303 was old state   1302
 New state   1305 was old state   1306
 New state   1306 was old state   1307
 New state   1307 was old state   1305
 New state   1310 was old state   1311
 New state   1311 was old state   1312
 New state   1312 was old state   1313
 New state   1313 was old state   1316
 New state   1314 was old state   1310
 New state   1315 was old state   1314
 New state   1316 was old state   1315
 New state   1317 was old state   1319
 New state   1318 was old state   1317
 New state   1319 was old state   1318
 New state   1324 was old state   1325
 New state   1325 was old state   1326
 New state   1326 was old state   1327
 New state   1327 was old state   1324
 New state   1332 was old state   1333
 New state   1333 was old state   1332
 New state   1335 was old state   1336
 New state   1336 was old state   1335
 New state   1339 was old state   1340
 New state   1340 was old state   1339
 New state   1342 was old state   1343
 New state   1343 was old state   1342
 New state   1344 was old state   1345
 New state   1345 was old state   1344
 New state   1353 was old state   1354
 New state   1354 was old state   1353
 New state   1355 was old state   1356
 New state   1356 was old state   1358
 New state   1358 was old state   1355
 New state   1372 was old state   1373
 New state   1373 was old state   1372
 Excitation Energies [eV] at current iteration:
 Root      1 :     7.052572412652095
 Root      2 :     7.497260772857015
 Root      3 :     7.740927473820148
 Root      4 :     7.925869327415821
 Root      5 :     8.291715069421082
 Root      6 :     9.043485006557033
 Root      7 :     9.185228311771253
 Root      8 :     9.226122002162713
 Root      9 :     9.347189290118987
 Root     10 :     9.494007659528441
 Root     11 :     9.878669070533608
 Root     12 :    10.040202041342740
 Root     13 :    10.097403159106540
 Root     14 :    10.169472973115640
 Root     15 :    10.345229232737650
 Root     16 :    10.425551619586530
 Root     17 :    10.497830286397460
 Root     18 :    10.589423789415520
 Root     19 :    10.760319546340900
 Root     20 :    10.962801207772790
 Root     21 :    11.153913237591470
 Root     22 :    11.182712168217670
 Root     23 :    11.212140316202070
 Root     24 :    11.413155911681060
 Root     25 :    11.469706254170770
 Root     26 :    11.552267439873450
 Root     27 :    11.641963081941870
 Root     28 :    11.704911359277000
 Root     29 :    11.827026698425230
 Root     30 :    11.830454638487880
 Root     31 :    12.000545152931590
 Root     32 :    12.063612999032330
 Root     33 :    12.097552354964120
 Root     34 :    12.193644740730410
 Root     35 :    12.246297622170600
 Root     36 :    12.357487322018040
 Root     37 :    12.364442511975870
 Root     38 :    12.494710185426990
 Root     39 :    12.562649595651680
 Root     40 :    12.609647519055990
 Root     41 :    12.665798364867210
 Root     42 :    12.779115908224680
 Root     43 :    12.840257648236480
 Root     44 :    12.886903863546220
 Root     45 :    12.913957072649930
 Root     46 :    12.948959738723930
 Root     47 :    13.029011228325630
 Root     48 :    13.046233045209280
 Root     49 :    13.163253637052850
 Root     50 :    13.249136988494420
 Root     51 :    13.308071576661110
 Root     52 :    13.400511599663930
 Root     53 :    13.516402348234770
 Root     54 :    13.554420384254110
 Root     55 :    13.608484964013640
 Root     56 :    13.613706425863410
 Root     57 :    13.685452214226010
 Root     58 :    13.719107178674510
 Root     59 :    13.786425728930800
 Root     60 :    13.838245912696860
 Root     61 :    13.845860687575480
 Root     62 :    13.963639527474130
 Root     63 :    14.030098465334480
 Root     64 :    14.047944338848730
 Root     65 :    14.102771181141780
 Root     66 :    14.156431435831940
 Root     67 :    14.213016184313310
 Root     68 :    14.229404003657110
 Root     69 :    14.269566198415350
 Root     70 :    14.346445234169370
 Root     71 :    14.442440829335340
 Root     72 :    14.467814921248190
 Root     73 :    14.572836072933030
 Root     74 :    14.630432008819230
 Root     75 :    14.654940462425610
 Root     76 :    14.743454265413120
 Root     77 :    14.881442638826640
 Root     78 :    14.925844833964980
 Root     79 :    14.965513036886510
 Root     80 :    15.051118332036340
 Root     81 :    15.095882756679760
 Root     82 :    15.113818865278770
 Root     83 :    15.154859462152690
 Root     84 :    15.175187826804350
 Root     85 :    15.184255864210800
 Root     86 :    15.207102913956100
 Root     87 :    15.278275401989830
 Root     88 :    15.342108498303900
 Root     89 :    15.376348465557000
 Root     90 :    15.492417074260880
 Root     91 :    15.545511337001840
 Root     92 :    15.591324533773720
 Root     93 :    15.616987056001130
 Root     94 :    15.625514131242370
 Root     95 :    15.663591840129140
 Root     96 :    15.711090888809660
 Root     97 :    15.722040954012830
 Root     98 :    15.753253911631710
 Root     99 :    15.806503186009580
 Root    100 :    15.851503357806250
 Root    101 :    15.898114054279170
 Root    102 :    15.945427847179370
 Root    103 :    15.995323698296080
 Root    104 :    16.048940676778020
 Root    105 :    16.071704158927150
 Root    106 :    16.145109182966970
 Root    107 :    16.249360169319690
 Root    108 :    16.270976646238960
 Root    109 :    16.317619738383900
 Root    110 :    16.400434671611370
 Root    111 :    16.411982480443430
 Root    112 :    16.432799980653260
 Root    113 :    16.510415508427400
 Root    114 :    16.546744913930230
 Root    115 :    16.569325036154880
 Root    116 :    16.646967133053980
 Root    117 :    16.657169354410430
 Root    118 :    16.697705642660320
 Root    119 :    16.698333294485810
 Root    120 :    16.723304664004650
 Root    121 :    16.800865824998560
 Root    122 :    16.829341853252840
 Root    123 :    16.856311103765330
 Root    124 :    16.871065119672930
 Root    125 :    16.916756452174510
 Root    126 :    16.989180607754210
 Root    127 :    17.079044259196030
 Root    128 :    17.132990051430240
 Root    129 :    17.197509295645580
 Root    130 :    17.254042850579620
 Root    131 :    17.261514826704560
 Root    132 :    17.292915946358400
 Root    133 :    17.317404060074420
 Root    134 :    17.345636885890760
 Root    135 :    17.432720506445700
 Root    136 :    17.502032272351420
 Root    137 :    17.514309195641260
 Root    138 :    17.576710395118720
 Root    139 :    17.595087426458300
 Root    140 :    17.638499801984350
 Root    141 :    17.709637140208130
 Root    142 :    17.718652047975790
 Root    143 :    17.739945619706560
 Root    144 :    17.753247131074810
 Root    145 :    17.758273658131810
 Root    146 :    17.843969763203330
 Root    147 :    17.908525708890540
 Root    148 :    17.911972465452620
 Root    149 :    17.941653235055340
 Root    150 :    17.970282633717410
 Root    151 :    18.002015808296480
 Root    152 :    18.022090936604060
 Root    153 :    18.041848825565580
 Root    154 :    18.062018363707200
 Root    155 :    18.190432602156060
 Root    156 :    18.217100498854800
 Root    157 :    18.224414021856700
 Root    158 :    18.268483689433930
 Root    159 :    18.292256619009750
 Root    160 :    18.325572146989660
 Root    161 :    18.339915485473030
 Root    162 :    18.358486121749100
 Root    163 :    18.432600159541720
 Root    164 :    18.455155968182080
 Root    165 :    18.483702302785510
 Root    166 :    18.498410071003660
 Root    167 :    18.560624310947310
 Root    168 :    18.597083110595610
 Root    169 :    18.611045877516980
 Root    170 :    18.776184160277410
 Root    171 :    18.780567343821320
 Root    172 :    18.851200757631090
 Root    173 :    18.877079028960200
 Root    174 :    18.882488153020580
 Root    175 :    18.919666131605890
 Root    176 :    18.923779145312220
 Root    177 :    18.956482634878440
 Root    178 :    19.008738734218260
 Root    179 :    19.023332611505190
 Root    180 :    19.042370066180080
 Root    181 :    19.094506811209450
 Root    182 :    19.152949046516420
 Root    183 :    19.169494515117650
 Root    184 :    19.218231321344690
 Root    185 :    19.246507158393140
[...]
      6   0.972929D-01 -0.943631D-01  0.195503D-01  0.000000D+00  0.411906D-01
      7   0.000000D+00  0.000000D+00  0.000000D+00 -0.187694D-01  0.000000D+00
      8   0.000000D+00  0.000000D+00  0.000000D+00  0.338676D-01  0.000000D+00
      9   0.000000D+00  0.000000D+00  0.000000D+00  0.479413D-01  0.000000D+00
     10   0.312285D-01 -0.178758D+00  0.106739D+00  0.000000D+00 -0.114223D+00
     11   0.790400D-01  0.530898D+00  0.202602D+00  0.000000D+00 -0.519901D+00
     12   0.745625D-01 -0.610269D-01  0.178217D-01  0.000000D+00  0.146251D+00
     13   0.324935D-01 -0.745511D-02 -0.247357D-01  0.000000D+00  0.265831D-01
     14   0.516580D-01  0.584344D-02  0.775030D-01  0.000000D+00 -0.180838D+00
     15   0.000000D+00  0.000000D+00  0.000000D+00 -0.709393D-01  0.000000D+00
     16   0.000000D+00  0.000000D+00  0.000000D+00 -0.966363D-02  0.000000D+00
              1311          1312          1313          1314          1315 
      1  -0.112787D+03 -0.112785D+03 -0.112774D+03 -0.112774D+03 -0.112769D+03
      2   0.253350D-01  0.000000D+00  0.293007D-01  0.000000D+00  0.233504D-02
      3   0.587097D-02  0.000000D+00  0.315311D-02  0.000000D+00  0.131319D-01
      4   0.000000D+00  0.192943D-01  0.000000D+00  0.467051D-02  0.000000D+00
      5  -0.127051D+00  0.000000D+00 -0.162515D+00  0.000000D+00 -0.830927D-02
      6  -0.421540D-01  0.000000D+00 -0.369455D-01  0.000000D+00 -0.479932D-01
      7   0.000000D+00 -0.823944D-01  0.000000D+00 -0.224174D-01  0.000000D+00
      8   0.000000D+00 -0.171283D-01  0.000000D+00 -0.274665D-01  0.000000D+00
      9   0.000000D+00 -0.107606D+00  0.000000D+00  0.309995D-01  0.000000D+00
     10   0.195231D+00  0.000000D+00  0.151542D+00  0.000000D+00  0.155695D+00
     11  -0.246450D+00  0.000000D+00 -0.594936D+00  0.000000D+00 -0.193499D+00
     12   0.964218D-01  0.000000D+00 -0.478013D-01  0.000000D+00 -0.816183D-01
     13   0.960786D-02  0.000000D+00  0.380547D-01  0.000000D+00  0.624341D-01
     14  -0.425209D-01  0.000000D+00 -0.166582D+00  0.000000D+00  0.135363D+00
     15   0.000000D+00 -0.132562D-01  0.000000D+00  0.214923D-01  0.000000D+00
     16   0.000000D+00 -0.245528D-01  0.000000D+00 -0.884277D-02  0.000000D+00
              1316          1317          1318          1319          1320 
      1  -0.112763D+03 -0.112756D+03 -0.112746D+03 -0.112728D+03 -0.112718D+03
      2   0.920883D-02  0.000000D+00 -0.189207D-01  0.162304D-01  0.000000D+00
      3   0.469414D-02  0.000000D+00  0.862819D-02 -0.340237D-02  0.000000D+00
      4   0.000000D+00  0.110123D-01  0.000000D+00  0.000000D+00 -0.729720D-02
      5  -0.254126D-01  0.000000D+00  0.966775D-01 -0.659194D-01  0.000000D+00
      6  -0.110441D-01  0.000000D+00 -0.404021D-01  0.749333D-02  0.000000D+00
      7   0.000000D+00 -0.310469D-01  0.000000D+00  0.000000D+00  0.320901D-01
      8   0.000000D+00  0.149093D-01  0.000000D+00  0.000000D+00 -0.100976D+00
      9   0.000000D+00 -0.836112D-01  0.000000D+00  0.000000D+00  0.162480D+00
     10   0.875158D-01  0.000000D+00 -0.258072D+00  0.189556D-01  0.000000D+00
     11   0.574668D-01  0.000000D+00  0.219474D+00  0.344677D-01  0.000000D+00
     12   0.513259D-01  0.000000D+00 -0.121736D+00 -0.580277D-01  0.000000D+00
     13   0.158910D-01  0.000000D+00 -0.858607D-02  0.253304D-01  0.000000D+00
     14  -0.666114D-03  0.000000D+00 -0.132648D+00 -0.473745D-01  0.000000D+00
     15   0.000000D+00  0.146953D+00  0.000000D+00  0.000000D+00 -0.916725D-01
     16   0.000000D+00 -0.189717D-01  0.000000D+00  0.000000D+00 -0.966607D-01
              1321          1322          1323          1324          1325 
      1  -0.112717D+03 -0.112691D+03 -0.112691D+03 -0.112672D+03 -0.112667D+03
      2  -0.103297D-01  0.000000D+00  0.218087D-01  0.121163D-01 -0.213100D-01
      3  -0.166693D-01  0.000000D+00 -0.669585D-02 -0.265447D-02  0.146643D-01
      4   0.000000D+00  0.728794D-02  0.000000D+00  0.000000D+00  0.000000D+00
      5   0.514103D-01  0.000000D+00 -0.128858D+00 -0.645590D-01  0.985975D-01
      6   0.100195D+00  0.000000D+00  0.292245D-01 -0.539949D-02 -0.730722D-01
      7   0.000000D+00 -0.217921D-01  0.000000D+00  0.000000D+00  0.000000D+00
      8   0.000000D+00 -0.309675D-02  0.000000D+00  0.000000D+00  0.000000D+00
      9   0.000000D+00  0.198737D-01  0.000000D+00  0.000000D+00  0.000000D+00
     10   0.154562D+00  0.000000D+00  0.991058D-01  0.782867D-01  0.226595D+00
     11  -0.186176D+00  0.000000D+00  0.216274D+00 -0.202800D+00  0.175501D+00
     12  -0.109832D+00  0.000000D+00  0.655802D-01 -0.736009D-01 -0.153773D-01
     13   0.223931D-01  0.000000D+00  0.476800D-01  0.391992D-02  0.628830D-01
     14   0.134263D+00  0.000000D+00  0.413667D-01  0.453070D-01  0.717174D-01
     15   0.000000D+00 -0.409626D-01  0.000000D+00  0.000000D+00  0.000000D+00
     16   0.000000D+00  0.915236D-02  0.000000D+00  0.000000D+00  0.000000D+00
              1326          1327          1328          1329          1330 
      1  -0.112658D+03 -0.112649D+03 -0.112626D+03 -0.112610D+03 -0.112609D+03
      2   0.895516D-02  0.203410D-01  0.164160D-01  0.000000D+00 -0.198724D-01
      3  -0.110208D-01  0.152762D-01  0.616927D-02  0.000000D+00  0.635971D-02
      4   0.000000D+00  0.000000D+00  0.000000D+00 -0.400592D-02  0.000000D+00
      5  -0.491844D-01 -0.106541D+00 -0.896315D-01  0.000000D+00  0.114516D+00
      6   0.782287D-01 -0.799609D-01 -0.233159D-01  0.000000D+00 -0.333937D-01
      7   0.000000D+00  0.000000D+00  0.000000D+00  0.123815D-01  0.000000D+00
      8   0.000000D+00  0.000000D+00  0.000000D+00 -0.493099D-01  0.000000D+00
      9   0.000000D+00  0.000000D+00  0.000000D+00  0.830443D-01  0.000000D+00
     10   0.384166D-01  0.133384D+00  0.649150D-01  0.000000D+00 -0.984052D-01
     11  -0.646064D+00  0.566864D-02 -0.353522D+00  0.000000D+00  0.206977D+00
     12   0.941294D-01 -0.240235D-02 -0.630684D-01  0.000000D+00  0.162783D+00
     13  -0.287009D-01  0.424445D-01  0.305623D-01  0.000000D+00 -0.586223D-02
     14   0.102810D+00  0.198506D+00  0.367404D-01  0.000000D+00 -0.159961D-01
     15   0.000000D+00  0.000000D+00  0.000000D+00 -0.144403D-01  0.000000D+00
     16   0.000000D+00  0.000000D+00  0.000000D+00 -0.253919D-01  0.000000D+00
              1331          1332          1333          1334          1335 
      1  -0.112606D+03 -0.112571D+03 -0.112566D+03 -0.112557D+03 -0.112534D+03
      2   0.000000D+00  0.000000D+00 -0.164904D-01 -0.232360D-01  0.198454D-01
      3   0.000000D+00  0.000000D+00 -0.816981D-02 -0.594754D-02 -0.379576D-02
      4   0.673044D-02  0.430046D-02  0.000000D+00  0.000000D+00  0.000000D+00
      5   0.000000D+00  0.000000D+00  0.696238D-01  0.134725D+00 -0.892442D-01
      6   0.000000D+00  0.000000D+00  0.314343D-01  0.371159D-01  0.175415D-01
      7  -0.168171D-01 -0.198778D-01  0.000000D+00  0.000000D+00  0.000000D+00
      8   0.323081D-01 -0.308840D-01  0.000000D+00  0.000000D+00  0.000000D+00
      9  -0.466050D-01 -0.193610D+00  0.000000D+00  0.000000D+00  0.000000D+00
     10   0.000000D+00  0.000000D+00  0.127073D+00 -0.818066D-02  0.634212D-01
     11   0.000000D+00  0.000000D+00  0.608589D-02  0.263378D+00  0.392819D+00
     12   0.000000D+00  0.000000D+00  0.422488D-01 -0.733438D-01  0.207911D+00
     13   0.000000D+00  0.000000D+00  0.140297D-01 -0.422942D-01 -0.658702D-01
     14   0.000000D+00  0.000000D+00  0.155223D+00  0.119721D+00 -0.702918D-01
     15   0.581523D-01  0.290721D+00  0.000000D+00  0.000000D+00  0.000000D+00
     16   0.383043D-01 -0.579665D-01  0.000000D+00  0.000000D+00  0.000000D+00
              1336          1337          1338          1339          1340 
      1  -0.112519D+03 -0.112477D+03 -0.112468D+03 -0.112442D+03 -0.112435D+03
      2   0.115784D-01  0.666277D-02 -0.105558D-01 -0.134728D-02  0.626681D-02
      3  -0.341950D-02  0.307215D-02  0.115898D-01  0.115531D-01  0.583195D-02
      4   0.000000D+00  0.000000D+00  0.000000D+00  0.000000D+00  0.000000D+00
      5  -0.276222D-01 -0.325030D-01  0.607847D-01 -0.350929D-01 -0.389849D-01
      6  -0.334222D-03 -0.473942D-01 -0.572148D-01 -0.720036D-01 -0.245576D-01
      7   0.000000D+00  0.000000D+00  0.000000D+00  0.000000D+00  0.000000D+00
      8   0.000000D+00  0.000000D+00  0.000000D+00  0.000000D+00  0.000000D+00
      9   0.000000D+00  0.000000D+00  0.000000D+00  0.000000D+00  0.000000D+00
     10   0.113220D+00 -0.246865D-01 -0.263927D+00 -0.371011D-01  0.989563D-01
     11  -0.439512D+00  0.971455D-01 -0.788934D-01  0.255189D+00 -0.113236D+00
     12  -0.425788D-01 -0.663652D-01 -0.148317D+00 -0.103269D-01  0.116516D+00
     13   0.140641D-01 -0.522348D-02  0.296152D-01 -0.116524D-01 -0.306504D-01
     14   0.118528D+00  0.130192D-01 -0.253514D+00 -0.603174D-02  0.773350D-01
     15   0.000000D+00  0.000000D+00  0.000000D+00  0.000000D+00  0.000000D+00
     16   0.000000D+00  0.000000D+00  0.000000D+00  0.000000D+00  0.000000D+00
              1341          1342          1343          1344          1345 
      1  -0.112423D+03 -0.112390D+03 -0.112372D+03 -0.112355D+03 -0.112344D+03
      2  -0.165309D-01 -0.735285D-02  0.000000D+00  0.643226D-03  0.658815D-02
      3   0.397743D-02 -0.778310D-02  0.000000D+00  0.107506D-01 -0.822310D-02
      4   0.000000D+00  0.000000D+00 -0.832624D-02  0.000000D+00  0.000000D+00
      5   0.606711D-01  0.498769D-01  0.000000D+00 -0.760535D-02 -0.378860D-01
      6  -0.278069D-01  0.353022D-01  0.000000D+00 -0.744226D-01  0.535280D-01
      7   0.000000D+00  0.000000D+00  0.511537D-01  0.000000D+00  0.000000D+00
      8   0.000000D+00  0.000000D+00 -0.917510D-01  0.000000D+00  0.000000D+00
      9   0.000000D+00  0.000000D+00  0.138377D+00  0.000000D+00  0.000000D+00
     10   0.232166D-01  0.999045D-01  0.000000D+00 -0.517983D-01 -0.118610D+00
     11   0.120767D-01 -0.385298D+00  0.000000D+00  0.195742D+00 -0.227555D+00
     12   0.265889D-01  0.458414D-01  0.000000D+00 -0.162823D-01  0.167626D-01
     13  -0.194176D-01  0.297877D-01  0.000000D+00  0.295352D-01 -0.956418D-02
     14  -0.352983D-01 -0.109631D+00  0.000000D+00  0.388336D-01 -0.208139D+00
     15   0.000000D+00  0.000000D+00 -0.118021D+00  0.000000D+00  0.000000D+00
     16   0.000000D+00  0.000000D+00 -0.100764D+00  0.000000D+00  0.000000D+00
              1346          1347          1348          1349          1350 
      1  -0.112323D+03 -0.112256D+03 -0.112245D+03 -0.112111D+03 -0.112022D+03
      2   0.627860D-02  0.165615D-01  0.356285D-02 -0.228051D-01  0.120473D-01
      3   0.111651D-01  0.388072D-02 -0.685117D-03 -0.872222D-02 -0.259845D-02
      4   0.000000D+00  0.000000D+00  0.000000D+00  0.000000D+00  0.000000D+00
      5  -0.403519D-01 -0.959737D-01 -0.302685D-01  0.133765D+00 -0.988697D-01
      6  -0.534697D-01 -0.233222D-01 -0.139515D-01  0.406975D-01  0.810233D-02
      7   0.000000D+00  0.000000D+00  0.000000D+00  0.000000D+00  0.000000D+00
      8   0.000000D+00  0.000000D+00  0.000000D+00  0.000000D+00  0.000000D+00
      9   0.000000D+00  0.000000D+00  0.000000D+00  0.000000D+00  0.000000D+00
     10   0.160369D-01  0.141730D+00  0.493906D-02 -0.103213D+00  0.911920D-01
     11   0.576828D-01  0.263226D+00 -0.413604D-01  0.137147D+00 -0.268872D+00
     12  -0.145288D-01  0.921949D-01 -0.868321D-02 -0.320360D-02 -0.316936D-01
     13  -0.144719D-01  0.161489D-01  0.282305D-01  0.317482D-02  0.758360D-04
     14   0.125993D-02  0.695624D-01  0.275825D-01 -0.736213D-02 -0.104909D+00
     15   0.000000D+00  0.000000D+00  0.000000D+00  0.000000D+00  0.000000D+00
     16   0.000000D+00  0.000000D+00  0.000000D+00  0.000000D+00  0.000000D+00
              1351          1352          1353          1354          1355 
      1  -0.953689D+02 -0.952555D+02 -0.952291D+02 -0.952087D+02 -0.951824D+02
      2   0.000000D+00 -0.459384D-03 -0.314973D-02  0.000000D+00 -0.209463D-02
      3   0.000000D+00 -0.515277D-02 -0.570599D-03  0.000000D+00  0.539926D-03
      4  -0.162543D-01  0.000000D+00  0.000000D+00  0.982496D-02  0.000000D+00
      5   0.000000D+00  0.172124D-01  0.585378D-01  0.000000D+00  0.284947D-01
      6   0.000000D+00  0.496860D-01  0.260394D-02  0.000000D+00 -0.372323D-02
      7   0.173255D+00  0.000000D+00  0.000000D+00 -0.112510D+00  0.000000D+00
      8   0.101152D+00  0.000000D+00  0.000000D+00  0.813352D-01  0.000000D+00
      9  -0.266453D+00  0.000000D+00  0.000000D+00 -0.153368D+00  0.000000D+00
     10   0.000000D+00  0.208085D+00  0.481507D-01  0.000000D+00  0.354976D+00
     11   0.000000D+00  0.616353D-01  0.373806D+00  0.000000D+00 -0.139988D+00
     12   0.000000D+00 -0.102768D+00  0.548639D-01  0.000000D+00  0.289966D+00
     13   0.000000D+00  0.912312D-02 -0.389554D-01  0.000000D+00 -0.200887D-01
     14   0.000000D+00  0.204798D+00 -0.603936D-01  0.000000D+00  0.372556D+00
     15   0.263689D+00  0.000000D+00  0.000000D+00  0.173016D+00  0.000000D+00
     16   0.953820D-01  0.000000D+00  0.000000D+00  0.721360D-01  0.000000D+00
              1356          1357          1358          1359          1360 
      1  -0.951638D+02 -0.951475D+02 -0.951372D+02 -0.951008D+02 -0.950958D+02
      2  -0.658836D-02 -0.415691D-02  0.000000D+00 -0.611270D-02  0.000000D+00
      3   0.800167D-02 -0.140428D-01  0.000000D+00 -0.340757D-02  0.000000D+00
      4   0.000000D+00  0.000000D+00 -0.859486D-02  0.000000D+00 -0.471596D-02
      5   0.870805D-01  0.561450D-01  0.000000D+00  0.722806D-01  0.000000D+00
      6  -0.929551D-01  0.169173D+00  0.000000D+00  0.516646D-01  0.000000D+00
      7   0.000000D+00  0.000000D+00  0.981728D-01  0.000000D+00  0.514857D-01
      8   0.000000D+00  0.000000D+00 -0.631422D-01  0.000000D+00 -0.882787D-01
      9   0.000000D+00  0.000000D+00  0.189645D+00  0.000000D+00  0.183467D+00
     10   0.923558D-01 -0.582519D-01  0.000000D+00  0.935245D-01  0.000000D+00
     11  -0.697020D+00 -0.229543D+00  0.000000D+00  0.685016D-01  0.000000D+00
     12   0.103962D-01 -0.643477D-01  0.000000D+00  0.130282D+00  0.000000D+00
     13  -0.406255D-02  0.126739D-02  0.000000D+00 -0.179668D-02  0.000000D+00
     14  -0.173270D+00 -0.918601D-01  0.000000D+00  0.653084D-01  0.000000D+00
     15   0.000000D+00  0.000000D+00 -0.205840D+00  0.000000D+00 -0.204293D+00
     16   0.000000D+00  0.000000D+00 -0.734478D-01  0.000000D+00 -0.872944D-01
              1361          1362          1363          1364          1365 
      1  -0.950452D+02 -0.950170D+02 -0.949755D+02 -0.948938D+02 -0.948717D+02
      2  -0.348677D-02  0.577686D-02  0.530301D-02 -0.438094D-02  0.235029D-02
      3   0.600219D-02 -0.241722D-02  0.168053D-02 -0.150406D-02  0.933526D-03
      4   0.000000D+00  0.000000D+00  0.000000D+00  0.000000D+00  0.000000D+00
      5   0.460873D-01 -0.879375D-01 -0.546528D-01  0.569280D-01 -0.219819D-01
      6  -0.791994D-01  0.307970D-01 -0.144972D-01  0.239183D-01 -0.731745D-02
      7   0.000000D+00  0.000000D+00  0.000000D+00  0.000000D+00  0.000000D+00
      8   0.000000D+00  0.000000D+00  0.000000D+00  0.000000D+00  0.000000D+00
      9   0.000000D+00  0.000000D+00  0.000000D+00  0.000000D+00  0.000000D+00
     10   0.132799D-01  0.116651D+00 -0.668354D-01 -0.768361D-01 -0.332444D-02
     11   0.202586D+00 -0.220392D+00  0.120462D+00 -0.783968D-02 -0.190195D+00
     12   0.843163D-01  0.796019D-01  0.137848D-02 -0.459352D-01 -0.206530D+00
     13   0.206969D-01 -0.517266D-02  0.267643D-01 -0.202329D-01 -0.172242D+00
     14   0.738160D-01  0.196142D-01 -0.178008D-01 -0.527375D-01 -0.432197D-01
     15   0.000000D+00  0.000000D+00  0.000000D+00  0.000000D+00  0.000000D+00
     16   0.000000D+00  0.000000D+00  0.000000D+00  0.000000D+00  0.000000D+00
              1366          1367          1368          1369          1370 
      1  -0.948392D+02 -0.947932D+02 -0.947636D+02 -0.947216D+02 -0.946982D+02
      2   0.000000D+00  0.145993D-02  0.241385D-02 -0.320289D-03  0.136913D-01
      3   0.000000D+00  0.751827D-03  0.643155D-03  0.103186D-01 -0.148408D-02
      4  -0.277194D-02  0.000000D+00  0.000000D+00  0.000000D+00  0.000000D+00
      5   0.000000D+00 -0.187796D-01 -0.334507D-01 -0.124588D-04 -0.178187D+00
      6   0.000000D+00 -0.216578D-02 -0.124602D-01 -0.118443D+00  0.188657D-01
      7   0.258770D-01  0.000000D+00  0.000000D+00  0.000000D+00  0.000000D+00
      8   0.609104D-01  0.000000D+00  0.000000D+00  0.000000D+00  0.000000D+00
      9   0.161688D+00  0.000000D+00  0.000000D+00  0.000000D+00  0.000000D+00
     10   0.000000D+00  0.127489D-02  0.200907D-01 -0.746406D-01  0.122028D+00
     11   0.000000D+00  0.273104D+00 -0.356610D-01  0.454352D-01 -0.308649D+00
     12   0.000000D+00  0.254777D+00  0.102825D-01 -0.174602D+00  0.340810D-01
     13   0.000000D+00  0.258552D+00  0.159408D-01 -0.299574D-02  0.105812D-01
     14   0.000000D+00 -0.672364D-02 -0.223566D-01 -0.697683D-01 -0.101066D+00
     15  -0.162210D+00  0.000000D+00  0.000000D+00  0.000000D+00  0.000000D+00
     16   0.648114D-01  0.000000D+00  0.000000D+00  0.000000D+00  0.000000D+00
              1371          1372          1373          1374          1375 
      1  -0.946603D+02 -0.946326D+02 -0.946017D+02 -0.945822D+02 -0.944902D+02
      2  -0.270608D-03 -0.333877D-02  0.000000D+00  0.305339D-02 -0.599785D-03
      3  -0.381121D-03  0.116580D-02  0.000000D+00 -0.838666D-03 -0.141562D-02
      4   0.000000D+00  0.000000D+00 -0.538195D-03  0.000000D+00  0.000000D+00
      5   0.106110D-01  0.451841D-01  0.000000D+00 -0.370620D-01  0.860446D-02
      6   0.727429D-02 -0.109633D-01  0.000000D+00  0.176789D-01  0.133960D-01
      7   0.000000D+00  0.000000D+00  0.114333D-01  0.000000D+00  0.000000D+00
      8   0.000000D+00  0.000000D+00  0.296415D-01  0.000000D+00  0.000000D+00
      9   0.000000D+00  0.000000D+00 -0.831077D-02  0.000000D+00  0.000000D+00
     10  -0.148564D-01 -0.176070D+00  0.000000D+00 -0.261322D-01 -0.191971D-01
     11  -0.551078D-02  0.260682D-01  0.000000D+00 -0.220815D+00  0.323569D+00
     12   0.336905D-01  0.317496D-01  0.000000D+00  0.547579D-01  0.226057D+00
     13   0.356879D-01  0.114016D-02  0.000000D+00 -0.303291D-01  0.154153D+00
     14  -0.259660D-01 -0.116936D+00  0.000000D+00 -0.866185D-01 -0.481888D-01
     15   0.000000D+00  0.000000D+00  0.120213D-01  0.000000D+00  0.000000D+00
     16   0.000000D+00  0.000000D+00  0.301426D-01  0.000000D+00  0.000000D+00
              1376          1377 
      1  -0.943475D+02 -0.942549D+02
      2  -0.541668D-03  0.198803D-02
      3   0.167568D-02 -0.973839D-03
      4   0.000000D+00  0.000000D+00
      5  -0.282779D-01 -0.511827D-02
      6  -0.107595D-01 -0.188564D-02
      7   0.000000D+00  0.000000D+00
      8   0.000000D+00  0.000000D+00
      9   0.000000D+00  0.000000D+00
     10   0.309647D-01  0.889593D-02
     11   0.370207D-01  0.735025D-01
     12   0.285838D-03  0.482872D-01
     13   0.108924D-01  0.420567D-01
     14  -0.179865D-01  0.498204D-02
     15   0.000000D+00  0.000000D+00
     16   0.000000D+00  0.000000D+00
 Unable to Open any file for archive entry.
 1\1\GINC-HEL20\SP\RwB97XD TD-FC\Gen\C3H6\RR\27-Feb-2022\0\\#P TD(Nstat
 es=10000) wB97XD/Gen SCF(maxcycles=100) Int(Grid=ultrafine)\\xGDB7_000
 01_tier4.com\\0,1\C,0,-1.131573,-0.504386,0.\C,0,0.,0.472223,0.\C,0,1.
 284136,0.150792,0.\H,0,-1.767446,-0.362775,0.877699\H,0,-0.770123,-1.5
 33458,0.\H,0,-1.767446,-0.362775,-0.877699\H,0,-0.276551,1.523465,0.\H
 ,0,1.608435,-0.884556,0.\H,0,2.057749,0.908326,0.\\Version=EM64L-G16Re
 vC.01\State=1-A'\HF=-117.9104382\RMSD=1.897e-09\PG=CS [SG(C3H4),X(H2)]
 \\@
 The archive entry for this job was punched.


 WHEN YOU REACH FOR THE STARS, YOU MAY NOT QUITE GET ONE,
 BUT YOU WON'T COME UP WITH A HANDFUL OF MUD, EITHER.

                                         -- LEO BURNETT (AD AGENCY HEAD)
 Job cpu time:       0 days  0 hours 50 minutes 49.6 seconds.
 Elapsed time:       0 days  0 hours  6 minutes 22.4 seconds.
 File lengths (MBytes):  RWF=   2544 Int=      0 D2E=      0 Chk=    835 Scr=      1
 Normal termination of Gaussian 16 at Sun Feb 27 06:46:21 2022.
