 Entering Gaussian System, Link 0=g16
 Input=bigQM7w_TDwB97XD_def2TZVP_000016.com
 Output=bigQM7w_TDwB97XD_def2TZVP_000016.log
 Initial command:
 /home/rr/g16/l1.exe "/scratch/rr/PBS_7918669.helios/Gau-12811.inp" -scrdir="/scratch/rr/PBS_7918669.helios/"
 Entering Link 1 = /home/rr/g16/l1.exe PID=     12815.
  
 Copyright (c) 1988-2019, Gaussian, Inc.  All Rights Reserved.
  
 This is part of the Gaussian(R) 16 program.  It is based on
 the Gaussian(R) 09 system (copyright 2009, Gaussian, Inc.),
 the Gaussian(R) 03 system (copyright 2003, Gaussian, Inc.),
 the Gaussian(R) 98 system (copyright 1998, Gaussian, Inc.),
 the Gaussian(R) 94 system (copyright 1995, Gaussian, Inc.),
 the Gaussian 92(TM) system (copyright 1992, Gaussian, Inc.),
 the Gaussian 90(TM) system (copyright 1990, Gaussian, Inc.),
 the Gaussian 88(TM) system (copyright 1988, Gaussian, Inc.),
 the Gaussian 86(TM) system (copyright 1986, Carnegie Mellon
 University), and the Gaussian 82(TM) system (copyright 1983,
 Carnegie Mellon University). Gaussian is a federally registered
 trademark of Gaussian, Inc.
  
 This software contains proprietary and confidential information,
 including trade secrets, belonging to Gaussian, Inc.
  
 This software is provided under written license and may be
 used, copied, transmitted, or stored only in accord with that
 written license.
  
 The following legend is applicable only to US Government
 contracts under FAR:
  
                    RESTRICTED RIGHTS LEGEND
  
 Use, reproduction and disclosure by the US Government is
 subject to restrictions as set forth in subparagraphs (a)
 and (c) of the Commercial Computer Software - Restricted
 Rights clause in FAR 52.227-19.
  
 Gaussian, Inc.
 340 Quinnipiac St., Bldg. 40, Wallingford CT 06492
  
  
 ---------------------------------------------------------------
 Warning -- This program may not be used in any manner that
 competes with the business of Gaussian, Inc. or will provide
 assistance to any competitor of Gaussian, Inc.  The licensee
 of this program is prohibited from giving any competitor of
 Gaussian, Inc. access to this program.  By using this program,
 the user acknowledges that Gaussian, Inc. is engaged in the
 business of creating and licensing software in the field of
 computational chemistry and represents and warrants to the
 licensee that it is not a competitor of Gaussian, Inc. and that
 it will not use this program in any manner prohibited above.
 ---------------------------------------------------------------
  

 Cite this work as:
 Gaussian 16, Revision C.01,
 M. J. Frisch, G. W. Trucks, H. B. Schlegel, G. E. Scuseria, 
 M. A. Robb, J. R. Cheeseman, G. Scalmani, V. Barone, 
 G. A. Petersson, H. Nakatsuji, X. Li, M. Caricato, A. V. Marenich, 
 J. Bloino, B. G. Janesko, R. Gomperts, B. Mennucci, H. P. Hratchian, 
 J. V. Ortiz, A. F. Izmaylov, J. L. Sonnenberg, D. Williams-Young, 
 F. Ding, F. Lipparini, F. Egidi, J. Goings, B. Peng, A. Petrone, 
 T. Henderson, D. Ranasinghe, V. G. Zakrzewski, J. Gao, N. Rega, 
 G. Zheng, W. Liang, M. Hada, M. Ehara, K. Toyota, R. Fukuda, 
 J. Hasegawa, M. Ishida, T. Nakajima, Y. Honda, O. Kitao, H. Nakai, 
 T. Vreven, K. Throssell, J. A. Montgomery, Jr., J. E. Peralta, 
 F. Ogliaro, M. J. Bearpark, J. J. Heyd, E. N. Brothers, K. N. Kudin, 
 V. N. Staroverov, T. A. Keith, R. Kobayashi, J. Normand, 
 K. Raghavachari, A. P. Rendell, J. C. Burant, S. S. Iyengar, 
 J. Tomasi, M. Cossi, J. M. Millam, M. Klene, C. Adamo, R. Cammi, 
 J. W. Ochterski, R. L. Martin, K. Morokuma, O. Farkas, 
 J. B. Foresman, and D. J. Fox, Gaussian, Inc., Wallingford CT, 2019.
 
 ******************************************
 Gaussian 16:  EM64L-G16RevC.01  3-Jul-2019
                27-Feb-2022 
 ******************************************
 %mem=64gb
 %nproc=8
 Will use up to    8 processors via shared memory.
 ----------------------------------------------------------------------
 #P TD(Nstates=10000) wB97XD/Gen SCF(maxcycles=100) Int(Grid=ultrafine)
 ----------------------------------------------------------------------
 1/38=1,172=1/1;
 2/12=2,17=6,18=5,40=1/2;
 3/5=7,11=9,25=1,30=1,74=-58,75=-5/1,2,3,8;
 4//1;
 5/5=2,7=100,38=5/2;
 8/6=1,10=1,108=10000/1;
 9/41=10000,42=1,70=2/14;
 6/7=2,8=2,9=2,10=2/1;
 99/5=1,9=1/99;
 Leave Link    1 at Sun Feb 27 06:42:32 2022, MaxMem=  8589934592 cpu:               0.7 elap:               0.1
 (Enter /home/rr/g16/l101.exe)
 ---------------------
 xGDB7_00001_tier4.com
 ---------------------
 Symbolic Z-matrix:
 Charge =  0 Multiplicity = 1
 6                    -1.20842  -0.23907  -0.02192 
 6                     0.08389   0.55345   0.04673 
 8                     1.23347  -0.256    -0.10586 
 1                    -2.072     0.42514   0.0517 
 1                    -1.27067  -0.95776   0.79973 
 1                    -1.27063  -0.78828  -0.96233 
 1                     0.13003   1.1192    0.98611 
 1                     0.12595   1.27703  -0.76855 
 1                     1.23675  -0.91361   0.59134 
 
 ITRead=  0  0  0  0  0  0  0  0  0
 MicOpt= -1 -1 -1 -1 -1 -1 -1 -1 -1
 NAtoms=      9 NQM=        9 NQMF=       0 NMMI=      0 NMMIF=      0
                NMic=       0 NMicF=      0.
                    Isotopes and Nuclear Properties:
 (Nuclear quadrupole moments (NQMom) in fm**2, nuclear magnetic moments (NMagM)
  in nuclear magnetons)

  Atom         1           2           3           4           5           6           7           8           9
 IAtWgt=          12          12          16           1           1           1           1           1           1
 AtmWgt=  12.0000000  12.0000000  15.9949146   1.0078250   1.0078250   1.0078250   1.0078250   1.0078250   1.0078250
 NucSpn=           0           0           0           1           1           1           1           1           1
 AtZEff=  -0.0000000  -0.0000000  -0.0000000  -0.0000000  -0.0000000  -0.0000000  -0.0000000  -0.0000000  -0.0000000
 NQMom=    0.0000000   0.0000000   0.0000000   0.0000000   0.0000000   0.0000000   0.0000000   0.0000000   0.0000000
 NMagM=    0.0000000   0.0000000   0.0000000   2.7928460   2.7928460   2.7928460   2.7928460   2.7928460   2.7928460
 AtZNuc=   6.0000000   6.0000000   8.0000000   1.0000000   1.0000000   1.0000000   1.0000000   1.0000000   1.0000000
 Leave Link  101 at Sun Feb 27 06:42:33 2022, MaxMem=  8589934592 cpu:               1.6 elap:               0.2
 (Enter /home/rr/g16/l202.exe)
                          Input orientation:                          
 ---------------------------------------------------------------------
 Center     Atomic      Atomic             Coordinates (Angstroms)
 Number     Number       Type             X           Y           Z
 ---------------------------------------------------------------------
      1          6           0       -1.208422   -0.239069   -0.021917
      2          6           0        0.083893    0.553452    0.046734
      3          8           0        1.233467   -0.256002   -0.105864
      4          1           0       -2.071999    0.425136    0.051700
      5          1           0       -1.270670   -0.957756    0.799731
      6          1           0       -1.270625   -0.788280   -0.962327
      7          1           0        0.130030    1.119197    0.986112
      8          1           0        0.125952    1.277026   -0.768547
      9          1           0        1.236751   -0.913605    0.591341
 ---------------------------------------------------------------------
                    Distance matrix (angstroms):
                    1          2          3          4          5
     1  C    0.000000
     2  C    1.517524   0.000000
     3  O    2.443390   1.414221   0.000000
     4  H    1.091949   2.159713   3.378592   0.000000
     5  H    1.093385   2.164624   2.753773   1.764672   0.000000
     6  H    1.090813   2.157120   2.699505   1.772803   1.770189
     7  H    2.156957   1.097555   2.073923   2.490738   2.512057
     8  H    2.153266   1.090876   2.003974   2.495899   3.066643
     9  H    2.609589   1.943691   0.958409   3.609885   2.516453
                    6          7          8          9
     6  H    0.000000
     7  H    3.065407   0.000000
     8  H    2.500693   1.761748   0.000000
     9  H    2.952376   2.347969   2.807496   0.000000
 Stoichiometry    C2H6O
 Framework group  C1[X(C2H6O)]
 Deg. of freedom    21
 Full point group                 C1      NOp   1
 Largest Abelian subgroup         C1      NOp   1
 Largest concise Abelian subgroup C1      NOp   1
                         Standard orientation:                         
 ---------------------------------------------------------------------
 Center     Atomic      Atomic             Coordinates (Angstroms)
 Number     Number       Type             X           Y           Z
 ---------------------------------------------------------------------
      1          6           0       -1.208422   -0.239069   -0.021917
      2          6           0        0.083893    0.553452    0.046734
      3          8           0        1.233467   -0.256002   -0.105864
      4          1           0       -2.071999    0.425135    0.051700
      5          1           0       -1.270670   -0.957756    0.799731
      6          1           0       -1.270625   -0.788280   -0.962327
      7          1           0        0.130030    1.119197    0.986112
      8          1           0        0.125951    1.277026   -0.768547
      9          1           0        1.236751   -0.913605    0.591341
 ---------------------------------------------------------------------
 Rotational constants (GHZ):          34.6666409           9.2583988           8.1755823
 Leave Link  202 at Sun Feb 27 06:42:34 2022, MaxMem=  8589934592 cpu:               2.3 elap:               0.4
 (Enter /home/rr/g16/l301.exe)
 General basis read from cards:  (5D, 7F)
 Centers:       4      5      6      7      8      9
 S 3 1.00
     Exponent=  3.4061341000D+01 Coefficients=  6.0251978000D-03
     Exponent=  5.1235746000D+00 Coefficients=  4.5021094000D-02
     Exponent=  1.1646626000D+00 Coefficients=  2.0189726000D-01
 S 1 1.00
     Exponent=  3.2723041000D-01 Coefficients=  1.0000000000D+00
 S 1 1.00
     Exponent=  1.0307241000D-01 Coefficients=  1.0000000000D+00
 P 1 1.00
     Exponent=  8.0000000000D-01 Coefficients=  1.0000000000D+00
 P 1 1.00
     Exponent=  9.5774129632D-02 Coefficients=  1.0000000000D+00
 ****
 Centers:       1      2
 S 6 1.00
     Exponent=  1.3575349682D+04 Coefficients=  2.2245814352D-04
     Exponent=  2.0352333680D+03 Coefficients=  1.7232738252D-03
     Exponent=  4.6322562359D+02 Coefficients=  8.9255715314D-03
     Exponent=  1.3120019598D+02 Coefficients=  3.5727984502D-02
     Exponent=  4.2853015891D+01 Coefficients=  1.1076259931D-01
     Exponent=  1.5584185766D+01 Coefficients=  2.4295627626D-01
 S 2 1.00
     Exponent=  6.2067138508D+00 Coefficients=  4.1440263448D-01
     Exponent=  2.5764896527D+00 Coefficients=  2.3744968655D-01
 S 1 1.00
     Exponent=  5.7696339419D-01 Coefficients=  1.0000000000D+00
 S 1 1.00
     Exponent=  2.2972831358D-01 Coefficients=  1.0000000000D+00
 S 1 1.00
     Exponent=  9.5164440028D-02 Coefficients=  1.0000000000D+00
 S 1 1.00
     Exponent=  4.8475401370D-02 Coefficients=  1.0000000000D+00
 P 4 1.00
     Exponent=  3.4697232244D+01 Coefficients=  5.3333657805D-03
     Exponent=  7.9582622826D+00 Coefficients=  3.5864109092D-02
     Exponent=  2.3780826883D+00 Coefficients=  1.4215873329D-01
     Exponent=  8.1433208183D-01 Coefficients=  3.4270471845D-01
 P 1 1.00
     Exponent=  2.8887547253D-01 Coefficients=  4.6445822433D-01
 P 1 1.00
     Exponent=  1.0056823671D-01 Coefficients=  2.4955789874D-01
 D 1 1.00
     Exponent=  1.0970000000D+00 Coefficients=  1.0000000000D+00
 D 1 1.00
     Exponent=  3.1800000000D-01 Coefficients=  1.0000000000D+00
 D 1 1.00
     Exponent=  9.0985336424D-02 Coefficients=  1.0000000000D+00
 F 1 1.00
     Exponent=  7.6100000000D-01 Coefficients=  1.0000000000D+00
 ****
 Centers:       3
 S 6 1.00
     Exponent=  2.7032382631D+04 Coefficients=  2.1726302465D-04
     Exponent=  4.0523871392D+03 Coefficients=  1.6838662199D-03
     Exponent=  9.2232722710D+02 Coefficients=  8.7395616265D-03
     Exponent=  2.6124070989D+02 Coefficients=  3.5239968808D-02
     Exponent=  8.5354641351D+01 Coefficients=  1.1153519115D-01
     Exponent=  3.1035035245D+01 Coefficients=  2.5588953961D-01
 S 2 1.00
     Exponent=  1.2260860728D+01 Coefficients=  3.9768730901D-01
     Exponent=  4.9987076005D+00 Coefficients=  2.4627849430D-01
 S 1 1.00
     Exponent=  1.1703108158D+00 Coefficients=  1.0000000000D+00
 S 1 1.00
     Exponent=  4.6474740994D-01 Coefficients=  1.0000000000D+00
 S 1 1.00
     Exponent=  1.8504536357D-01 Coefficients=  1.0000000000D+00
 S 1 1.00
     Exponent=  7.0288026270D-02 Coefficients=  1.0000000000D+00
 P 4 1.00
     Exponent=  6.3274954801D+01 Coefficients=  6.0685103418D-03
     Exponent=  1.4627049379D+01 Coefficients=  4.1912575824D-02
     Exponent=  4.4501223456D+00 Coefficients=  1.6153841088D-01
     Exponent=  1.5275799647D+00 Coefficients=  3.5706951311D-01
 P 1 1.00
     Exponent=  5.2935117943D-01 Coefficients=  4.4794207502D-01
 P 1 1.00
     Exponent=  1.7478421270D-01 Coefficients=  2.4446069663D-01
 P 1 1.00
     Exponent=  5.1112745706D-02 Coefficients=  1.0000000000D+00
 D 1 1.00
     Exponent=  2.3140000000D+00 Coefficients=  1.0000000000D+00
 D 1 1.00
     Exponent=  6.4500000000D-01 Coefficients=  1.0000000000D+00
 D 1 1.00
     Exponent=  1.4696477366D-01 Coefficients=  1.0000000000D+00
 F 1 1.00
     Exponent=  1.4280000000D+00 Coefficients=  1.0000000000D+00
 ****
 Ernie: Thresh=  0.10000D-02 Tol=  0.10000D-05 Strict=F.
 There are   186 symmetry adapted cartesian basis functions of A   symmetry.
 There are   168 symmetry adapted basis functions of A   symmetry.
   168 basis functions,   243 primitive gaussians,   186 cartesian basis functions
    13 alpha electrons       13 beta electrons
       nuclear repulsion energy        81.9103171642 Hartrees.
 IExCor= 4639 DFT=T Ex+Corr=wB97XD ExCW=0 ScaHFX=  1.000000
 ScaDFX=  1.000000  1.000000  1.000000  1.000000 ScalE2=  1.000000  1.000000
 IRadAn=      5 IRanWt=     -1 IRanGd=            0 ICorTp=0 IEmpDi=121
 HFx  wShort=  0.000000 wLong=  0.200000 cFull=  0.222036 cShort=  0.000000 cLong=  0.777964
 DFx  wShort=  0.000000 wLong=  0.200000 cFull=  0.000000 cShort=  0.000000 cLong=  1.000000
 NAtoms=    9 NActive=    9 NUniq=    9 SFac= 1.00D+00 NAtFMM=   60 NAOKFM=F Big=F
 Integral buffers will be    131072 words long.
 Raffenetti 1 integral format.
 Two-electron integral symmetry is turned on.
 R6Disp:  Grimme-D2 Dispersion energy=       -0.0025707911 Hartrees.
 Nuclear repulsion after empirical dispersion term =       81.9077463731 Hartrees.
 Leave Link  301 at Sun Feb 27 06:42:34 2022, MaxMem=  8589934592 cpu:               1.7 elap:               0.3
 (Enter /home/rr/g16/l302.exe)
 NPDir=0 NMtPBC=     1 NCelOv=     1 NCel=       1 NClECP=     1 NCelD=      1
         NCelK=      1 NCelE2=     1 NClLst=     1 CellRange=     0.0.
 One-electron integrals computed using PRISM.
 One-electron integral symmetry used in STVInt
 NBasis=   168 RedAO= T EigKep=  1.64D-05  NBF=   168
 NBsUse=   168 1.00D-06 EigRej= -1.00D+00 NBFU=   168
 Precomputing XC quadrature grid using
 IXCGrd= 4 IRadAn=           5 IRanWt=          -1 IRanGd=           0 AccXCQ= 0.00D+00.
 Generated NRdTot=       0 NPtTot=           0 NUsed=           0 NTot=          32
 NSgBfM=   186   186   186   186   186 MxSgAt=     9 MxSgA2=     9.
 Leave Link  302 at Sun Feb 27 06:42:35 2022, MaxMem=  8589934592 cpu:               2.7 elap:               0.4
 (Enter /home/rr/g16/l303.exe)
 DipDrv:  MaxL=1.
 Leave Link  303 at Sun Feb 27 06:42:36 2022, MaxMem=  8589934592 cpu:               0.6 elap:               0.2
 (Enter /home/rr/g16/l308.exe)
 Leave Link  308 at Sun Feb 27 06:42:36 2022, MaxMem=  8589934592 cpu:               0.4 elap:               0.1
 (Enter /home/rr/g16/l401.exe)
 ExpMin= 4.85D-02 ExpMax= 2.70D+04 ExpMxC= 9.22D+02 IAcc=3 IRadAn=         5 AccDes= 0.00D+00
 Harris functional with IExCor= 4639 and IRadAn=       5 diagonalized for initial guess.
 HarFok:  IExCor= 4639 AccDes= 0.00D+00 IRadAn=         5 IDoV= 1 UseB2=F ITyADJ=14
 ICtDFT=  3500011 ScaDFX=  1.000000  1.000000  1.000000  1.000000
 FoFCou: FMM=F IPFlag=           0 FMFlag=      100000 FMFlg1=           0
         NFxFlg=           0 DoJE=T BraDBF=F KetDBF=T FulRan=T
         wScrn=  0.000000 ICntrl=       500 IOpCl=  0 I1Cent=   200000004 NGrid=           0
         NMat0=    1 NMatS0=      1 NMatT0=    0 NMatD0=    1 NMtDS0=    0 NMtDT0=    0
 Petite list used in FoFCou.
 Harris En= -148.339517808657    
 JPrj=0 DoOrth=F DoCkMO=F.
 Leave Link  401 at Sun Feb 27 06:42:37 2022, MaxMem=  8589934592 cpu:               8.8 elap:               1.3
 (Enter /home/rr/g16/l502.exe)
 Keep R1 ints in memory in canonical form, NReq=212065950.
 FoFCou: FMM=F IPFlag=           0 FMFlag=           0 FMFlg1=           0
         NFxFlg=           0 DoJE=F BraDBF=F KetDBF=F FulRan=T
         wScrn=  0.000000 ICntrl=       600 IOpCl=  0 I1Cent=           0 NGrid=           0
         NMat0=    1 NMatS0=  14196 NMatT0=    0 NMatD0=    1 NMtDS0=    0 NMtDT0=    0
 Symmetry not used in FoFCou.
 Two-electron integral symmetry not used.
 Closed shell SCF:
 Using DIIS extrapolation, IDIIS=  1040.
 NGot=  8589934592 LenX=  8388321294 LenY=  8388286257
 Requested convergence on RMS density matrix=1.00D-08 within 100 cycles.
 Requested convergence on MAX density matrix=1.00D-06.
 Requested convergence on             energy=1.00D-06.
 No special actions if energy rises.

 Cycle   1  Pass 1  IDiag  1:
 E= -155.010246138760    
 DIIS: error= 4.09D-02 at cycle   1 NSaved=   1.
 NSaved= 1 IEnMin= 1 EnMin= -155.010246138760     IErMin= 1 ErrMin= 4.09D-02
 ErrMax= 4.09D-02  0.00D+00 EMaxC= 1.00D-01 BMatC= 3.29D-01 BMatP= 3.29D-01
 IDIUse=3 WtCom= 5.91D-01 WtEn= 4.09D-01
 Coeff-Com:  0.100D+01
 Coeff-En:   0.100D+01
 Coeff:      0.100D+01
 Gap=     0.473 Goal=   None    Shift=    0.000
 GapD=    0.473 DampG=2.000 DampE=0.500 DampFc=1.0000 IDamp=-1.
 RMSDP=4.39D-03 MaxDP=1.76D-01              OVMax= 6.12D-02

 Cycle   2  Pass 1  IDiag  1:
 E= -155.036319710712     Delta-E=       -0.026073571953 Rises=F Damp=F
 DIIS: error= 8.58D-03 at cycle   2 NSaved=   2.
 NSaved= 2 IEnMin= 2 EnMin= -155.036319710712     IErMin= 2 ErrMin= 8.58D-03
 ErrMax= 8.58D-03  0.00D+00 EMaxC= 1.00D-01 BMatC= 3.22D-02 BMatP= 3.29D-01
 IDIUse=3 WtCom= 9.14D-01 WtEn= 8.58D-02
 Coeff-Com:  0.171D+00 0.829D+00
 Coeff-En:   0.189D+00 0.811D+00
 Coeff:      0.172D+00 0.828D+00
 Gap=     0.439 Goal=   None    Shift=    0.000
 RMSDP=1.34D-03 MaxDP=3.76D-02 DE=-2.61D-02 OVMax= 5.53D-02

 Cycle   3  Pass 1  IDiag  1:
 E= -155.045310312565     Delta-E=       -0.008990601853 Rises=F Damp=F
 DIIS: error= 7.33D-03 at cycle   3 NSaved=   3.
 NSaved= 3 IEnMin= 3 EnMin= -155.045310312565     IErMin= 3 ErrMin= 7.33D-03
 ErrMax= 7.33D-03  0.00D+00 EMaxC= 1.00D-01 BMatC= 1.85D-02 BMatP= 3.22D-02
 IDIUse=3 WtCom= 9.27D-01 WtEn= 7.33D-02
 Coeff-Com:  0.254D-01 0.437D+00 0.538D+00
 Coeff-En:   0.000D+00 0.370D+00 0.630D+00
 Coeff:      0.236D-01 0.432D+00 0.545D+00
 Gap=     0.432 Goal=   None    Shift=    0.000
 RMSDP=5.52D-04 MaxDP=1.48D-02 DE=-8.99D-03 OVMax= 2.73D-02

 Cycle   4  Pass 1  IDiag  1:
 E= -155.057661354315     Delta-E=       -0.012351041750 Rises=F Damp=F
 DIIS: error= 5.92D-04 at cycle   4 NSaved=   4.
 NSaved= 4 IEnMin= 4 EnMin= -155.057661354315     IErMin= 4 ErrMin= 5.92D-04
 ErrMax= 5.92D-04  0.00D+00 EMaxC= 1.00D-01 BMatC= 1.57D-04 BMatP= 1.85D-02
 IDIUse=3 WtCom= 9.94D-01 WtEn= 5.92D-03
 Coeff-Com:  0.856D-02 0.148D+00 0.211D+00 0.632D+00
 Coeff-En:   0.000D+00 0.000D+00 0.000D+00 0.100D+01
 Coeff:      0.851D-02 0.147D+00 0.210D+00 0.634D+00
 Gap=     0.425 Goal=   None    Shift=    0.000
 RMSDP=7.50D-05 MaxDP=2.62D-03 DE=-1.24D-02 OVMax= 2.38D-03

 Cycle   5  Pass 1  IDiag  1:
 E= -155.057772344533     Delta-E=       -0.000110990218 Rises=F Damp=F
 DIIS: error= 1.28D-04 at cycle   5 NSaved=   5.
 NSaved= 5 IEnMin= 5 EnMin= -155.057772344533     IErMin= 5 ErrMin= 1.28D-04
 ErrMax= 1.28D-04  0.00D+00 EMaxC= 1.00D-01 BMatC= 5.19D-06 BMatP= 1.57D-04
 IDIUse=3 WtCom= 9.99D-01 WtEn= 1.28D-03
 Coeff-Com: -0.129D-02-0.182D-01-0.113D-01 0.108D+00 0.923D+00
 Coeff-En:   0.000D+00 0.000D+00 0.000D+00 0.000D+00 0.100D+01
 Coeff:     -0.129D-02-0.182D-01-0.113D-01 0.108D+00 0.923D+00
 Gap=     0.425 Goal=   None    Shift=    0.000
 RMSDP=4.44D-05 MaxDP=9.75D-04 DE=-1.11D-04 OVMax= 8.21D-04

 Cycle   6  Pass 1  IDiag  1:
 E= -155.057778687671     Delta-E=       -0.000006343138 Rises=F Damp=F
 DIIS: error= 2.71D-05 at cycle   6 NSaved=   6.
 NSaved= 6 IEnMin= 6 EnMin= -155.057778687671     IErMin= 6 ErrMin= 2.71D-05
 ErrMax= 2.71D-05  0.00D+00 EMaxC= 1.00D-01 BMatC= 2.04D-07 BMatP= 5.19D-06
 IDIUse=1 WtCom= 1.00D+00 WtEn= 0.00D+00
 Coeff-Com: -0.623D-03-0.106D-01-0.121D-01-0.106D-01 0.156D+00 0.878D+00
 Coeff:     -0.623D-03-0.106D-01-0.121D-01-0.106D-01 0.156D+00 0.878D+00
 Gap=     0.425 Goal=   None    Shift=    0.000
 RMSDP=1.30D-05 MaxDP=2.85D-04 DE=-6.34D-06 OVMax= 2.39D-04

 Cycle   7  Pass 1  IDiag  1:
 E= -155.057779000448     Delta-E=       -0.000000312777 Rises=F Damp=F
 DIIS: error= 7.27D-06 at cycle   7 NSaved=   7.
 NSaved= 7 IEnMin= 7 EnMin= -155.057779000448     IErMin= 7 ErrMin= 7.27D-06
 ErrMax= 7.27D-06  0.00D+00 EMaxC= 1.00D-01 BMatC= 9.01D-09 BMatP= 2.04D-07
 IDIUse=1 WtCom= 1.00D+00 WtEn= 0.00D+00
 Coeff-Com:  0.300D-04 0.274D-03-0.155D-03-0.575D-02-0.469D-01 0.482D-01
 Coeff-Com:  0.100D+01
 Coeff:      0.300D-04 0.274D-03-0.155D-03-0.575D-02-0.469D-01 0.482D-01
 Coeff:      0.100D+01
 Gap=     0.425 Goal=   None    Shift=    0.000
 RMSDP=4.74D-06 MaxDP=1.07D-04 DE=-3.13D-07 OVMax= 9.09D-05

 Cycle   8  Pass 1  IDiag  1:
 E= -155.057779021868     Delta-E=       -0.000000021419 Rises=F Damp=F
 DIIS: error= 1.25D-06 at cycle   8 NSaved=   8.
 NSaved= 8 IEnMin= 8 EnMin= -155.057779021868     IErMin= 8 ErrMin= 1.25D-06
 ErrMax= 1.25D-06  0.00D+00 EMaxC= 1.00D-01 BMatC= 5.65D-10 BMatP= 9.01D-09
 IDIUse=1 WtCom= 1.00D+00 WtEn= 0.00D+00
 Coeff-Com:  0.233D-04 0.423D-03 0.489D-03-0.313D-03-0.104D-01-0.294D-01
 Coeff-Com:  0.931D-01 0.946D+00
 Coeff:      0.233D-04 0.423D-03 0.489D-03-0.313D-03-0.104D-01-0.294D-01
 Coeff:      0.931D-01 0.946D+00
 Gap=     0.425 Goal=   None    Shift=    0.000
 RMSDP=9.23D-07 MaxDP=2.38D-05 DE=-2.14D-08 OVMax= 2.04D-05

 Cycle   9  Pass 1  IDiag  1:
 E= -155.057779022977     Delta-E=       -0.000000001110 Rises=F Damp=F
 DIIS: error= 7.24D-07 at cycle   9 NSaved=   9.
 NSaved= 9 IEnMin= 9 EnMin= -155.057779022977     IErMin= 9 ErrMin= 7.24D-07
 ErrMax= 7.24D-07  0.00D+00 EMaxC= 1.00D-01 BMatC= 9.88D-11 BMatP= 5.65D-10
 IDIUse=1 WtCom= 1.00D+00 WtEn= 0.00D+00
 Coeff-Com:  0.241D-05 0.510D-04 0.118D-03 0.474D-03 0.303D-02-0.115D-01
 Coeff-Com: -0.874D-01 0.263D+00 0.833D+00
 Coeff:      0.241D-05 0.510D-04 0.118D-03 0.474D-03 0.303D-02-0.115D-01
 Coeff:     -0.874D-01 0.263D+00 0.833D+00
 Gap=     0.425 Goal=   None    Shift=    0.000
 RMSDP=2.99D-07 MaxDP=9.76D-06 DE=-1.11D-09 OVMax= 6.16D-06

 Cycle  10  Pass 1  IDiag  1:
 E= -155.057779023123     Delta-E=       -0.000000000146 Rises=F Damp=F
 DIIS: error= 1.47D-07 at cycle  10 NSaved=  10.
 NSaved=10 IEnMin=10 EnMin= -155.057779023123     IErMin=10 ErrMin= 1.47D-07
 ErrMax= 1.47D-07  0.00D+00 EMaxC= 1.00D-01 BMatC= 6.34D-12 BMatP= 9.88D-11
 IDIUse=1 WtCom= 1.00D+00 WtEn= 0.00D+00
 Coeff-Com: -0.115D-05-0.153D-04-0.844D-05 0.114D-03 0.130D-02 0.477D-04
 Coeff-Com: -0.245D-01-0.261D-01 0.204D+00 0.845D+00
 Coeff:     -0.115D-05-0.153D-04-0.844D-05 0.114D-03 0.130D-02 0.477D-04
 Coeff:     -0.245D-01-0.261D-01 0.204D+00 0.845D+00
 Gap=     0.425 Goal=   None    Shift=    0.000
 RMSDP=8.88D-08 MaxDP=4.56D-06 DE=-1.46D-10 OVMax= 1.59D-06

 Cycle  11  Pass 1  IDiag  1:
 E= -155.057779023132     Delta-E=       -0.000000000009 Rises=F Damp=F
 DIIS: error= 2.71D-08 at cycle  11 NSaved=  11.
 NSaved=11 IEnMin=11 EnMin= -155.057779023132     IErMin=11 ErrMin= 2.71D-08
 ErrMax= 2.71D-08  0.00D+00 EMaxC= 1.00D-01 BMatC= 1.36D-13 BMatP= 6.34D-12
 IDIUse=1 WtCom= 1.00D+00 WtEn= 0.00D+00
 Coeff-Com:  0.228D-07-0.175D-05-0.663D-05-0.269D-04-0.224D-03 0.606D-03
 Coeff-Com:  0.574D-02-0.152D-01-0.471D-01-0.672D-01 0.112D+01
 Coeff:      0.228D-07-0.175D-05-0.663D-05-0.269D-04-0.224D-03 0.606D-03
 Coeff:      0.574D-02-0.152D-01-0.471D-01-0.672D-01 0.112D+01
 Gap=     0.425 Goal=   None    Shift=    0.000
 RMSDP=2.86D-08 MaxDP=1.66D-06 DE=-9.04D-12 OVMax= 4.62D-07

 Cycle  12  Pass 1  IDiag  1:
 E= -155.057779023130     Delta-E=        0.000000000002 Rises=F Damp=F
 DIIS: error= 4.57D-09 at cycle  12 NSaved=  12.
 NSaved=12 IEnMin=11 EnMin= -155.057779023132     IErMin=12 ErrMin= 4.57D-09
 ErrMax= 4.57D-09  0.00D+00 EMaxC= 1.00D-01 BMatC= 4.45D-15 BMatP= 1.36D-13
 IDIUse=1 WtCom= 1.00D+00 WtEn= 0.00D+00
 Coeff-Com:  0.473D-08 0.215D-06 0.386D-06-0.316D-05-0.176D-04-0.156D-04
 Coeff-Com:  0.347D-03 0.116D-02-0.299D-02-0.142D-01-0.533D-01 0.107D+01
 Coeff:      0.473D-08 0.215D-06 0.386D-06-0.316D-05-0.176D-04-0.156D-04
 Coeff:      0.347D-03 0.116D-02-0.299D-02-0.142D-01-0.533D-01 0.107D+01
 Gap=     0.425 Goal=   None    Shift=    0.000
 RMSDP=2.33D-09 MaxDP=8.76D-08 DE= 2.47D-12 OVMax= 7.58D-08

 SCF Done:  E(RwB97XD) =  -155.057779023     A.U. after   12 cycles
            NFock= 12  Conv=0.23D-08     -V/T= 2.0049
 KE= 1.543039567197D+02 PE=-5.263611713484D+02 EE= 1.350916892325D+02
 Leave Link  502 at Sun Feb 27 06:42:50 2022, MaxMem=  8589934592 cpu:              85.3 elap:              12.8
 (Enter /home/rr/g16/l801.exe)
 DoSCS=F DFT=T ScalE2(SS,OS)=  1.000000  1.000000
 ExpMin= 4.85D-02 ExpMax= 2.70D+04 ExpMxC= 9.22D+02 IAcc=3 IRadAn=         5 AccDes= 0.00D+00
 HarFok:  IExCor=  205 AccDes= 0.00D+00 IRadAn=         5 IDoV=-2 UseB2=F ITyADJ=14
 ICtDFT= 12500011 ScaDFX=  1.000000  1.000000  1.000000  1.000000
 Largest valence mixing into a core orbital is  6.69D-05
 Largest core mixing into a valence orbital is  1.01D-05
 Range of M.O.s used for correlation:     4   168
 NBasis=   168 NAE=    13 NBE=    13 NFC=     3 NFV=     0
 NROrb=    165 NOA=    10 NOB=    10 NVA=   155 NVB=   155

 **** Warning!!: The largest alpha MO coefficient is  0.97728837D+02

 Leave Link  801 at Sun Feb 27 06:42:50 2022, MaxMem=  8589934592 cpu:               0.7 elap:               0.1
 (Enter /home/rr/g16/l914.exe)
 RHF ground state
 Keep R1, R2, and R3 ints in memory in canonical form, NReq=4642844306.
 FoFCou: FMM=F IPFlag=           0 FMFlag=           0 FMFlg1=           0
         NFxFlg=           0 DoJE=F BraDBF=F KetDBF=F FulRan=T
         wScrn=  0.000000 ICntrl=       600 IOpCl=  0 I1Cent=           0 NGrid=           0
         NMat0=    1 NMatS0=  14196 NMatT0=    0 NMatD0=    1 NMtDS0=    0 NMtDT0=    0
 Symmetry not used in FoFCou.
 Two-electron integral symmetry not used.
 MDV=  8589934592 DFT=T DoStab=F Mixed=T DoRPA=T DoScal=F NonHer=T
 Making orbital integer symmetry assigments:
 Orbital symmetries:
       Occupied  (A) (A) (A) (A) (A) (A) (A) (A) (A) (A) (A) (A)
                 (A)
       Virtual   (A) (A) (A) (A) (A) (A) (A) (A) (A) (A) (A) (A)
                 (A) (A) (A) (A) (A) (A) (A) (A) (A) (A) (A) (A)
                 (A) (A) (A) (A) (A) (A) (A) (A) (A) (A) (A) (A)
                 (A) (A) (A) (A) (A) (A) (A) (A) (A) (A) (A) (A)
                 (A) (A) (A) (A) (A) (A) (A) (A) (A) (A) (A) (A)
                 (A) (A) (A) (A) (A) (A) (A) (A) (A) (A) (A) (A)
                 (A) (A) (A) (A) (A) (A) (A) (A) (A) (A) (A) (A)
                 (A) (A) (A) (A) (A) (A) (A) (A) (A) (A) (A) (A)
                 (A) (A) (A) (A) (A) (A) (A) (A) (A) (A) (A) (A)
                 (A) (A) (A) (A) (A) (A) (A) (A) (A) (A) (A) (A)
                 (A) (A) (A) (A) (A) (A) (A) (A) (A) (A) (A) (A)
                 (A) (A) (A) (A) (A) (A) (A) (A) (A) (A) (A) (A)
                 (A) (A) (A) (A) (A) (A) (A) (A) (A) (A) (A)
  1550 initial guesses have been made.
 Convergence on wavefunction:    0.001000000000000
 Davidson Disk Diagonalization:  ConvIn= 1.00D-03 SkipCon=T Conv= 1.00D-03.
 Max sub-space:  9300 roots to seek:  3100 dimension of matrix:         3100
 *** WARNING: Number of orthogonal guesses is         1550
 Iteration     1 Dimension  1550 NMult     0 NNew   1550
 CISAX will form  1550 AO SS matrices at one time.
 NMat=  1550 NSing=  1550 JSym2X= 0.
 New state      2 was old state      3
 New state      3 was old state      2
 New state      4 was old state      5
 New state      5 was old state      4
 New state      6 was old state      7
 New state      7 was old state      6
 New state      8 was old state      9
 New state      9 was old state      8
 New state     13 was old state     14
 New state     14 was old state     13
 New state     15 was old state     18
 New state     16 was old state     15
 New state     17 was old state     16
 New state     18 was old state     19
 New state     19 was old state     17
 New state     20 was old state     21
 New state     21 was old state     20
 New state     22 was old state     25
 New state     23 was old state     22
 New state     25 was old state     23
 New state     26 was old state     28
 New state     28 was old state     26
 New state     29 was old state     30
 New state     30 was old state     32
 New state     31 was old state     33
 New state     32 was old state     29
 New state     33 was old state     31
 New state     34 was old state     35
 New state     35 was old state     37
 New state     37 was old state     39
 New state     38 was old state     34
 New state     39 was old state     40
 New state     40 was old state     45
 New state     41 was old state     43
 New state     42 was old state     48
 New state     43 was old state     41
 New state     44 was old state     38
 New state     45 was old state     46
 New state     46 was old state     47
 New state     47 was old state     51
 New state     48 was old state     44
 New state     49 was old state     53
 New state     50 was old state     49
 New state     51 was old state     54
 New state     52 was old state     50
 New state     53 was old state     55
 New state     54 was old state     64
 New state     55 was old state     62
 New state     56 was old state     61
 New state     57 was old state     59
 New state     58 was old state     52
 New state     59 was old state     58
 New state     60 was old state     56
 New state     61 was old state     66
 New state     62 was old state     63
 New state     63 was old state     57
 New state     64 was old state     68
 New state     65 was old state     60
 New state     66 was old state     67
 New state     67 was old state     69
 New state     68 was old state     65
 New state     69 was old state     70
 New state     70 was old state     72
 New state     71 was old state     76
 New state     72 was old state     78
 New state     73 was old state     75
 New state     74 was old state     79
 New state     75 was old state     74
 New state     76 was old state     81
 New state     77 was old state     73
 New state     78 was old state     71
 New state     79 was old state     83
 New state     80 was old state     86
 New state     81 was old state     80
 New state     83 was old state     88
 New state     84 was old state     94
 New state     85 was old state     89
 New state     86 was old state     84
 New state     87 was old state     85
 New state     88 was old state     93
 New state     89 was old state     96
 New state     91 was old state     87
 New state     93 was old state     91
 New state     94 was old state     97
 New state     95 was old state     98
 New state     96 was old state    102
 New state     97 was old state    103
 New state     98 was old state     95
 New state    101 was old state    108
 New state    102 was old state    105
 New state    103 was old state    106
 New state    105 was old state    116
 New state    106 was old state    110
 New state    107 was old state    111
 New state    108 was old state    101
 New state    109 was old state    107
 New state    110 was old state    109
 New state    111 was old state    124
 New state    112 was old state    119
 New state    113 was old state    112
 New state    114 was old state    115
 New state    115 was old state    117
 New state    116 was old state    113
 New state    117 was old state    114
 New state    118 was old state    122
 New state    119 was old state    121
 New state    120 was old state    123
 New state    121 was old state    131
 New state    122 was old state    120
 New state    123 was old state    118
 New state    124 was old state    128
 New state    125 was old state    126
 New state    126 was old state    129
 New state    128 was old state    133
 New state    129 was old state    130
 New state    130 was old state    138
 New state    131 was old state    132
 New state    132 was old state    137
 New state    133 was old state    125
 New state    134 was old state    139
 New state    135 was old state    134
 New state    137 was old state    146
 New state    138 was old state    141
 New state    139 was old state    142
 New state    140 was old state    135
 New state    141 was old state    140
 New state    142 was old state    143
 New state    143 was old state    144
 New state    144 was old state    147
 New state    146 was old state    156
 New state    147 was old state    158
 New state    148 was old state    160
 New state    149 was old state    150
 New state    150 was old state    149
 New state    152 was old state    148
 New state    153 was old state    161
 New state    155 was old state    153
 New state    156 was old state    155
 New state    157 was old state    172
 New state    158 was old state    164
 New state    159 was old state    163
 New state    160 was old state    170
 New state    161 was old state    159
 New state    162 was old state    166
 New state    163 was old state    181
 New state    164 was old state    157
 New state    165 was old state    152
 New state    166 was old state    168
 New state    167 was old state    175
 New state    168 was old state    186
 New state    169 was old state    171
 New state    170 was old state    174
 New state    171 was old state    167
 New state    172 was old state    165
 New state    173 was old state    178
 New state    174 was old state    179
 New state    175 was old state    180
 New state    176 was old state    173
 New state    177 was old state    169
 New state    178 was old state    177
 New state    179 was old state    185
 New state    180 was old state    182
 New state    181 was old state    184
 New state    182 was old state    190
 New state    183 was old state    191
 New state    184 was old state    189
 New state    185 was old state    187
 New state    186 was old state    183
 New state    187 was old state    193
 New state    189 was old state    192
 New state    190 was old state    196
 New state    191 was old state    195
 New state    192 was old state    201
 New state    193 was old state    199
 New state    194 was old state    203
 New state    195 was old state    194
 New state    196 was old state    202
 New state    197 was old state    198
 New state    198 was old state    197
 New state    199 was old state    200
 New state    200 was old state    211
 New state    201 was old state    214
 New state    202 was old state    205
 New state    203 was old state    210
 New state    204 was old state    213
 New state    205 was old state    207
 New state    206 was old state    204
 New state    207 was old state    224
 New state    208 was old state    206
 New state    209 was old state    208
 New state    210 was old state    227
 New state    211 was old state    216
 New state    212 was old state    209
 New state    213 was old state    219
 New state    214 was old state    221
 New state    216 was old state    217
 New state    217 was old state    218
 New state    218 was old state    212
 New state    219 was old state    226
 New state    221 was old state    235
 New state    222 was old state    230
 New state    223 was old state    222
 New state    224 was old state    223
 New state    225 was old state    228
 New state    226 was old state    231
 New state    227 was old state    229
 New state    228 was old state    233
 New state    229 was old state    234
 New state    230 was old state    240
 New state    231 was old state    239
 New state    233 was old state    236
 New state    234 was old state    225
 New state    235 was old state    262
 New state    236 was old state    238
 New state    237 was old state    241
 New state    238 was old state    237
 New state    239 was old state    258
 New state    240 was old state    248
 New state    241 was old state    244
 New state    242 was old state    249
 New state    243 was old state    242
 New state    244 was old state    252
 New state    246 was old state    251
 New state    248 was old state    246
 New state    249 was old state    260
 New state    250 was old state    253
 New state    251 was old state    243
 New state    252 was old state    259
 New state    253 was old state    254
 New state    254 was old state    272
 New state    255 was old state    256
 New state    256 was old state    257
 New state    257 was old state    277
 New state    258 was old state    263
 New state    259 was old state    264
 New state    260 was old state    250
 New state    262 was old state    268
 New state    263 was old state    265
 New state    264 was old state    266
 New state    265 was old state    255
 New state    266 was old state    269
 New state    267 was old state    273
 New state    268 was old state    270
 New state    269 was old state    271
 New state    270 was old state    275
 New state    271 was old state    267
 New state    272 was old state    274
 New state    273 was old state    278
 New state    274 was old state    279
 New state    275 was old state    276
 New state    276 was old state    280
 New state    277 was old state    283
 New state    278 was old state    291
 New state    279 was old state    281
 New state    280 was old state    301
 New state    281 was old state    285
 New state    282 was old state    288
 New state    283 was old state    287
 New state    284 was old state    297
 New state    285 was old state    295
 New state    286 was old state    309
 New state    287 was old state    284
 New state    288 was old state    282
 New state    289 was old state    294
 New state    290 was old state    293
 New state    291 was old state    298
 New state    292 was old state    289
 New state    293 was old state    286
 New state    294 was old state    290
 New state    295 was old state    315
 New state    296 was old state    299
 New state    297 was old state    292
 New state    298 was old state    304
 New state    299 was old state    310
 New state    300 was old state    296
 New state    301 was old state    306
 New state    302 was old state    303
 New state    303 was old state    302
 New state    304 was old state    314
 New state    305 was old state    300
 New state    306 was old state    308
 New state    307 was old state    305
 New state    308 was old state    313
 New state    309 was old state    311
 New state    310 was old state    312
 New state    311 was old state    322
 New state    312 was old state    307
 New state    313 was old state    319
 New state    314 was old state    316
 New state    315 was old state    318
 New state    316 was old state    326
 New state    317 was old state    321
 New state    318 was old state    323
 New state    319 was old state    325
 New state    321 was old state    338
 New state    322 was old state    341
 New state    323 was old state    317
 New state    324 was old state    329
 New state    325 was old state    324
 New state    326 was old state    332
 New state    328 was old state    333
 New state    329 was old state    328
 New state    330 was old state    331
 New state    331 was old state    339
 New state    332 was old state    340
 New state    333 was old state    336
 New state    334 was old state    350
 New state    336 was old state    334
 New state    337 was old state    330
 New state    338 was old state    337
 New state    339 was old state    342
 New state    340 was old state    343
 New state    341 was old state    347
 New state    342 was old state    349
 New state    343 was old state    345
 New state    345 was old state    355
 New state    347 was old state    357
 New state    348 was old state    354
 New state    349 was old state    353
 New state    350 was old state    348
 New state    351 was old state    363
 New state    352 was old state    351
 New state    353 was old state    352
 New state    354 was old state    356
 New state    355 was old state    366
 New state    356 was old state    368
 New state    357 was old state    364
 New state    358 was old state    359
 New state    359 was old state    367
 New state    360 was old state    358
 New state    361 was old state    365
 New state    362 was old state    361
 New state    363 was old state    360
 New state    364 was old state    369
 New state    365 was old state    373
 New state    366 was old state    375
 New state    367 was old state    372
 New state    368 was old state    380
 New state    369 was old state    381
 New state    371 was old state    379
 New state    372 was old state    382
 New state    373 was old state    362
 New state    375 was old state    402
 New state    376 was old state    383
 New state    377 was old state    378
 New state    378 was old state    377
 New state    379 was old state    387
 New state    380 was old state    376
 New state    381 was old state    371
 New state    382 was old state    393
 New state    383 was old state    388
 New state    384 was old state    386
 New state    385 was old state    391
 New state    386 was old state    396
 New state    387 was old state    390
 New state    388 was old state    392
 New state    390 was old state    397
 New state    391 was old state    384
 New state    392 was old state    394
 New state    393 was old state    433
 New state    394 was old state    385
 New state    395 was old state    400
 New state    396 was old state    395
 New state    397 was old state    405
 New state    398 was old state    401
 New state    399 was old state    407
 New state    400 was old state    403
 New state    401 was old state    409
 New state    402 was old state    420
 New state    403 was old state    399
 New state    404 was old state    398
 New state    405 was old state    404
 New state    406 was old state    412
 New state    407 was old state    417
 New state    408 was old state    406
 New state    409 was old state    411
 New state    410 was old state    414
 New state    411 was old state    419
 New state    412 was old state    423
 New state    413 was old state    410
 New state    414 was old state    408
 New state    415 was old state    421
 New state    416 was old state    432
 New state    417 was old state    418
 New state    418 was old state    416
 New state    419 was old state    413
 New state    420 was old state    422
 New state    421 was old state    415
 New state    422 was old state    437
 New state    423 was old state    431
 New state    424 was old state    428
 New state    426 was old state    436
 New state    427 was old state    440
 New state    428 was old state    446
 New state    429 was old state    427
 New state    430 was old state    435
 New state    431 was old state    445
 New state    432 was old state    438
 New state    433 was old state    434
 New state    434 was old state    443
 New state    435 was old state    439
 New state    436 was old state    430
 New state    437 was old state    424
 New state    438 was old state    449
 New state    439 was old state    448
 New state    440 was old state    429
 New state    441 was old state    450
 New state    442 was old state    452
 New state    443 was old state    453
 New state    444 was old state    442
 New state    445 was old state    444
 New state    446 was old state    426
 New state    447 was old state    467
 New state    448 was old state    441
 New state    449 was old state    447
 New state    450 was old state    455
 New state    451 was old state    456
 New state    452 was old state    457
 New state    453 was old state    451
 New state    454 was old state    465
 New state    455 was old state    460
 New state    456 was old state    461
 New state    457 was old state    473
 New state    458 was old state    466
 New state    459 was old state    454
 New state    460 was old state    471
 New state    461 was old state    468
 New state    463 was old state    459
 New state    464 was old state    470
 New state    465 was old state    464
 New state    466 was old state    472
 New state    467 was old state    458
 New state    468 was old state    469
 New state    469 was old state    463
 New state    470 was old state    480
 New state    471 was old state    479
 New state    472 was old state    476
 New state    473 was old state    477
 New state    474 was old state    482
 New state    475 was old state    483
 New state    476 was old state    474
 New state    477 was old state    484
 New state    479 was old state    496
 New state    480 was old state    485
 New state    481 was old state    492
 New state    482 was old state    490
 New state    483 was old state    491
 New state    484 was old state    487
 New state    485 was old state    481
 New state    486 was old state    475
 New state    487 was old state    488
 New state    488 was old state    486
 New state    489 was old state    498
 New state    490 was old state    495
 New state    491 was old state    489
 New state    492 was old state    505
 New state    493 was old state    500
 New state    494 was old state    501
 New state    495 was old state    494
 New state    496 was old state    512
 New state    497 was old state    502
 New state    498 was old state    497
 New state    499 was old state    515
 New state    500 was old state    493
 New state    501 was old state    526
 New state    502 was old state    503
 New state    503 was old state    506
 New state    504 was old state    507
 New state    505 was old state    499
 New state    506 was old state    504
 New state    507 was old state    509
 New state    508 was old state    511
 New state    509 was old state    517
 New state    510 was old state    520
 New state    511 was old state    513
 New state    512 was old state    510
 New state    513 was old state    516
 New state    514 was old state    524
 New state    515 was old state    508
 New state    516 was old state    514
 New state    517 was old state    527
 New state    518 was old state    525
 New state    519 was old state    523
 New state    520 was old state    521
 New state    521 was old state    532
 New state    522 was old state    518
 New state    523 was old state    531
 New state    524 was old state    539
 New state    525 was old state    522
 New state    526 was old state    519
 New state    527 was old state    533
 New state    528 was old state    540
 New state    530 was old state    535
 New state    531 was old state    534
 New state    532 was old state    528
 New state    533 was old state    538
 New state    534 was old state    530
 New state    535 was old state    541
 New state    536 was old state    542
 New state    537 was old state    536
 New state    538 was old state    544
 New state    539 was old state    547
 New state    540 was old state    546
 New state    541 was old state    548
 New state    542 was old state    555
 New state    543 was old state    537
 New state    544 was old state    549
 New state    545 was old state    556
 New state    546 was old state    554
 New state    547 was old state    560
 New state    548 was old state    553
 New state    549 was old state    562
 New state    550 was old state    545
 New state    551 was old state    543
 New state    552 was old state    550
 New state    553 was old state    558
 New state    554 was old state    557
 New state    555 was old state    551
 New state    556 was old state    566
 New state    557 was old state    567
 New state    558 was old state    552
 New state    559 was old state    571
 New state    560 was old state    563
 New state    561 was old state    579
 New state    562 was old state    572
 New state    563 was old state    564
 New state    564 was old state    568
 New state    565 was old state    576
 New state    566 was old state    559
 New state    567 was old state    565
 New state    568 was old state    578
 New state    569 was old state    561
 New state    570 was old state    573
 New state    571 was old state    575
 New state    572 was old state    574
 New state    573 was old state    586
 New state    574 was old state    585
 New state    575 was old state    581
 New state    576 was old state    577
 New state    577 was old state    569
 New state    578 was old state    570
 New state    579 was old state    583
 New state    581 was old state    590
 New state    582 was old state    584
 New state    583 was old state    589
 New state    584 was old state    597
 New state    585 was old state    591
 New state    586 was old state    593
 New state    587 was old state    594
 New state    589 was old state    592
 New state    590 was old state    582
 New state    591 was old state    596
 New state    592 was old state    599
 New state    593 was old state    598
 New state    594 was old state    606
 New state    595 was old state    587
 New state    596 was old state    600
 New state    597 was old state    601
 New state    598 was old state    603
 New state    599 was old state    607
 New state    600 was old state    610
 New state    601 was old state    604
 New state    602 was old state    595
 New state    603 was old state    618
 New state    604 was old state    609
 New state    606 was old state    612
 New state    607 was old state    608
 New state    608 was old state    602
 New state    609 was old state    615
 New state    610 was old state    623
 New state    611 was old state    628
 New state    612 was old state    617
 New state    613 was old state    622
 New state    614 was old state    620
 New state    615 was old state    625
 New state    616 was old state    619
 New state    617 was old state    613
 New state    618 was old state    611
 New state    619 was old state    621
 New state    620 was old state    634
 New state    621 was old state    629
 New state    622 was old state    631
 New state    623 was old state    626
 New state    624 was old state    616
 New state    625 was old state    632
 New state    626 was old state    642
 New state    627 was old state    636
 New state    628 was old state    614
 New state    629 was old state    627
 New state    630 was old state    640
 New state    631 was old state    624
 New state    632 was old state    633
 New state    633 was old state    637
 New state    634 was old state    638
 New state    635 was old state    643
 New state    636 was old state    647
 New state    637 was old state    630
 New state    638 was old state    635
 New state    640 was old state    644
 New state    641 was old state    646
 New state    642 was old state    649
 New state    643 was old state    648
 New state    644 was old state    650
 New state    646 was old state    641
 No map to state    647
 New state    648 was old state    652
 New state    649 was old state    654
 New state    650 was old state    656
 New state    652 was old state    670
 New state    654 was old state    657
 New state    656 was old state    658
 New state    657 was old state    660
 New state    658 was old state    662
 New state    659 was old state    663
 New state    660 was old state    659
 New state    661 was old state    664
 New state    662 was old state    661
 New state    663 was old state    672
 New state    664 was old state    666
 New state    666 was old state    667
 New state    667 was old state    675
 New state    668 was old state    669
 New state    669 was old state    668
 New state    670 was old state    673
 New state    671 was old state    676
 New state    672 was old state    671
 New state    673 was old state    677
 New state    674 was old state    679
 New state    675 was old state    680
 New state    676 was old state    674
 New state    677 was old state    682
 New state    678 was old state    688
 No map to state    679
 New state    680 was old state    683
 New state    681 was old state    678
 New state    682 was old state    684
 New state    683 was old state    681
 New state    684 was old state    687
 New state    686 was old state    692
 New state    687 was old state    686
 New state    688 was old state    689
 New state    689 was old state    690
 New state    690 was old state    691
 New state    691 was old state    695
 New state    692 was old state    694
 New state    694 was old state    696
 New state    695 was old state    701
 New state    696 was old state    697
 New state    697 was old state    698
 New state    698 was old state    699
 New state    699 was old state    703
 New state    700 was old state    704
 New state    701 was old state    700
 New state    702 was old state    708
 New state    703 was old state    702
 New state    704 was old state    707
 No map to state    705
 New state    706 was old state    710
 New state    707 was old state    705
 New state    708 was old state    711
 New state    709 was old state    706
 New state    710 was old state    709
 New state    711 was old state    712
 New state    712 was old state    714
 New state    713 was old state    716
 New state    714 was old state    715
 New state    715 was old state    713
 New state    716 was old state    719
 New state    717 was old state    720
 New state    718 was old state    717
 New state    719 was old state    721
 New state    720 was old state    718
 New state    721 was old state    722
 New state    722 was old state    723
 New state    723 was old state    724
 New state    724 was old state    725
 New state    725 was old state    726
 New state    726 was old state    727
 No map to state    727
 New state    730 was old state    731
 New state    731 was old state    733
 New state    732 was old state    730
 New state    733 was old state    737
 New state    734 was old state    732
 New state    736 was old state    734
 New state    737 was old state    738
 New state    738 was old state    739
 New state    739 was old state    736
 New state    740 was old state    742
 New state    742 was old state    743
 New state    743 was old state    747
 New state    744 was old state    740
 New state    745 was old state    746
 New state    746 was old state    745
 New state    747 was old state    744
 New state    749 was old state    750
 New state    750 was old state    751
 New state    751 was old state    753
 New state    752 was old state    749
 New state    753 was old state    752
 New state    754 was old state    755
 New state    755 was old state    754
 New state    757 was old state    758
 New state    758 was old state    759
 New state    759 was old state    762
 New state    760 was old state    757
 New state    762 was old state    760
 New state    764 was old state    766
 New state    765 was old state    764
 New state    766 was old state    765
 New state    768 was old state    772
 New state    770 was old state    768
 New state    771 was old state    773
 New state    772 was old state    775
 New state    773 was old state    771
 New state    774 was old state    776
 New state    775 was old state    780
 New state    776 was old state    779
 New state    777 was old state    782
 New state    778 was old state    774
 New state    779 was old state    783
 New state    780 was old state    777
 New state    782 was old state    784
 New state    783 was old state    778
 New state    784 was old state    788
 New state    785 was old state    790
 New state    786 was old state    796
 New state    787 was old state    786
 New state    788 was old state    785
 New state    789 was old state    787
 New state    790 was old state    792
 New state    792 was old state    789
 New state    793 was old state    795
 New state    794 was old state    793
 New state    795 was old state    797
 New state    796 was old state    804
 New state    797 was old state    799
 New state    798 was old state    800
 New state    799 was old state    798
 New state    800 was old state    803
 New state    801 was old state    794
 New state    802 was old state    805
 New state    803 was old state    801
 New state    804 was old state    806
 New state    805 was old state    807
 New state    806 was old state    802
 New state    807 was old state    811
 New state    808 was old state    812
 New state    809 was old state    817
 New state    810 was old state    809
 New state    811 was old state    814
 New state    812 was old state    815
 New state    813 was old state    819
 New state    814 was old state    808
 New state    815 was old state    813
 New state    817 was old state    810
 New state    819 was old state    821
 New state    821 was old state    824
 New state    822 was old state    825
 New state    824 was old state    828
 New state    825 was old state    827
 New state    826 was old state    822
 New state    827 was old state    826
 New state    828 was old state    833
 New state    829 was old state    832
 New state    830 was old state    831
 New state    831 was old state    829
 New state    832 was old state    830
 New state    833 was old state    834
 New state    834 was old state    838
 New state    835 was old state    836
 New state    836 was old state    835
 No map to state    838
 New state    843 was old state    844
 New state    844 was old state    845
 New state    845 was old state    843
 New state    847 was old state    849
 New state    848 was old state    847
 New state    849 was old state    848
 New state    851 was old state    852
 New state    852 was old state    853
 New state    853 was old state    851
 New state    854 was old state    855
 New state    855 was old state    854
 New state    856 was old state    857
 New state    857 was old state    856
 New state    858 was old state    859
 New state    859 was old state    858
 New state    860 was old state    862
 New state    862 was old state    860
 New state    863 was old state    865
 New state    864 was old state    867
 New state    865 was old state    866
 New state    866 was old state    863
 New state    867 was old state    864
 New state    869 was old state    870
 New state    870 was old state    869
 New state    872 was old state    876
 New state    873 was old state    874
 New state    874 was old state    872
 New state    875 was old state    877
 New state    876 was old state    878
 New state    877 was old state    875
 New state    878 was old state    873
 New state    879 was old state    880
 New state    880 was old state    882
 New state    882 was old state    879
 New state    884 was old state    885
 New state    885 was old state    884
 New state    886 was old state    887
 New state    887 was old state    889
 New state    888 was old state    890
 New state    889 was old state    888
 New state    890 was old state    886
 New state    891 was old state    892
 New state    892 was old state    891
 New state    893 was old state    895
 New state    894 was old state    893
 New state    895 was old state    897
 New state    896 was old state    894
 New state    897 was old state    896
 New state    899 was old state    904
 New state    900 was old state    899
 New state    904 was old state    900
 New state    906 was old state    907
 New state    907 was old state    908
 New state    908 was old state    912
 New state    909 was old state    911
 New state    910 was old state    906
 New state    911 was old state    916
 New state    912 was old state    910
 New state    914 was old state    921
 New state    915 was old state    914
 New state    916 was old state    918
 New state    917 was old state    922
 New state    918 was old state    915
 New state    919 was old state    917
 New state    920 was old state    919
 New state    921 was old state    920
 New state    922 was old state    924
 New state    923 was old state    925
 New state    924 was old state    923
 New state    925 was old state    929
 New state    929 was old state    933
 New state    932 was old state    934
 New state    933 was old state    935
 New state    934 was old state    932
 New state    935 was old state    936
 New state    936 was old state    938
 New state    937 was old state    943
 New state    938 was old state    937
 New state    939 was old state    941
 New state    940 was old state    942
 New state    941 was old state    939
 New state    942 was old state    947
 New state    943 was old state    953
 New state    944 was old state    940
 New state    946 was old state    948
 New state    947 was old state    946
 New state    948 was old state    951
 New state    949 was old state    944
 New state    950 was old state    952
 New state    951 was old state    950
 New state    952 was old state    949
 New state    953 was old state    956
 New state    955 was old state    960
 New state    956 was old state    955
 New state    957 was old state    961
 New state    958 was old state    957
 New state    960 was old state    958
 New state    961 was old state    965
 New state    962 was old state    967
 New state    963 was old state    968
 New state    964 was old state    963
 New state    965 was old state    962
 New state    966 was old state    964
 New state    967 was old state    970
 New state    968 was old state    966
 New state    969 was old state    971
 New state    970 was old state    976
 New state    971 was old state    974
 New state    972 was old state    975
 New state    974 was old state    969
 New state    975 was old state    981
 New state    976 was old state    978
 New state    977 was old state    972
 New state    978 was old state    977
 New state    980 was old state    982
 New state    981 was old state    984
 New state    982 was old state    980
 New state    984 was old state    986
 New state    986 was old state    992
 New state    988 was old state    989
 New state    989 was old state    996
 New state    990 was old state    988
 New state    991 was old state    995
 New state    992 was old state    990
 New state    993 was old state    991
 New state    994 was old state    993
 New state    995 was old state   1000
 New state    996 was old state    999
 New state    997 was old state    998
 New state    998 was old state    994
 New state    999 was old state    997
 New state   1000 was old state   1003
 New state   1002 was old state   1007
 New state   1003 was old state   1002
 New state   1007 was old state   1010
 New state   1010 was old state   1012
 New state   1011 was old state   1014
 New state   1012 was old state   1013
 New state   1013 was old state   1024
 New state   1014 was old state   1011
 New state   1020 was old state   1021
 New state   1021 was old state   1020
 New state   1023 was old state   1026
 New state   1024 was old state   1025
 New state   1025 was old state   1023
 New state   1026 was old state   1029
 New state   1027 was old state   1030
 New state   1028 was old state   1027
 New state   1029 was old state   1028
 New state   1030 was old state   1032
 New state   1031 was old state   1033
 New state   1032 was old state   1034
 New state   1033 was old state   1031
 New state   1034 was old state   1037
 New state   1035 was old state   1036
 New state   1036 was old state   1035
 New state   1037 was old state   1039
 New state   1038 was old state   1041
 New state   1039 was old state   1038
 New state   1040 was old state   1044
 New state   1041 was old state   1050
 New state   1043 was old state   1040
 New state   1044 was old state   1043
 New state   1045 was old state   1048
 New state   1046 was old state   1045
 New state   1048 was old state   1046
 New state   1050 was old state   1052
 New state   1052 was old state   1066
 New state   1053 was old state   1054
 New state   1054 was old state   1053
 New state   1055 was old state   1061
 New state   1056 was old state   1060
 New state   1057 was old state   1059
 New state   1058 was old state   1056
 New state   1059 was old state   1063
 New state   1060 was old state   1057
 New state   1061 was old state   1058
 New state   1062 was old state   1064
 New state   1063 was old state   1062
 New state   1064 was old state   1067
 New state   1065 was old state   1069
 New state   1066 was old state   1065
 New state   1067 was old state   1070
 New state   1069 was old state   1071
 New state   1070 was old state   1076
 New state   1071 was old state   1072
 New state   1072 was old state   1086
 New state   1073 was old state   1080
 New state   1075 was old state   1073
 New state   1076 was old state   1077
 New state   1077 was old state   1075
 New state   1080 was old state   1081
 New state   1081 was old state   1082
 New state   1082 was old state   1083
 New state   1083 was old state   1087
 New state   1084 was old state   1085
 No map to state   1085
 New state   1086 was old state   1084
 New state   1087 was old state   1093
 New state   1090 was old state   1094
 New state   1091 was old state   1090
 New state   1092 was old state   1091
 New state   1093 was old state   1095
 New state   1094 was old state   1096
 New state   1095 was old state   1092
 New state   1096 was old state   1098
 New state   1097 was old state   1099
 New state   1098 was old state   1097
 New state   1099 was old state   1100
 New state   1100 was old state   1102
 New state   1101 was old state   1103
 New state   1102 was old state   1101
 New state   1103 was old state   1104
 New state   1104 was old state   1105
 New state   1105 was old state   1109
 New state   1109 was old state   1112
 New state   1111 was old state   1116
 New state   1112 was old state   1114
 New state   1113 was old state   1111
 New state   1114 was old state   1113
 New state   1116 was old state   1124
 New state   1118 was old state   1120
 New state   1119 was old state   1123
 New state   1120 was old state   1127
 New state   1121 was old state   1119
 New state   1122 was old state   1118
 New state   1123 was old state   1122
 New state   1124 was old state   1125
 New state   1125 was old state   1129
 New state   1126 was old state   1130
 New state   1127 was old state   1128
 New state   1128 was old state   1133
 New state   1129 was old state   1126
 New state   1130 was old state   1132
 New state   1131 was old state   1121
 New state   1132 was old state   1139
 New state   1133 was old state   1134
 New state   1134 was old state   1136
 New state   1135 was old state   1131
 New state   1136 was old state   1135
 New state   1137 was old state   1140
 New state   1138 was old state   1144
 New state   1139 was old state   1137
 New state   1140 was old state   1138
 New state   1141 was old state   1145
 New state   1143 was old state   1141
 New state   1144 was old state   1143
 New state   1145 was old state   1148
 New state   1146 was old state   1150
 New state   1147 was old state   1149
 New state   1148 was old state   1146
 New state   1149 was old state   1151
 New state   1150 was old state   1152
 New state   1151 was old state   1155
 New state   1152 was old state   1147
 New state   1153 was old state   1156
 New state   1154 was old state   1153
 New state   1155 was old state   1154
 New state   1156 was old state   1157
 New state   1157 was old state   1160
 New state   1158 was old state   1161
 New state   1159 was old state   1158
 New state   1160 was old state   1163
 New state   1161 was old state   1159
 New state   1162 was old state   1170
 New state   1163 was old state   1164
 New state   1164 was old state   1169
 New state   1165 was old state   1168
 New state   1166 was old state   1162
 New state   1167 was old state   1166
 New state   1168 was old state   1167
 New state   1169 was old state   1165
 New state   1170 was old state   1175
 New state   1171 was old state   1172
 No map to state   1172
 New state   1173 was old state   1171
 New state   1174 was old state   1173
 New state   1175 was old state   1176
 New state   1176 was old state   1177
 New state   1177 was old state   1179
 New state   1178 was old state   1174
 New state   1179 was old state   1180
 New state   1180 was old state   1182
 New state   1181 was old state   1185
 New state   1182 was old state   1178
 New state   1183 was old state   1181
 New state   1184 was old state   1187
 New state   1185 was old state   1183
 New state   1187 was old state   1184
 New state   1188 was old state   1189
 New state   1189 was old state   1188
 New state   1190 was old state   1191
 New state   1191 was old state   1194
 New state   1192 was old state   1190
 New state   1193 was old state   1192
 New state   1194 was old state   1193
 New state   1198 was old state   1200
 New state   1200 was old state   1201
 New state   1201 was old state   1198
 New state   1202 was old state   1203
 New state   1203 was old state   1202
 New state   1206 was old state   1209
 New state   1207 was old state   1210
 New state   1209 was old state   1207
 New state   1210 was old state   1211
 New state   1211 was old state   1213
 New state   1212 was old state   1214
 New state   1213 was old state   1206
 New state   1214 was old state   1219
 New state   1215 was old state   1212
 New state   1218 was old state   1215
 New state   1219 was old state   1218
 New state   1220 was old state   1221
 New state   1221 was old state   1220
 New state   1228 was old state   1230
 New state   1229 was old state   1228
 New state   1230 was old state   1229
 New state   1231 was old state   1232
 New state   1232 was old state   1231
 New state   1235 was old state   1239
 New state   1236 was old state   1235
 New state   1237 was old state   1238
 New state   1238 was old state   1236
 New state   1239 was old state   1237
 New state   1240 was old state   1241
 New state   1241 was old state   1240
 New state   1246 was old state   1248
 New state   1248 was old state   1246
 New state   1256 was old state   1259
 New state   1258 was old state   1256
 New state   1259 was old state   1258
 New state   1260 was old state   1261
 New state   1261 was old state   1262
 New state   1262 was old state   1263
 New state   1263 was old state   1265
 New state   1264 was old state   1260
 New state   1265 was old state   1266
 New state   1266 was old state   1264
 New state   1269 was old state   1270
 New state   1270 was old state   1269
 New state   1272 was old state   1275
 New state   1273 was old state   1274
 New state   1274 was old state   1272
 New state   1275 was old state   1273
 New state   1277 was old state   1278
 New state   1278 was old state   1277
 New state   1279 was old state   1280
 New state   1280 was old state   1281
 New state   1281 was old state   1279
 New state   1282 was old state   1283
 New state   1283 was old state   1282
 New state   1285 was old state   1286
 New state   1286 was old state   1285
 New state   1288 was old state   1290
 New state   1290 was old state   1288
 New state   1295 was old state   1296
 New state   1296 was old state   1295
 New state   1301 was old state   1302
 New state   1302 was old state   1303
 New state   1303 was old state   1301
 New state   1307 was old state   1308
 New state   1308 was old state   1307
 New state   1311 was old state   1312
 New state   1312 was old state   1311
 New state   1313 was old state   1314
 New state   1314 was old state   1316
 New state   1315 was old state   1313
 New state   1316 was old state   1315
 New state   1321 was old state   1322
 New state   1322 was old state   1321
 New state   1324 was old state   1325
 New state   1325 was old state   1324
 New state   1328 was old state   1333
 New state   1329 was old state   1328
 New state   1330 was old state   1331
 New state   1331 was old state   1332
 New state   1332 was old state   1330
 New state   1333 was old state   1335
 New state   1334 was old state   1329
 New state   1335 was old state   1334
 New state   1336 was old state   1337
 New state   1337 was old state   1336
 New state   1338 was old state   1340
 New state   1339 was old state   1342
 New state   1340 was old state   1339
 New state   1341 was old state   1338
 New state   1342 was old state   1344
 New state   1344 was old state   1341
 New state   1345 was old state   1348
 New state   1346 was old state   1345
 New state   1347 was old state   1346
 New state   1348 was old state   1347
 New state   1349 was old state   1350
 New state   1350 was old state   1349
 New state   1351 was old state   1352
 New state   1352 was old state   1351
 New state   1356 was old state   1357
 New state   1357 was old state   1363
 New state   1358 was old state   1356
 New state   1359 was old state   1358
 New state   1361 was old state   1359
 New state   1362 was old state   1361
 New state   1363 was old state   1362
 New state   1365 was old state   1367
 New state   1366 was old state   1365
 New state   1367 was old state   1366
 New state   1369 was old state   1372
 New state   1371 was old state   1369
 New state   1372 was old state   1373
 New state   1373 was old state   1371
 New state   1374 was old state   1376
 New state   1375 was old state   1374
 New state   1376 was old state   1375
 New state   1381 was old state   1382
 New state   1382 was old state   1381
 New state   1383 was old state   1384
 New state   1384 was old state   1383
 New state   1389 was old state   1390
 New state   1390 was old state   1389
 New state   1393 was old state   1394
 New state   1394 was old state   1397
 New state   1396 was old state   1393
 New state   1397 was old state   1398
 New state   1398 was old state   1396
 New state   1400 was old state   1402
 New state   1401 was old state   1400
 New state   1402 was old state   1403
 New state   1403 was old state   1404
 New state   1404 was old state   1401
 New state   1405 was old state   1407
 New state   1406 was old state   1405
 New state   1407 was old state   1406
 New state   1408 was old state   1412
 New state   1409 was old state   1408
 New state   1412 was old state   1409
 New state   1416 was old state   1417
 New state   1417 was old state   1416
 New state   1418 was old state   1419
 New state   1419 was old state   1420
 New state   1420 was old state   1418
 New state   1424 was old state   1425
 New state   1425 was old state   1426
 New state   1426 was old state   1424
 New state   1427 was old state   1428
 New state   1428 was old state   1430
 New state   1429 was old state   1427
 New state   1430 was old state   1429
 New state   1431 was old state   1435
 New state   1432 was old state   1431
 New state   1433 was old state   1432
 New state   1434 was old state   1433
 New state   1435 was old state   1442
 New state   1436 was old state   1434
 New state   1438 was old state   1440
 New state   1439 was old state   1436
 New state   1440 was old state   1438
 New state   1441 was old state   1439
 New state   1442 was old state   1443
 New state   1443 was old state   1441
 New state   1444 was old state   1445
 New state   1445 was old state   1444
 New state   1446 was old state   1448
 New state   1447 was old state   1446
 New state   1448 was old state   1447
 New state   1450 was old state   1453
 New state   1451 was old state   1450
 New state   1453 was old state   1451
 New state   1454 was old state   1457
 New state   1455 was old state   1454
 New state   1457 was old state   1455
 New state   1459 was old state   1460
 New state   1460 was old state   1459
 New state   1462 was old state   1464
 New state   1463 was old state   1465
 New state   1464 was old state   1467
 New state   1465 was old state   1462
 New state   1466 was old state   1468
 New state   1467 was old state   1463
 New state   1468 was old state   1466
 New state   1470 was old state   1473
 New state   1471 was old state   1474
 New state   1472 was old state   1470
 New state   1473 was old state   1471
 New state   1474 was old state   1472
 New state   1475 was old state   1478
 New state   1476 was old state   1475
 New state   1478 was old state   1476
 New state   1479 was old state   1482
 New state   1480 was old state   1479
 New state   1481 was old state   1480
 New state   1482 was old state   1481
 New state   1486 was old state   1487
 New state   1487 was old state   1486
 New state   1492 was old state   1495
 New state   1493 was old state   1492
 New state   1495 was old state   1493
 New state   1496 was old state   1497
 New state   1497 was old state   1501
 New state   1498 was old state   1496
 New state   1500 was old state   1506
 New state   1501 was old state   1498
 New state   1502 was old state   1500
 New state   1505 was old state   1502
 New state   1506 was old state   1505
 New state   1507 was old state   1509
 New state   1508 was old state   1507
 New state   1509 was old state   1508
 New state   1510 was old state   1514
 New state   1511 was old state   1510
 New state   1512 was old state   1511
 New state   1513 was old state   1512
 New state   1514 was old state   1515
 New state   1515 was old state   1513
 New state   1523 was old state   1524
 New state   1524 was old state   1523
 New state   1528 was old state   1529
 New state   1529 was old state   1530
 New state   1530 was old state   1528
 New state   1531 was old state   1532
 New state   1532 was old state   1533
 New state   1533 was old state   1531
 Excitation Energies [eV] at current iteration:
 Root      1 :     6.994369788089745
 Root      2 :     8.164812649536984
 Root      3 :     8.480591478031780
 Root      4 :     8.563419018692025
 Root      5 :     8.620153680826576
 Root      6 :     9.422437010050812
 Root      7 :     9.497091123596984
 Root      8 :     9.647570775561164
 Root      9 :     9.709058076795705
 Root     10 :     9.903030591993604
 Root     11 :     9.937958202282264
 Root     12 :    10.056553259543580
 Root     13 :    10.263925507854520
 Root     14 :    10.316465038131580
 Root     15 :    10.494298699979580
 Root     16 :    10.575158583889640
 Root     17 :    10.727577948724330
 Root     18 :    10.864466554981280
 Root     19 :    10.884235644817130
 Root     20 :    11.045553254168820
 Root     21 :    11.152412382757790
 Root     22 :    11.243356304917680
 Root     23 :    11.305057611054430
 Root     24 :    11.328298434232820
 Root     25 :    11.438448970389760
 Root     26 :    11.551416706520710
 Root     27 :    11.636140345371990
 Root     28 :    11.694435088931900
[...]
              1481          1482          1483          1484          1485 
      1  -0.147962D+03 -0.147938D+03 -0.147931D+03 -0.147908D+03 -0.147892D+03
      2   0.267062D-01 -0.131386D-01 -0.310643D-01  0.139472D-01  0.551240D-02
      3   0.513645D-02 -0.428260D-02  0.139935D-01  0.341164D-01  0.141513D-01
      4   0.771121D-03  0.153982D-01  0.112995D-01  0.288107D-01 -0.137376D-01
      5  -0.209109D+00  0.909293D-01  0.233974D+00 -0.990205D-01 -0.375631D-01
      6  -0.268525D-01  0.434752D-01 -0.112056D+00 -0.260881D+00 -0.106594D+00
      7  -0.179641D-01 -0.120038D+00 -0.782009D-01 -0.216029D+00  0.101873D+00
      8  -0.602162D-02  0.619943D-01  0.249882D-01  0.464652D-01 -0.610937D-01
      9   0.692445D-01  0.234507D+00  0.142993D+00  0.507996D+00 -0.217636D+00
     10  -0.150447D+00  0.142245D+00 -0.126528D+00 -0.620190D+00 -0.288240D+00
     11  -0.951429D+00  0.356319D+00  0.104982D+01 -0.473817D+00 -0.263083D+00
     12  -0.421941D-02 -0.683257D-01  0.119724D+00  0.271267D+00  0.131237D+00
     13   0.209478D-01  0.185851D-01  0.769944D-01  0.108024D+00 -0.203884D-01
     14   0.244773D-01  0.699101D-01 -0.378333D+00 -0.562205D+00 -0.203784D+00
     15   0.460466D-02 -0.259585D+00 -0.212721D+00 -0.504900D+00  0.236146D+00
     16   0.564782D-01  0.638399D-01 -0.279847D-01  0.133505D+00 -0.431451D-01
              1486          1487          1488          1489          1490 
      1  -0.147891D+03 -0.147887D+03 -0.147868D+03 -0.147857D+03 -0.147816D+03
      2  -0.688499D-02  0.213063D-01 -0.240487D-01  0.663147D-02 -0.116818D-01
      3  -0.135516D-01  0.573062D-02 -0.931928D-03 -0.188897D-01 -0.586906D-02
      4  -0.213735D-01  0.832725D-02  0.470184D-02 -0.235920D-01 -0.527159D-02
      5   0.545470D-01 -0.164425D+00  0.190638D+00 -0.430716D-01  0.790879D-01
      6   0.105748D+00 -0.384760D-01  0.177920D-02  0.142986D+00  0.407674D-01
      7   0.160351D+00 -0.682056D-01 -0.303307D-01  0.170753D+00  0.415400D-01
      8  -0.562830D-01  0.217508D-01  0.322746D-01 -0.451721D-01 -0.484102D-02
      9  -0.375190D+00  0.183414D+00  0.572932D-01 -0.379882D+00 -0.985605D-01
     10   0.284159D+00 -0.147456D+00  0.988254D-01  0.315393D+00  0.124347D+00
     11   0.252951D+00 -0.766279D+00  0.889643D+00 -0.156364D+00  0.408809D+00
     12  -0.136023D+00  0.433285D-01  0.156380D-01 -0.171683D+00 -0.407384D-01
     13  -0.653084D-01  0.423949D-01  0.160251D-01 -0.866134D-01 -0.936994D-02
     14   0.253691D+00  0.123244D-01 -0.785817D-01  0.411743D+00  0.347444D-01
     15   0.368858D+00 -0.121566D+00 -0.124642D+00  0.413463D+00  0.744963D-01
     16  -0.118172D+00  0.639854D-01 -0.254804D-01 -0.101457D+00 -0.256844D-01
              1491          1492          1493          1494          1495 
      1  -0.147794D+03 -0.147763D+03 -0.147747D+03 -0.147740D+03 -0.147726D+03
      2  -0.133111D-02  0.712090D-02  0.128414D-01  0.431129D-01  0.135262D-02
      3   0.456209D-02  0.313544D-02  0.159242D-01  0.573280D-01 -0.513981D-02
      4  -0.158672D-03 -0.125522D-01  0.127293D-01  0.528761D-01  0.371767D-02
      5   0.164041D-01 -0.696452D-01 -0.101194D+00 -0.334956D+00 -0.225524D-01
      6  -0.357375D-01 -0.285107D-01 -0.119675D+00 -0.436077D+00  0.525992D-01
      7  -0.623157D-02  0.113931D+00 -0.965088D-01 -0.400908D+00 -0.312807D-01
      8   0.966113D-03 -0.594877D-01  0.195921D-01  0.107354D+00  0.196128D-01
      9   0.162767D-01 -0.251013D+00  0.221606D+00  0.101290D+01  0.587351D-01
     10  -0.798827D-01 -0.110599D+00 -0.312509D+00 -0.120549D+01  0.937363D-01
     11   0.928673D-01 -0.329292D+00 -0.451082D+00 -0.173085D+01 -0.848726D-01
     12   0.342778D-01  0.829638D-01  0.117226D+00  0.459316D+00 -0.347444D-01
     13   0.336920D-02 -0.328714D-01  0.556046D-01  0.263614D+00 -0.310898D-01
     14  -0.985270D-01 -0.455046D-01 -0.245725D+00 -0.938688D+00  0.860135D-01
     15  -0.107800D-01  0.304312D+00 -0.193619D+00 -0.903981D+00 -0.342512D-01
     16   0.923620D-02 -0.622532D-01  0.819182D-01  0.345792D+00  0.252578D-01
              1496          1497          1498          1499          1500 
      1  -0.147690D+03 -0.147655D+03 -0.147644D+03 -0.147593D+03 -0.147581D+03
      2  -0.248140D-02  0.427069D-02  0.133636D-01  0.314019D-03  0.891304D-02
      3  -0.191544D-01  0.331687D-03  0.245266D-01  0.312756D-02  0.106655D-01
      4   0.202432D-01 -0.193096D-02  0.218424D-01 -0.428694D-02  0.903967D-02
      5   0.132497D-01 -0.373832D-01 -0.993042D-01 -0.214893D-01 -0.707916D-01
      6   0.152947D+00 -0.925564D-02 -0.186852D+00 -0.680832D-02 -0.866850D-01
      7  -0.156055D+00  0.953606D-02 -0.166110D+00  0.316819D-01 -0.738316D-01
      8   0.116403D+00 -0.136289D-01  0.501076D-01  0.233461D-01  0.184689D-01
      9   0.372829D+00 -0.198264D-01  0.406421D+00 -0.213883D-01  0.176862D+00
     10   0.373757D+00 -0.192263D-01 -0.460933D+00  0.149902D-01 -0.220938D+00
     11   0.138842D+00 -0.154423D+00 -0.577763D+00  0.113235D-01 -0.324489D+00
     12  -0.289992D+00 -0.171171D+00  0.212333D+00  0.681517D-01  0.585931D-01
     13   0.834502D-01  0.120876D+00  0.667258D-01 -0.821779D-01  0.652616D-01
     14   0.474432D+00 -0.385576D-01 -0.363277D+00 -0.155132D+00 -0.189929D+00
     15  -0.465867D+00  0.123474D+00 -0.393464D+00  0.828613D-01 -0.145491D+00
     16   0.199585D+00 -0.194721D-01  0.120732D+00 -0.195274D-02  0.530706D-01
              1501          1502          1503          1504          1505 
      1  -0.147580D+03 -0.147566D+03 -0.147551D+03 -0.147513D+03 -0.147503D+03
      2   0.243261D-03  0.237953D-01 -0.172891D-01  0.486414D-01  0.111007D-01
      3   0.492989D-02 -0.117584D-01  0.436957D-01 -0.439037D-01  0.242338D-02
      4   0.396359D-02  0.201699D-01 -0.370169D-02  0.250658D-01  0.711634D-02
      5  -0.290753D-02 -0.186230D+00  0.118399D+00 -0.351251D+00 -0.860019D-01
      6  -0.332647D-01  0.891284D-01 -0.320763D+00  0.304901D+00 -0.244380D-01
      7  -0.308668D-01 -0.154169D+00  0.205754D-01 -0.174802D+00 -0.509305D-01
      8   0.681434D-02  0.621631D-01 -0.782576D-01  0.145730D+00  0.235851D-01
      9   0.840503D-01  0.357673D+00 -0.877367D-01  0.467599D+00  0.145462D+00
     10  -0.621843D-01  0.140237D+00 -0.613409D+00  0.590713D+00 -0.711163D-01
     11   0.224479D-01 -0.865142D+00  0.687182D+00 -0.181830D+01 -0.234351D+00
     12   0.847825D-02 -0.965882D-01  0.228411D+00 -0.362754D+00 -0.153677D-01
     13   0.520234D-02  0.556188D-01 -0.771228D-02  0.162491D+00  0.328344D-01
     14  -0.618848D-01  0.288401D+00 -0.816341D+00  0.103225D+01  0.218803D-01
     15  -0.812793D-01 -0.270608D+00  0.156287D-01 -0.313924D+00 -0.107744D+00
     16   0.423042D-01  0.393934D-01  0.646926D-01 -0.880620D-01  0.102287D-01
              1506          1507          1508          1509          1510 
      1  -0.147485D+03 -0.147469D+03 -0.147456D+03 -0.147440D+03 -0.147417D+03
      2   0.220429D-01 -0.117164D-01  0.505539D-01  0.104014D-01 -0.459752D-02
      3  -0.355637D-01 -0.124035D-01 -0.329788D-01  0.518111D-02  0.753252D-02
      4   0.121136D-01  0.973109D-02 -0.110867D-01 -0.174058D-01 -0.139611D-02
      5  -0.152113D+00  0.917911D-01 -0.367800D+00 -0.692130D-01  0.316450D-01
      6   0.248618D+00  0.875033D-01  0.231327D+00 -0.375053D-01 -0.575894D-01
      7  -0.787933D-01 -0.553036D-01  0.872808D-01  0.127943D+00  0.139120D-01
      8   0.739235D-01  0.811298D-01  0.113540D-01 -0.612512D-01 -0.206911D-01
      9   0.194560D+00  0.169024D+00 -0.113508D+00 -0.262863D+00 -0.419820D-01
     10   0.462658D+00  0.251770D+00  0.351261D+00 -0.151963D+00 -0.108951D+00
     11  -0.839435D+00  0.401171D+00 -0.193352D+01 -0.355826D+00  0.240472D+00
     12  -0.249592D+00 -0.109665D+00 -0.217603D+00  0.411806D-01  0.860507D-01
     13   0.979834D-01  0.879634D-01 -0.236207D-01 -0.497503D-01 -0.291018D-02
     14   0.738355D+00  0.206829D+00  0.818398D+00 -0.634328D-01 -0.207934D+00
     15  -0.141862D+00 -0.240401D+00  0.328129D+00  0.347110D+00 -0.245012D-02
     16  -0.574803D-01 -0.116624D-02 -0.140969D+00 -0.154144D-01 -0.273167D-02
              1511          1512          1513          1514          1515 
      1  -0.147402D+03 -0.147368D+03 -0.147344D+03 -0.147341D+03 -0.147320D+03
      2  -0.163421D-01 -0.236749D-01 -0.993484D-02 -0.114641D-02 -0.321356D-01
      3  -0.273220D-01  0.537968D-02 -0.168203D-01  0.402539D-03  0.267025D-01
      4   0.394722D-01  0.125758D-01  0.253341D-01  0.792010D-02 -0.452292D-02
      5   0.127677D+00  0.171357D+00  0.679176D-01  0.304166D-02  0.223497D+00
      6   0.201118D+00 -0.444311D-01  0.126378D+00 -0.867193D-02 -0.179718D+00
      7  -0.285248D+00 -0.902224D-01 -0.187943D+00 -0.666090D-01  0.292798D-01
      8   0.161902D+00  0.345229D-01  0.906402D-01  0.258250D-01 -0.532958D-01
      9   0.629721D+00  0.172048D+00  0.382548D+00  0.138263D+00 -0.118133D+00
     10   0.490838D+00 -0.115698D-01  0.313794D+00  0.629160D-02 -0.322732D+00
     11   0.596737D+00  0.879142D+00  0.319646D+00  0.202082D-02  0.994430D+00
     12  -0.161492D+00  0.454573D-01 -0.101144D+00  0.353178D-01  0.117975D+00
     13   0.204816D+00  0.594700D-01  0.944490D-01  0.306879D-01 -0.567687D-01
     14   0.390411D+00 -0.202197D+00  0.255987D+00 -0.194017D-01 -0.505558D+00
     15  -0.744272D+00 -0.300095D+00 -0.440480D+00 -0.182370D+00  0.313245D-01
     16   0.583464D-02  0.434968D-01 -0.168727D-01  0.375254D-01  0.660172D-01
              1516          1517          1518          1519          1520 
      1  -0.147201D+03 -0.147176D+03 -0.147057D+03 -0.147011D+03 -0.146895D+03
      2   0.226601D-01 -0.120044D-01  0.113121D-01  0.139624D-01 -0.137023D-02
      3  -0.127736D-02  0.134975D-01 -0.535418D-02 -0.136755D-02  0.451230D-02
      4  -0.141895D-01  0.283559D-02 -0.293150D-02 -0.906643D-02 -0.248280D-02
      5  -0.165680D+00  0.900444D-01 -0.856244D-01 -0.133688D+00  0.208612D-01
      6   0.755375D-02 -0.885259D-01  0.427515D-01  0.123329D-01 -0.635610D-01
      7   0.105718D+00 -0.280177D-01  0.159251D-01  0.945801D-01  0.401988D-01
      8  -0.486008D-01 -0.641756D-02 -0.229200D-02 -0.378460D-01 -0.346017D-01
      9  -0.218904D+00  0.390347D-01 -0.260935D-01 -0.189224D+00 -0.103168D+00
     10  -0.320990D-01 -0.113845D+00  0.585767D-01 -0.853049D-02 -0.130238D+00
     11  -0.693192D+00  0.460225D+00 -0.243768D+00 -0.568844D+00  0.107516D+00
     12  -0.586676D-02  0.458418D-02 -0.322933D-01  0.289377D-01  0.111529D+00
     13  -0.973953D-01  0.318139D-02 -0.387416D-01 -0.361412D-01  0.279717D-01
     14   0.281518D-01 -0.160602D+00  0.894878D-01  0.502436D-01 -0.153127D+00
     15   0.297003D+00 -0.820567D-01  0.506503D-01  0.268783D+00  0.112343D+00
     16  -0.688913D-03  0.421739D-01  0.123081D-01 -0.816384D-01 -0.461267D-01
              1521          1522          1523          1524          1525 
      1  -0.132326D+03 -0.132302D+03 -0.132289D+03 -0.132264D+03 -0.132243D+03
      2   0.843527D-02 -0.286660D-02  0.498697D-02 -0.275992D-02 -0.556490D-02
      3   0.284711D-02 -0.655269D-03 -0.120323D-01 -0.373026D-02 -0.396043D-02
      4   0.221475D-02  0.120070D-01  0.963074D-05 -0.505871D-02 -0.222101D-02
      5  -0.112682D+00  0.326143D-01 -0.524642D-01  0.317828D-01  0.684171D-01
      6  -0.487460D-01  0.113761D-01  0.135030D+00  0.434464D-01  0.433750D-01
      7  -0.259223D-01 -0.135656D+00 -0.130831D-03  0.597515D-01  0.327593D-01
      8   0.461737D-02  0.509127D-01  0.517735D-02  0.726894D-01 -0.447392D-01
      9  -0.463390D-01 -0.292648D+00  0.219023D-02 -0.470670D-01  0.122762D+00
     10   0.575437D-01 -0.967039D-02 -0.324751D+00 -0.122908D-01 -0.347456D-01
     11   0.444952D+00 -0.134174D+00  0.270150D+00  0.792119D-01 -0.181806D+00
     12  -0.928608D-03 -0.538024D-02 -0.112705D+00  0.100598D+00  0.229613D-01
     13  -0.167129D-01  0.208463D-01 -0.204985D-01  0.240865D-01 -0.129819D-01
     14   0.126738D+00 -0.287842D-01 -0.293211D+00  0.721491D-01 -0.909535D-02
     15   0.546123D-01  0.295241D+00  0.597032D-03  0.615947D-01 -0.119078D+00
     16   0.953788D-02  0.751379D-01 -0.636337D-03  0.984622D-01 -0.601806D-01
              1526          1527          1528          1529          1530 
      1  -0.132230D+03 -0.132173D+03 -0.132162D+03 -0.132152D+03 -0.132134D+03
      2   0.243732D-02 -0.462908D-02 -0.521877D-02  0.269246D-02  0.218941D-02
      3   0.380782D-02 -0.321785D-02  0.570551D-02  0.286094D-02 -0.234993D-02
      4  -0.870148D-02  0.144191D-02 -0.119794D-02  0.432711D-02  0.226895D-02
      5  -0.319303D-01  0.657949D-01  0.494521D-01 -0.450562D-01 -0.233805D-01
      6  -0.456990D-01  0.321227D-01 -0.704640D-01 -0.397470D-01  0.339921D-01
      7   0.105996D+00 -0.227043D-01  0.973889D-02 -0.459140D-01 -0.261806D-01
      8   0.976388D-01  0.147119D-01  0.348971D-01 -0.504523D-01  0.250006D-02
      9  -0.849141D-02 -0.617669D-01 -0.121047D-01 -0.485888D-02 -0.491715D-01
     10   0.207314D-01 -0.128803D-01 -0.767378D-01  0.587011D-01 -0.487095D-01
     11  -0.893077D-01 -0.289858D+00  0.142365D-01 -0.581540D-01  0.907654D-01
     12  -0.118467D+00 -0.192932D-02 -0.214879D+00 -0.103243D+00 -0.163634D-02
     13   0.728666D-04 -0.223839D-01 -0.126771D-01 -0.223416D-01 -0.299685D-02
     14  -0.104408D+00 -0.258424D-01  0.343409D-01 -0.837726D-01 -0.638996D-01
     15   0.377225D-02  0.617436D-01  0.240367D-01 -0.644950D-02  0.507938D-01
     16   0.110925D+00  0.248256D-01  0.254723D-01 -0.679370D-01  0.753504D-02
              1531          1532          1533          1534          1535 
      1  -0.132087D+03 -0.132074D+03 -0.132072D+03 -0.132037D+03 -0.131966D+03
      2   0.334378D-02  0.262265D-02 -0.588465D-03  0.401707D-02 -0.175869D-02
      3  -0.399485D-03 -0.340717D-02 -0.259126D-02 -0.394166D-02 -0.532326D-03
      4   0.215489D-02  0.165024D-02  0.524084D-04 -0.481842D-02  0.366570D-03
      5  -0.385903D-01 -0.339624D-01  0.752721D-02 -0.473519D-01  0.233719D-01
      6  -0.606302D-03  0.413224D-01  0.388291D-01  0.419084D-01  0.108333D-01
      7  -0.347154D-01 -0.230777D-01 -0.390780D-02  0.580792D-01 -0.216658D-02
      8  -0.208953D-01 -0.137881D-01 -0.259740D-01  0.603980D-01  0.869149D-03
      9  -0.103048D-01 -0.232753D-01  0.310779D-01  0.952259D-02 -0.384714D-02
     10   0.603188D-01  0.343588D-01 -0.399484D-01  0.607516D-01 -0.261198D-01
     11  -0.125800D-01  0.480552D-01 -0.809561D-01 -0.257669D-01 -0.246171D+00
     12   0.130556D-01  0.130141D+00 -0.155685D-01  0.867683D-01 -0.170589D+00
     13   0.260030D-01  0.263115D-01 -0.538884D-01  0.601685D-01 -0.162935D+00
     14  -0.248672D-01 -0.109260D-01 -0.544328D-01 -0.348181D-01 -0.287329D-01
     15   0.140681D-02  0.194028D-01 -0.363998D-01 -0.177030D-01  0.515886D-02
     16  -0.297400D-01 -0.444666D-02 -0.337942D-01  0.742392D-01  0.251939D-02
              1536          1537          1538          1539          1540 
      1  -0.131892D+03 -0.131856D+03 -0.131763D+03 -0.131526D+03 -0.131494D+03
      2  -0.993316D-03 -0.241384D-03  0.241223D-02  0.549321D-04 -0.367481D-02
      3  -0.319270D-02 -0.146150D-03 -0.115398D-02 -0.429524D-03  0.232142D-02
      4   0.909257D-04  0.345486D-04 -0.412250D-04  0.327845D-04 -0.307730D-04
      5   0.203533D-01  0.109095D-01 -0.331310D-01  0.348120D-03  0.497924D-01
      6   0.325940D-01  0.852973D-02  0.618241D-02  0.747724D-02 -0.344994D-01
      7  -0.228800D-02  0.394416D-03 -0.731727D-04  0.383876D-03 -0.270139D-02
      8  -0.697678D-02 -0.632045D-03  0.228719D-03  0.103758D-02 -0.362105D-02
      9  -0.383553D-03  0.197104D-02 -0.331224D-02 -0.108355D-03  0.568073D-03
     10  -0.168911D-01 -0.225897D-01  0.369253D-01  0.145852D-01 -0.637806D-01
     11   0.798216D-01  0.943488D-01  0.904510D-01 -0.211165D-01  0.177306D+00
     12   0.179769D+00  0.126310D+00  0.114118D+00 -0.300632D-04  0.558864D-01
     13   0.135699D+00  0.129402D+00  0.111216D+00 -0.431156D-02  0.677511D-01
     14   0.227098D-01 -0.120192D-01 -0.615674D-03  0.419257D-02 -0.327384D-01
     15   0.645843D-02 -0.292325D-04  0.231595D-02 -0.137346D-02 -0.557655D-02
     16  -0.682790D-02 -0.307994D-03 -0.183986D-02 -0.798713D-03  0.260233D-02
              1541          1542          1543          1544          1545 
      1  -0.110859D+03 -0.110771D+03 -0.110644D+03 -0.110598D+03 -0.110576D+03
      2  -0.647048D-02  0.636578D-02 -0.324257D-02 -0.112797D-02  0.688028D-03
      3  -0.847375D-02  0.146275D-02  0.671002D-02  0.174075D-02 -0.388407D-02
      4  -0.859295D-02 -0.874095D-02 -0.297656D-02 -0.293253D-02  0.198248D-02
      5   0.139271D+00 -0.169862D+00  0.975090D-01  0.282033D-01 -0.398855D-02
      6   0.165266D+00 -0.208600D-01 -0.136439D+00 -0.285751D-01  0.880626D-01
      7   0.156292D+00  0.171897D+00  0.500212D-01  0.625885D-01 -0.417556D-01
      8  -0.418492D-01 -0.859659D-01 -0.494228D-01 -0.385201D-01  0.383783D-01
      9  -0.391053D+00 -0.364859D+00 -0.134097D+00 -0.154189D+00  0.978560D-01
     10   0.450826D+00 -0.129789D+00 -0.267744D+00 -0.493714D-01  0.208495D+00
     11   0.652281D+00 -0.875030D+00  0.458478D+00  0.116275D+00 -0.109197D-01
     12  -0.158666D+00 -0.545943D-01  0.132977D+00  0.115142D-01 -0.802152D-01
     13  -0.641451D-01 -0.140987D+00 -0.317569D-01 -0.414317D-01  0.344153D-01
     14   0.323118D+00  0.355997D-01 -0.382641D+00 -0.859602D-01  0.209675D+00
     15   0.334397D+00  0.435827D+00  0.907157D-01  0.146958D+00 -0.983246D-01
     16  -0.108924D+00 -0.821153D-01  0.747866D-03 -0.246406D-01  0.183870D-02
              1546          1547          1548          1549          1550 
      1  -0.110524D+03 -0.110502D+03 -0.110356D+03 -0.110206D+03 -0.110027D+03
      2   0.235250D-02  0.291027D-03 -0.234782D-02 -0.180096D-02  0.949633D-03
      3   0.473944D-03 -0.749233D-03  0.267687D-02  0.133926D-02 -0.430376D-03
      4   0.549970D-03  0.132777D-02 -0.327809D-03 -0.617003D-04  0.161589D-03
      5  -0.440898D-01 -0.894017D-02  0.327849D-01  0.194923D-01  0.231717D-02
      6   0.168999D-01  0.235146D-01 -0.469796D-01 -0.157703D-01  0.102264D-01
      7  -0.911749D-02 -0.429219D-01  0.136972D-01  0.788030D-02 -0.173778D-01
      8   0.779839D-02  0.280523D-01 -0.166811D-01 -0.718562D-02  0.103475D-01
      9   0.295962D-01  0.106223D+00 -0.388984D-01 -0.221643D-01  0.400053D-01
     10   0.192501D-01  0.508604D-01 -0.987817D-01 -0.244991D-01  0.244484D-01
     11  -0.240356D+00 -0.321676D-01  0.192828D+00  0.138206D+00 -0.194613D+00
     12  -0.435418D-01 -0.102446D-01  0.994183D-01  0.764034D-01 -0.215910D+00
     13  -0.232954D-01  0.292956D-01  0.480268D-01  0.645002D-01 -0.201731D+00
     14   0.715036D-01  0.608452D-01 -0.116604D+00 -0.360957D-01  0.208145D-01
     15  -0.110693D-01 -0.106337D+00  0.272369D-01  0.162349D-01 -0.419743D-01
     16   0.298731D-02  0.148632D-01  0.231173D-02 -0.210187D-02  0.752369D-02
 Unable to Open any file for archive entry.
 1\1\GINC-HEL18\SP\RwB97XD TD-FC\Gen\C2H6O1\RR\27-Feb-2022\0\\#P TD(Nst
 ates=10000) wB97XD/Gen SCF(maxcycles=100) Int(Grid=ultrafine)\\xGDB7_0
 0001_tier4.com\\0,1\C,0,-1.208422,-0.239069,-0.021917\C,0,0.083893,0.5
 53452,0.046734\O,0,1.233467,-0.256002,-0.105864\H,0,-2.071999,0.425136
 ,0.0517\H,0,-1.27067,-0.957756,0.799731\H,0,-1.270625,-0.78828,-0.9623
 27\H,0,0.13003,1.119197,0.986112\H,0,0.125952,1.277026,-0.768547\H,0,1
 .236751,-0.913605,0.591341\\Version=EM64L-G16RevC.01\State=1-A\HF=-155
 .057779\RMSD=2.325e-09\PG=C01 [X(C2H6O1)]\\@
 The archive entry for this job was punched.


 ALL MY ATTEMPTS TO ADAPT THE THEORETICAL FOUNDATIONS OF PHYSICS
 TO THESE NEW NOTIONS FAILED COMPLETELY. IT WAS AS IF THE GROUND HAD
 BEEN PULLED OUT FROM UNDER ONE WITH NO FIRM FOUNDATION TO BE SEEN ANYWHERE,
 UPON WHICH ONE COULD HAVE BUILT.  -- A.EINSTEIN
 Job cpu time:       0 days  2 hours  0 minutes 14.3 seconds.
 Elapsed time:       0 days  0 hours 15 minutes  4.4 seconds.
 File lengths (MBytes):  RWF=   3191 Int=      0 D2E=      0 Chk=    985 Scr=      1
 Normal termination of Gaussian 16 at Sun Feb 27 06:57:40 2022.
