 Entering Gaussian System, Link 0=g16
 Input=bigQM7w_TDwB97XD_def2TZVP_000018.com
 Output=bigQM7w_TDwB97XD_def2TZVP_000018.log
 Initial command:
 /home/rr/g16/l1.exe "/scratch/rr/PBS_7918671.helios/Gau-12875.inp" -scrdir="/scratch/rr/PBS_7918671.helios/"
 Entering Link 1 = /home/rr/g16/l1.exe PID=     12877.
  
 Copyright (c) 1988-2019, Gaussian, Inc.  All Rights Reserved.
  
 This is part of the Gaussian(R) 16 program.  It is based on
 the Gaussian(R) 09 system (copyright 2009, Gaussian, Inc.),
 the Gaussian(R) 03 system (copyright 2003, Gaussian, Inc.),
 the Gaussian(R) 98 system (copyright 1998, Gaussian, Inc.),
 the Gaussian(R) 94 system (copyright 1995, Gaussian, Inc.),
 the Gaussian 92(TM) system (copyright 1992, Gaussian, Inc.),
 the Gaussian 90(TM) system (copyright 1990, Gaussian, Inc.),
 the Gaussian 88(TM) system (copyright 1988, Gaussian, Inc.),
 the Gaussian 86(TM) system (copyright 1986, Carnegie Mellon
 University), and the Gaussian 82(TM) system (copyright 1983,
 Carnegie Mellon University). Gaussian is a federally registered
 trademark of Gaussian, Inc.
  
 This software contains proprietary and confidential information,
 including trade secrets, belonging to Gaussian, Inc.
  
 This software is provided under written license and may be
 used, copied, transmitted, or stored only in accord with that
 written license.
  
 The following legend is applicable only to US Government
 contracts under FAR:
  
                    RESTRICTED RIGHTS LEGEND
  
 Use, reproduction and disclosure by the US Government is
 subject to restrictions as set forth in subparagraphs (a)
 and (c) of the Commercial Computer Software - Restricted
 Rights clause in FAR 52.227-19.
  
 Gaussian, Inc.
 340 Quinnipiac St., Bldg. 40, Wallingford CT 06492
  
  
 ---------------------------------------------------------------
 Warning -- This program may not be used in any manner that
 competes with the business of Gaussian, Inc. or will provide
 assistance to any competitor of Gaussian, Inc.  The licensee
 of this program is prohibited from giving any competitor of
 Gaussian, Inc. access to this program.  By using this program,
 the user acknowledges that Gaussian, Inc. is engaged in the
 business of creating and licensing software in the field of
 computational chemistry and represents and warrants to the
 licensee that it is not a competitor of Gaussian, Inc. and that
 it will not use this program in any manner prohibited above.
 ---------------------------------------------------------------
  

 Cite this work as:
 Gaussian 16, Revision C.01,
 M. J. Frisch, G. W. Trucks, H. B. Schlegel, G. E. Scuseria, 
 M. A. Robb, J. R. Cheeseman, G. Scalmani, V. Barone, 
 G. A. Petersson, H. Nakatsuji, X. Li, M. Caricato, A. V. Marenich, 
 J. Bloino, B. G. Janesko, R. Gomperts, B. Mennucci, H. P. Hratchian, 
 J. V. Ortiz, A. F. Izmaylov, J. L. Sonnenberg, D. Williams-Young, 
 F. Ding, F. Lipparini, F. Egidi, J. Goings, B. Peng, A. Petrone, 
 T. Henderson, D. Ranasinghe, V. G. Zakrzewski, J. Gao, N. Rega, 
 G. Zheng, W. Liang, M. Hada, M. Ehara, K. Toyota, R. Fukuda, 
 J. Hasegawa, M. Ishida, T. Nakajima, Y. Honda, O. Kitao, H. Nakai, 
 T. Vreven, K. Throssell, J. A. Montgomery, Jr., J. E. Peralta, 
 F. Ogliaro, M. J. Bearpark, J. J. Heyd, E. N. Brothers, K. N. Kudin, 
 V. N. Staroverov, T. A. Keith, R. Kobayashi, J. Normand, 
 K. Raghavachari, A. P. Rendell, J. C. Burant, S. S. Iyengar, 
 J. Tomasi, M. Cossi, J. M. Millam, M. Klene, C. Adamo, R. Cammi, 
 J. W. Ochterski, R. L. Martin, K. Morokuma, O. Farkas, 
 J. B. Foresman, and D. J. Fox, Gaussian, Inc., Wallingford CT, 2019.
 
 ******************************************
 Gaussian 16:  EM64L-G16RevC.01  3-Jul-2019
                27-Feb-2022 
 ******************************************
 %mem=64gb
 %nproc=8
 Will use up to    8 processors via shared memory.
 ----------------------------------------------------------------------
 #P TD(Nstates=10000) wB97XD/Gen SCF(maxcycles=100) Int(Grid=ultrafine)
 ----------------------------------------------------------------------
 1/38=1,172=1/1;
 2/12=2,17=6,18=5,40=1/2;
 3/5=7,11=9,25=1,30=1,74=-58,75=-5/1,2,3,8;
 4//1;
 5/5=2,7=100,38=5/2;
 8/6=1,10=1,108=10000/1;
 9/41=10000,42=1,70=2/14;
 6/7=2,8=2,9=2,10=2/1;
 99/5=1,9=1/99;
 Leave Link    1 at Sun Feb 27 06:39:14 2022, MaxMem=  8589934592 cpu:               0.5 elap:               0.1
 (Enter /home/rr/g16/l101.exe)
 ---------------------
 xGDB7_00001_tier4.com
 ---------------------
 Symbolic Z-matrix:
 Charge =  0 Multiplicity = 1
 9                     0.        1.09881  -0.28912 
 6                     0.        0.        0.49994 
 9                     0.       -1.09881  -0.28912 
 1                    -0.91135   0.        1.10225 
 1                     0.91135   0.        1.10225 
 
 ITRead=  0  0  0  0  0
 MicOpt= -1 -1 -1 -1 -1
 NAtoms=      5 NQM=        5 NQMF=       0 NMMI=      0 NMMIF=      0
                NMic=       0 NMicF=      0.
                    Isotopes and Nuclear Properties:
 (Nuclear quadrupole moments (NQMom) in fm**2, nuclear magnetic moments (NMagM)
  in nuclear magnetons)

  Atom         1           2           3           4           5
 IAtWgt=          19          12          19           1           1
 AtmWgt=  18.9984033  12.0000000  18.9984033   1.0078250   1.0078250
 NucSpn=           1           0           1           1           1
 AtZEff=  -0.0000000  -0.0000000  -0.0000000  -0.0000000  -0.0000000
 NQMom=    0.0000000   0.0000000   0.0000000   0.0000000   0.0000000
 NMagM=    2.6288670   0.0000000   2.6288670   2.7928460   2.7928460
 AtZNuc=   9.0000000   6.0000000   9.0000000   1.0000000   1.0000000
 Leave Link  101 at Sun Feb 27 06:39:14 2022, MaxMem=  8589934592 cpu:               1.3 elap:               0.2
 (Enter /home/rr/g16/l202.exe)
                          Input orientation:                          
 ---------------------------------------------------------------------
 Center     Atomic      Atomic             Coordinates (Angstroms)
 Number     Number       Type             X           Y           Z
 ---------------------------------------------------------------------
      1          9           0        0.000000    1.098813   -0.289120
      2          6           0        0.000000    0.000000    0.499944
      3          9           0        0.000000   -1.098813   -0.289120
      4          1           0       -0.911346    0.000000    1.102246
      5          1           0        0.911346    0.000000    1.102246
 ---------------------------------------------------------------------
                    Distance matrix (angstroms):
                    1          2          3          4          5
     1  F    0.000000
     2  C    1.352779   0.000000
     3  F    2.197626   1.352779   0.000000
     4  H    1.993449   1.092392   1.993449   0.000000
     5  H    1.993449   1.092392   1.993449   1.822692   0.000000
 Stoichiometry    CH2F2
 Framework group  C2V[C2(C),SGV(F2),SGV'(H2)]
 Deg. of freedom     4
 Full point group                 C2V     NOp   4
 Largest Abelian subgroup         C2V     NOp   4
 Largest concise Abelian subgroup C2V     NOp   4
                         Standard orientation:                         
 ---------------------------------------------------------------------
 Center     Atomic      Atomic             Coordinates (Angstroms)
 Number     Number       Type             X           Y           Z
 ---------------------------------------------------------------------
      1          9           0        0.000000    1.098813   -0.289120
      2          6           0       -0.000000   -0.000000    0.499944
      3          9           0       -0.000000   -1.098813   -0.289120
      4          1           0       -0.911346    0.000000    1.102246
      5          1           0        0.911346   -0.000000    1.102246
 ---------------------------------------------------------------------
 Rotational constants (GHZ):          49.7833800          10.6281321           9.2978450
 Leave Link  202 at Sun Feb 27 06:39:15 2022, MaxMem=  8589934592 cpu:               0.4 elap:               0.1
 (Enter /home/rr/g16/l301.exe)
 General basis read from cards:  (5D, 7F)
 Centers:       4      5
 S 3 1.00
     Exponent=  3.4061341000D+01 Coefficients=  6.0251978000D-03
     Exponent=  5.1235746000D+00 Coefficients=  4.5021094000D-02
     Exponent=  1.1646626000D+00 Coefficients=  2.0189726000D-01
 S 1 1.00
     Exponent=  3.2723041000D-01 Coefficients=  1.0000000000D+00
 S 1 1.00
     Exponent=  1.0307241000D-01 Coefficients=  1.0000000000D+00
 P 1 1.00
     Exponent=  8.0000000000D-01 Coefficients=  1.0000000000D+00
 P 1 1.00
     Exponent=  9.5774129632D-02 Coefficients=  1.0000000000D+00
 ****
 Centers:       2
 S 6 1.00
     Exponent=  1.3575349682D+04 Coefficients=  2.2245814352D-04
     Exponent=  2.0352333680D+03 Coefficients=  1.7232738252D-03
     Exponent=  4.6322562359D+02 Coefficients=  8.9255715314D-03
     Exponent=  1.3120019598D+02 Coefficients=  3.5727984502D-02
     Exponent=  4.2853015891D+01 Coefficients=  1.1076259931D-01
     Exponent=  1.5584185766D+01 Coefficients=  2.4295627626D-01
 S 2 1.00
     Exponent=  6.2067138508D+00 Coefficients=  4.1440263448D-01
     Exponent=  2.5764896527D+00 Coefficients=  2.3744968655D-01
 S 1 1.00
     Exponent=  5.7696339419D-01 Coefficients=  1.0000000000D+00
 S 1 1.00
     Exponent=  2.2972831358D-01 Coefficients=  1.0000000000D+00
 S 1 1.00
     Exponent=  9.5164440028D-02 Coefficients=  1.0000000000D+00
 S 1 1.00
     Exponent=  4.8475401370D-02 Coefficients=  1.0000000000D+00
 P 4 1.00
     Exponent=  3.4697232244D+01 Coefficients=  5.3333657805D-03
     Exponent=  7.9582622826D+00 Coefficients=  3.5864109092D-02
     Exponent=  2.3780826883D+00 Coefficients=  1.4215873329D-01
     Exponent=  8.1433208183D-01 Coefficients=  3.4270471845D-01
 P 1 1.00
     Exponent=  2.8887547253D-01 Coefficients=  4.6445822433D-01
 P 1 1.00
     Exponent=  1.0056823671D-01 Coefficients=  2.4955789874D-01
 D 1 1.00
     Exponent=  1.0970000000D+00 Coefficients=  1.0000000000D+00
 D 1 1.00
     Exponent=  3.1800000000D-01 Coefficients=  1.0000000000D+00
 D 1 1.00
     Exponent=  9.0985336424D-02 Coefficients=  1.0000000000D+00
 F 1 1.00
     Exponent=  7.6100000000D-01 Coefficients=  1.0000000000D+00
 ****
 Centers:       1      3
 S 6 1.00
     Exponent=  3.5479100441D+04 Coefficients=  2.1545014888D-04
     Exponent=  5.3184728983D+03 Coefficients=  1.6700686527D-03
     Exponent=  1.2104810975D+03 Coefficients=  8.6733211476D-03
     Exponent=  3.4285518140D+02 Coefficients=  3.5049933175D-02
     Exponent=  1.1201943181D+02 Coefficients=  1.1165320133D-01
     Exponent=  4.0714740248D+01 Coefficients=  2.5988506647D-01
 S 2 1.00
     Exponent=  1.6039678111D+01 Coefficients=  3.9422966880D-01
     Exponent=  6.5038186740D+00 Coefficients=  2.4998238551D-01
 S 1 1.00
     Exponent=  1.5440477509D+00 Coefficients=  1.0000000000D+00
 S 1 1.00
     Exponent=  6.1223452862D-01 Coefficients=  1.0000000000D+00
 S 1 1.00
     Exponent=  2.4027979698D-01 Coefficients=  1.0000000000D+00
 S 1 1.00
     Exponent=  9.0918446478D-02 Coefficients=  1.0000000000D+00
 P 4 1.00
     Exponent=  8.0233900483D+01 Coefficients=  6.3685999134D-03
     Exponent=  1.8594010743D+01 Coefficients=  4.4303143530D-02
     Exponent=  5.6867902653D+00 Coefficients=  1.6867248708D-01
     Exponent=  1.9511006294D+00 Coefficients=  3.6166346255D-01
 P 1 1.00
     Exponent=  6.6970211298D-01 Coefficients=  4.4202901491D-01
 P 1 1.00
     Exponent=  2.1651300410D-01 Coefficients=  2.4319875730D-01
 P 1 1.00
     Exponent=  5.9613282472D-02 Coefficients=  1.0000000000D+00
 D 1 1.00
     Exponent=  3.1070000000D+00 Coefficients=  1.0000000000D+00
 D 1 1.00
     Exponent=  8.5500000000D-01 Coefficients=  1.0000000000D+00
 D 1 1.00
     Exponent=  1.8608388111D-01 Coefficients=  1.0000000000D+00
 F 1 1.00
     Exponent=  1.9170000000D+00 Coefficients=  1.0000000000D+00
 ****
 Ernie: Thresh=  0.10000D-02 Tol=  0.10000D-05 Strict=F.
 There are    60 symmetry adapted cartesian basis functions of A1  symmetry.
 There are    20 symmetry adapted cartesian basis functions of A2  symmetry.
 There are    30 symmetry adapted cartesian basis functions of B1  symmetry.
 There are    43 symmetry adapted cartesian basis functions of B2  symmetry.
 There are    51 symmetry adapted basis functions of A1  symmetry.
 There are    19 symmetry adapted basis functions of A2  symmetry.
 There are    28 symmetry adapted basis functions of B1  symmetry.
 There are    37 symmetry adapted basis functions of B2  symmetry.
   135 basis functions,   202 primitive gaussians,   153 cartesian basis functions
    13 alpha electrons       13 beta electrons
       nuclear repulsion energy        77.4114556534 Hartrees.
 IExCor= 4639 DFT=T Ex+Corr=wB97XD ExCW=0 ScaHFX=  1.000000
 ScaDFX=  1.000000  1.000000  1.000000  1.000000 ScalE2=  1.000000  1.000000
 IRadAn=      5 IRanWt=     -1 IRanGd=            0 ICorTp=0 IEmpDi=121
 HFx  wShort=  0.000000 wLong=  0.200000 cFull=  0.222036 cShort=  0.000000 cLong=  0.777964
 DFx  wShort=  0.000000 wLong=  0.200000 cFull=  0.000000 cShort=  0.000000 cLong=  1.000000
 NAtoms=    5 NActive=    5 NUniq=    3 SFac= 2.78D+00 NAtFMM=   60 NAOKFM=F Big=F
 Integral buffers will be    131072 words long.
 Raffenetti 1 integral format.
 Two-electron integral symmetry is turned on.
 R6Disp:  Grimme-D2 Dispersion energy=       -0.0003868038 Hartrees.
 Nuclear repulsion after empirical dispersion term =       77.4110688496 Hartrees.
 Leave Link  301 at Sun Feb 27 06:39:16 2022, MaxMem=  8589934592 cpu:               2.1 elap:               0.4
 (Enter /home/rr/g16/l302.exe)
 NPDir=0 NMtPBC=     1 NCelOv=     1 NCel=       1 NClECP=     1 NCelD=      1
         NCelK=      1 NCelE2=     1 NClLst=     1 CellRange=     0.0.
 One-electron integrals computed using PRISM.
 One-electron integral symmetry used in STVInt
 NBasis=   135 RedAO= T EigKep=  5.81D-05  NBF=    51    19    28    37
 NBsUse=   135 1.00D-06 EigRej= -1.00D+00 NBFU=    51    19    28    37
 Precomputing XC quadrature grid using
 IXCGrd= 4 IRadAn=           5 IRanWt=          -1 IRanGd=           0 AccXCQ= 0.00D+00.
 Generated NRdTot=       0 NPtTot=           0 NUsed=           0 NTot=          32
 NSgBfM=   153   153   153   153   153 MxSgAt=     5 MxSgA2=     5.
 Leave Link  302 at Sun Feb 27 06:39:16 2022, MaxMem=  8589934592 cpu:               2.8 elap:               0.5
 (Enter /home/rr/g16/l303.exe)
 DipDrv:  MaxL=1.
 Leave Link  303 at Sun Feb 27 06:39:17 2022, MaxMem=  8589934592 cpu:               0.9 elap:               0.3
 (Enter /home/rr/g16/l308.exe)
 Leave Link  308 at Sun Feb 27 06:39:17 2022, MaxMem=  8589934592 cpu:               0.6 elap:               0.2
 (Enter /home/rr/g16/l401.exe)
 ExpMin= 4.85D-02 ExpMax= 3.55D+04 ExpMxC= 1.21D+03 IAcc=3 IRadAn=         5 AccDes= 0.00D+00
 Harris functional with IExCor= 4639 and IRadAn=       5 diagonalized for initial guess.
 HarFok:  IExCor= 4639 AccDes= 0.00D+00 IRadAn=         5 IDoV= 1 UseB2=F ITyADJ=14
 ICtDFT=  3500011 ScaDFX=  1.000000  1.000000  1.000000  1.000000
 FoFCou: FMM=F IPFlag=           0 FMFlag=      100000 FMFlg1=           0
         NFxFlg=           0 DoJE=T BraDBF=F KetDBF=T FulRan=T
         wScrn=  0.000000 ICntrl=       500 IOpCl=  0 I1Cent=   200000004 NGrid=           0
         NMat0=    1 NMatS0=      1 NMatT0=    0 NMatD0=    1 NMtDS0=    0 NMtDT0=    0
 Petite list used in FoFCou.
 Harris En= -231.099843747256    
 JPrj=0 DoOrth=F DoCkMO=F.
 Initial guess orbital symmetries:
       Occupied  (A1) (B2) (A1) (A1) (B2) (A1) (B1) (A1) (B2) (A1)
                 (A2) (B2) (B1)
       Virtual   (A1) (B2) (A1) (B1) (A1) (B2) (A2) (A1) (B1) (B2)
                 (A1) (A1) (A2) (B1) (B1) (A1) (B2) (B1) (A1) (B2)
                 (A1) (B2) (A1) (A2) (B1) (B2) (A1) (A1) (B1) (B2)
                 (A1) (A2) (B2) (B1) (A1) (A2) (A1) (B1) (B2) (A1)
                 (A1) (A2) (A1) (B2) (B1) (B1) (A1) (B2) (A2) (B2)
                 (A1) (A1) (B2) (B1) (A1) (B2) (B1) (A2) (A1) (A1)
                 (B2) (B1) (A2) (B2) (B2) (A1) (A1) (B1) (B1) (A1)
                 (B1) (A2) (B2) (A1) (A1) (A2) (B2) (A1) (B2) (B1)
                 (A2) (A1) (B1) (B2) (A1) (B1) (A2) (A1) (B2) (B2)
                 (A1) (B1) (A1) (B2) (A1) (A2) (B2) (B1) (A1) (A2)
                 (B2) (A1) (B1) (A1) (B1) (A2) (B2) (A1) (B2) (A2)
                 (B2) (A1) (B1) (B2) (B1) (A2) (A1) (A1) (B2) (A1)
                 (B2) (A1)
 The electronic state of the initial guess is 1-A1.
 Leave Link  401 at Sun Feb 27 06:39:19 2022, MaxMem=  8589934592 cpu:               4.8 elap:               0.8
 (Enter /home/rr/g16/l502.exe)
 Keep R1 ints in memory in symmetry-blocked form, NReq=105617652.
 FoFCou: FMM=F IPFlag=           0 FMFlag=           0 FMFlg1=           0
         NFxFlg=           0 DoJE=F BraDBF=F KetDBF=F FulRan=T
         wScrn=  0.000000 ICntrl=       600 IOpCl=  0 I1Cent=           0 NGrid=           0
         NMat0=    1 NMatS0=   9180 NMatT0=    0 NMatD0=    1 NMtDS0=    0 NMtDT0=    0
 Petite list used in FoFCou.
 Closed shell SCF:
 Using DIIS extrapolation, IDIIS=  1040.
 NGot=  8589934592 LenX=  8579206188 LenY=  8579182338
 Requested convergence on RMS density matrix=1.00D-08 within 100 cycles.
 Requested convergence on MAX density matrix=1.00D-06.
 Requested convergence on             energy=1.00D-06.
 No special actions if energy rises.

 Cycle   1  Pass 1  IDiag  1:
 E= -238.846655472167    
 DIIS: error= 8.04D-02 at cycle   1 NSaved=   1.
 NSaved= 1 IEnMin= 1 EnMin= -238.846655472167     IErMin= 1 ErrMin= 8.04D-02
 ErrMax= 8.04D-02  0.00D+00 EMaxC= 1.00D-01 BMatC= 7.09D-01 BMatP= 7.09D-01
 IDIUse=3 WtCom= 1.96D-01 WtEn= 8.04D-01
 Coeff-Com:  0.100D+01
 Coeff-En:   0.100D+01
 Coeff:      0.100D+01
 Gap=     0.643 Goal=   None    Shift=    0.000
 GapD=    0.643 DampG=2.000 DampE=0.500 DampFc=1.0000 IDamp=-1.
 RMSDP=3.48D-03 MaxDP=8.05D-02              OVMax= 1.35D-01

 Cycle   2  Pass 1  IDiag  1:
 E= -238.871466992802     Delta-E=       -0.024811520635 Rises=F Damp=F
 DIIS: error= 4.52D-02 at cycle   2 NSaved=   2.
 NSaved= 2 IEnMin= 2 EnMin= -238.871466992802     IErMin= 2 ErrMin= 4.52D-02
 ErrMax= 4.52D-02  0.00D+00 EMaxC= 1.00D-01 BMatC= 3.32D-01 BMatP= 7.09D-01
 IDIUse=3 WtCom= 5.48D-01 WtEn= 4.52D-01
 Coeff-Com:  0.390D+00 0.610D+00
 Coeff-En:   0.460D+00 0.540D+00
 Coeff:      0.422D+00 0.578D+00
 Gap=     0.559 Goal=   None    Shift=    0.000
 RMSDP=1.74D-03 MaxDP=5.20D-02 DE=-2.48D-02 OVMax= 8.38D-02

 Cycle   3  Pass 1  IDiag  1:
 E= -239.019642201285     Delta-E=       -0.148175208483 Rises=F Damp=F
 DIIS: error= 9.37D-03 at cycle   3 NSaved=   3.
 NSaved= 3 IEnMin= 3 EnMin= -239.019642201285     IErMin= 3 ErrMin= 9.37D-03
 ErrMax= 9.37D-03  0.00D+00 EMaxC= 1.00D-01 BMatC= 1.36D-02 BMatP= 3.32D-01
 IDIUse=3 WtCom= 9.06D-01 WtEn= 9.37D-02
 Coeff-Com:  0.324D-01 0.180D+00 0.788D+00
 Coeff-En:   0.000D+00 0.000D+00 0.100D+01
 Coeff:      0.293D-01 0.163D+00 0.808D+00
 Gap=     0.509 Goal=   None    Shift=    0.000
 RMSDP=4.69D-04 MaxDP=1.04D-02 DE=-1.48D-01 OVMax= 2.49D-02

 Cycle   4  Pass 1  IDiag  1:
 E= -239.026348522292     Delta-E=       -0.006706321007 Rises=F Damp=F
 DIIS: error= 3.39D-03 at cycle   4 NSaved=   4.
 NSaved= 4 IEnMin= 4 EnMin= -239.026348522292     IErMin= 4 ErrMin= 3.39D-03
 ErrMax= 3.39D-03  0.00D+00 EMaxC= 1.00D-01 BMatC= 1.28D-03 BMatP= 1.36D-02
 IDIUse=3 WtCom= 9.66D-01 WtEn= 3.39D-02
 Coeff-Com:  0.175D-02 0.395D-01 0.336D+00 0.623D+00
 Coeff-En:   0.000D+00 0.000D+00 0.000D+00 0.100D+01
 Coeff:      0.169D-02 0.381D-01 0.325D+00 0.636D+00
 Gap=     0.508 Goal=   None    Shift=    0.000
 RMSDP=1.45D-04 MaxDP=4.48D-03 DE=-6.71D-03 OVMax= 6.85D-03

 Cycle   5  Pass 1  IDiag  1:
 E= -239.027190884813     Delta-E=       -0.000842362521 Rises=F Damp=F
 DIIS: error= 2.33D-04 at cycle   5 NSaved=   5.
 NSaved= 5 IEnMin= 5 EnMin= -239.027190884813     IErMin= 5 ErrMin= 2.33D-04
 ErrMax= 2.33D-04  0.00D+00 EMaxC= 1.00D-01 BMatC= 4.81D-06 BMatP= 1.28D-03
 IDIUse=3 WtCom= 9.98D-01 WtEn= 2.33D-03
 Coeff-Com: -0.103D-02-0.111D-01-0.529D-01-0.292D-01 0.109D+01
 Coeff-En:   0.000D+00 0.000D+00 0.000D+00 0.000D+00 0.100D+01
 Coeff:     -0.102D-02-0.111D-01-0.527D-01-0.292D-01 0.109D+01
 Gap=     0.507 Goal=   None    Shift=    0.000
 RMSDP=4.90D-05 MaxDP=9.67D-04 DE=-8.42D-04 OVMax= 1.05D-03

 Cycle   6  Pass 1  IDiag  1:
 E= -239.027197897119     Delta-E=       -0.000007012307 Rises=F Damp=F
 DIIS: error= 3.05D-05 at cycle   6 NSaved=   6.
 NSaved= 6 IEnMin= 6 EnMin= -239.027197897119     IErMin= 6 ErrMin= 3.05D-05
 ErrMax= 3.05D-05  0.00D+00 EMaxC= 1.00D-01 BMatC= 5.97D-08 BMatP= 4.81D-06
 IDIUse=1 WtCom= 1.00D+00 WtEn= 0.00D+00
 Coeff-Com: -0.124D-04-0.233D-03-0.497D-02-0.138D-01-0.351D-01 0.105D+01
 Coeff:     -0.124D-04-0.233D-03-0.497D-02-0.138D-01-0.351D-01 0.105D+01
 Gap=     0.507 Goal=   None    Shift=    0.000
 RMSDP=8.54D-06 MaxDP=1.94D-04 DE=-7.01D-06 OVMax= 2.22D-04

 Cycle   7  Pass 1  IDiag  1:
 E= -239.027198047035     Delta-E=       -0.000000149916 Rises=F Damp=F
 DIIS: error= 5.58D-06 at cycle   7 NSaved=   7.
 NSaved= 7 IEnMin= 7 EnMin= -239.027198047035     IErMin= 7 ErrMin= 5.58D-06
 ErrMax= 5.58D-06  0.00D+00 EMaxC= 1.00D-01 BMatC= 3.17D-09 BMatP= 5.97D-08
 IDIUse=1 WtCom= 1.00D+00 WtEn= 0.00D+00
 Coeff-Com:  0.126D-04 0.185D-03 0.143D-02 0.129D-02-0.217D-01-0.852D-01
 Coeff-Com:  0.110D+01
 Coeff:      0.126D-04 0.185D-03 0.143D-02 0.129D-02-0.217D-01-0.852D-01
 Coeff:      0.110D+01
 Gap=     0.507 Goal=   None    Shift=    0.000
 RMSDP=1.66D-06 MaxDP=4.23D-05 DE=-1.50D-07 OVMax= 4.71D-05

 Cycle   8  Pass 1  IDiag  1:
 E= -239.027198053522     Delta-E=       -0.000000006487 Rises=F Damp=F
 DIIS: error= 9.46D-07 at cycle   8 NSaved=   8.
 NSaved= 8 IEnMin= 8 EnMin= -239.027198053522     IErMin= 8 ErrMin= 9.46D-07
 ErrMax= 9.46D-07  0.00D+00 EMaxC= 1.00D-01 BMatC= 1.33D-10 BMatP= 3.17D-09
 IDIUse=1 WtCom= 1.00D+00 WtEn= 0.00D+00
 Coeff-Com:  0.556D-06 0.100D-04 0.294D-03 0.792D-03 0.153D-02-0.677D-01
 Coeff-Com:  0.106D+00 0.960D+00
 Coeff:      0.556D-06 0.100D-04 0.294D-03 0.792D-03 0.153D-02-0.677D-01
 Coeff:      0.106D+00 0.960D+00
 Gap=     0.507 Goal=   None    Shift=    0.000
 RMSDP=1.73D-07 MaxDP=3.17D-06 DE=-6.49D-09 OVMax= 8.26D-06

 Cycle   9  Pass 1  IDiag  1:
 E= -239.027198053740     Delta-E=       -0.000000000218 Rises=F Damp=F
 DIIS: error= 1.75D-07 at cycle   9 NSaved=   9.
 NSaved= 9 IEnMin= 9 EnMin= -239.027198053740     IErMin= 9 ErrMin= 1.75D-07
 ErrMax= 1.75D-07  0.00D+00 EMaxC= 1.00D-01 BMatC= 5.78D-12 BMatP= 1.33D-10
 IDIUse=1 WtCom= 1.00D+00 WtEn= 0.00D+00
 Coeff-Com:  0.251D-06 0.107D-06-0.513D-04-0.944D-04 0.445D-03 0.638D-02
 Coeff-Com: -0.321D-01-0.697D-01 0.110D+01
 Coeff:      0.251D-06 0.107D-06-0.513D-04-0.944D-04 0.445D-03 0.638D-02
 Coeff:     -0.321D-01-0.697D-01 0.110D+01
 Gap=     0.507 Goal=   None    Shift=    0.000
 RMSDP=8.65D-08 MaxDP=1.76D-06 DE=-2.18D-10 OVMax= 1.04D-06

 Cycle  10  Pass 1  IDiag  1:
 E= -239.027198053743     Delta-E=       -0.000000000004 Rises=F Damp=F
 DIIS: error= 2.57D-08 at cycle  10 NSaved=  10.
 NSaved=10 IEnMin=10 EnMin= -239.027198053743     IErMin=10 ErrMin= 2.57D-08
 ErrMax= 2.57D-08  0.00D+00 EMaxC= 1.00D-01 BMatC= 3.95D-14 BMatP= 5.78D-12
 IDIUse=1 WtCom= 1.00D+00 WtEn= 0.00D+00
 Coeff-Com: -0.742D-07-0.588D-06 0.142D-05-0.203D-07-0.362D-04-0.686D-04
 Coeff-Com:  0.214D-02-0.245D-02-0.130D+00 0.113D+01
 Coeff:     -0.742D-07-0.588D-06 0.142D-05-0.203D-07-0.362D-04-0.686D-04
 Coeff:      0.214D-02-0.245D-02-0.130D+00 0.113D+01
 Gap=     0.507 Goal=   None    Shift=    0.000
 RMSDP=1.45D-08 MaxDP=3.30D-07 DE=-3.81D-12 OVMax= 1.63D-07

 Cycle  11  Pass 1  IDiag  1:
 E= -239.027198053747     Delta-E=       -0.000000000004 Rises=F Damp=F
 DIIS: error= 2.90D-09 at cycle  11 NSaved=  11.
 NSaved=11 IEnMin=11 EnMin= -239.027198053747     IErMin=11 ErrMin= 2.90D-09
 ErrMax= 2.90D-09  0.00D+00 EMaxC= 1.00D-01 BMatC= 6.32D-16 BMatP= 3.95D-14
 IDIUse=1 WtCom= 1.00D+00 WtEn= 0.00D+00
 Coeff-Com: -0.312D-08 0.313D-07 0.732D-06 0.167D-05-0.302D-05-0.113D-03
 Coeff-Com:  0.447D-03 0.134D-02-0.816D-02-0.106D+00 0.111D+01
 Coeff:     -0.312D-08 0.313D-07 0.732D-06 0.167D-05-0.302D-05-0.113D-03
 Coeff:      0.447D-03 0.134D-02-0.816D-02-0.106D+00 0.111D+01
 Gap=     0.507 Goal=   None    Shift=    0.000
 RMSDP=1.11D-09 MaxDP=2.01D-08 DE=-4.09D-12 OVMax= 2.01D-08

 SCF Done:  E(RwB97XD) =  -239.027198054     A.U. after   11 cycles
            NFock= 11  Conv=0.11D-08     -V/T= 2.0035
 KE= 2.381866511723D+02 PE=-7.230764603298D+02 EE= 1.684515422542D+02
 Leave Link  502 at Sun Feb 27 06:39:22 2022, MaxMem=  8589934592 cpu:              22.6 elap:               3.0
 (Enter /home/rr/g16/l801.exe)
 DoSCS=F DFT=T ScalE2(SS,OS)=  1.000000  1.000000
 ExpMin= 4.85D-02 ExpMax= 3.55D+04 ExpMxC= 1.21D+03 IAcc=3 IRadAn=         5 AccDes= 0.00D+00
 HarFok:  IExCor=  205 AccDes= 0.00D+00 IRadAn=         5 IDoV=-2 UseB2=F ITyADJ=14
 ICtDFT= 12500011 ScaDFX=  1.000000  1.000000  1.000000  1.000000
 Largest valence mixing into a core orbital is  7.25D-05
 Largest core mixing into a valence orbital is  1.23D-05
 Range of M.O.s used for correlation:     4   135
 NBasis=   135 NAE=    13 NBE=    13 NFC=     3 NFV=     0
 NROrb=    132 NOA=    10 NOB=    10 NVA=   122 NVB=   122

 **** Warning!!: The largest alpha MO coefficient is  0.55289391D+02

 Leave Link  801 at Sun Feb 27 06:39:22 2022, MaxMem=  8589934592 cpu:               1.0 elap:               0.2
 (Enter /home/rr/g16/l914.exe)
 RHF ground state
 Keep R1, R2, and R3 ints in memory in symmetry-blocked form, NReq=2275396472.
 FoFCou: FMM=F IPFlag=           0 FMFlag=           0 FMFlg1=           0
         NFxFlg=           0 DoJE=F BraDBF=F KetDBF=F FulRan=T
         wScrn=  0.000000 ICntrl=       600 IOpCl=  0 I1Cent=           0 NGrid=           0
         NMat0=    1 NMatS0=   9180 NMatT0=    0 NMatD0=    1 NMtDS0=    0 NMtDT0=    0
 Petite list used in FoFCou.
 MDV=  8589934592 DFT=T DoStab=F Mixed=T DoRPA=T DoScal=F NonHer=T
 Making orbital integer symmetry assigments:
 Orbital symmetries:
       Occupied  (B2) (A1) (A1) (A1) (B2) (A1) (B1) (A1) (B2) (A2)
                 (A1) (B2) (B1)
       Virtual   (A1) (B2) (A1) (B1) (A1) (B2) (A2) (A1) (B1) (B2)
                 (A1) (A1) (A2) (A1) (B1) (B1) (B2) (B1) (A1) (B2)
                 (A1) (B2) (A1) (A2) (B1) (A1) (B2) (A1) (B1) (A1)
                 (B2) (A2) (B1) (A1) (B2) (A2) (A1) (B1) (B2) (A1)
                 (A1) (A2) (A1) (B2) (B1) (B1) (A1) (B2) (A2) (B2)
                 (A1) (A1) (B2) (B1) (A1) (B2) (B1) (A2) (A1) (B2)
                 (A1) (B1) (A2) (B2) (B2) (A1) (A1) (B1) (B1) (A1)
                 (B1) (B2) (A2) (A1) (A1) (A2) (A1) (B2) (B2) (B1)
                 (A2) (A1) (B1) (B2) (A1) (B1) (A2) (A1) (B2) (B2)
                 (A1) (B1) (A1) (B2) (A1) (A2) (B2) (B1) (A1) (A2)
                 (B2) (A1) (B1) (A1) (B1) (A2) (B2) (A1) (B2) (A2)
                 (B2) (A1) (B1) (B2) (B1) (A2) (A1) (A1) (B2) (A1)
                 (B2) (A1)
  1220 initial guesses have been made.
 Convergence on wavefunction:    0.001000000000000
 Davidson Disk Diagonalization:  ConvIn= 1.00D-03 SkipCon=T Conv= 1.00D-03.
 Max sub-space:  7320 roots to seek:  2440 dimension of matrix:         2440
 *** WARNING: Number of orthogonal guesses is         1220
 Iteration     1 Dimension  1220 NMult     0 NNew   1220
 CISAX will form  1220 AO SS matrices at one time.
 NMat=  1220 NSing=  1220 JSym2X=-1.
 New state      7 was old state      8
 New state      8 was old state      7
 New state      9 was old state     10
 New state     10 was old state      9
 New state     11 was old state     12
 New state     12 was old state     13
 New state     13 was old state     11
 New state     14 was old state     17
 New state     15 was old state     14
 New state     16 was old state     18
 New state     17 was old state     15
 New state     18 was old state     20
 New state     19 was old state     16
 New state     20 was old state     19
 New state     24 was old state     25
 New state     25 was old state     24
 New state     26 was old state     28
 New state     27 was old state     31
 New state     28 was old state     27
 New state     29 was old state     30
 New state     30 was old state     32
 New state     31 was old state     26
 New state     32 was old state     43
 New state     34 was old state     29
 New state     35 was old state     34
 New state     36 was old state     37
 New state     37 was old state     41
 New state     38 was old state     36
 New state     39 was old state     38
 New state     40 was old state     35
 New state     41 was old state     39
 New state     43 was old state     44
 New state     44 was old state     40
 New state     46 was old state     49
 New state     48 was old state     46
 New state     49 was old state     51
 New state     50 was old state     48
 New state     51 was old state     55
 New state     52 was old state     50
 New state     53 was old state     61
 New state     55 was old state     60
 New state     57 was old state     52
 New state     58 was old state     53
 New state     59 was old state     57
 New state     60 was old state     64
 New state     61 was old state     59
 New state     62 was old state     63
 New state     63 was old state     58
 New state     64 was old state     71
 New state     65 was old state     62
 New state     66 was old state     70
 New state     67 was old state     73
 New state     68 was old state     77
 New state     69 was old state     65
 New state     70 was old state     67
 New state     71 was old state     78
 New state     72 was old state     69
 New state     73 was old state     86
 New state     74 was old state     75
 New state     75 was old state     84
 New state     76 was old state     92
 New state     77 was old state     83
 New state     78 was old state     68
 New state     79 was old state     94
 New state     80 was old state     66
 New state     82 was old state     74
 New state     83 was old state     91
 New state     84 was old state     72
 New state     85 was old state     79
 New state     86 was old state     85
 New state     87 was old state     95
 New state     88 was old state     87
 New state     90 was old state     80
 New state     91 was old state     90
 New state     92 was old state     88
 New state     93 was old state     82
 New state     94 was old state     76
 New state     95 was old state     96
 New state     96 was old state     93
 New state    101 was old state    102
 New state    102 was old state    103
 New state    103 was old state    101
 New state    106 was old state    107
 New state    107 was old state    110
 New state    108 was old state    109
 New state    109 was old state    112
 New state    110 was old state    114
 New state    112 was old state    106
 New state    114 was old state    115
 New state    115 was old state    108
 New state    116 was old state    117
 New state    117 was old state    119
 New state    118 was old state    120
 New state    119 was old state    116
 New state    120 was old state    118
 New state    121 was old state    129
 New state    122 was old state    127
 New state    123 was old state    121
 New state    124 was old state    128
 New state    125 was old state    122
 New state    126 was old state    124
 New state    127 was old state    123
 New state    128 was old state    132
 New state    129 was old state    125
 New state    130 was old state    137
 New state    131 was old state    126
 New state    132 was old state    130
 New state    133 was old state    131
 New state    134 was old state    144
 New state    135 was old state    134
 New state    136 was old state    141
 New state    137 was old state    135
 New state    138 was old state    140
 New state    140 was old state    138
 New state    141 was old state    133
 New state    142 was old state    155
 New state    143 was old state    147
 New state    144 was old state    149
 New state    145 was old state    151
 New state    146 was old state    145
 New state    147 was old state    152
 New state    148 was old state    142
 New state    149 was old state    143
 New state    150 was old state    154
 New state    151 was old state    153
 New state    152 was old state    136
 New state    153 was old state    146
 New state    154 was old state    157
 New state    155 was old state    148
 New state    156 was old state    160
 New state    157 was old state    162
 New state    158 was old state    171
 New state    159 was old state    158
 New state    160 was old state    179
 New state    161 was old state    159
 New state    162 was old state    156
 New state    163 was old state    168
 New state    164 was old state    166
 New state    165 was old state    164
 New state    166 was old state    150
 New state    167 was old state    161
 New state    168 was old state    163
 New state    169 was old state    167
 New state    170 was old state    165
 New state    171 was old state    169
 New state    172 was old state    173
 New state    173 was old state    177
 New state    174 was old state    170
 New state    175 was old state    172
 New state    176 was old state    175
 New state    177 was old state    181
 New state    178 was old state    176
 New state    179 was old state    182
 New state    180 was old state    178
 New state    181 was old state    183
 New state    182 was old state    180
 New state    183 was old state    188
 New state    184 was old state    185
 New state    185 was old state    187
 New state    186 was old state    184
 New state    187 was old state    186
 New state    188 was old state    189
 New state    189 was old state    191
 New state    190 was old state    199
 New state    191 was old state    190
 New state    192 was old state    194
 New state    193 was old state    192
 New state    194 was old state    193
 New state    198 was old state    200
 New state    199 was old state    201
 New state    200 was old state    203
 New state    201 was old state    198
 New state    202 was old state    210
 New state    203 was old state    202
 New state    205 was old state    206
 New state    206 was old state    207
 New state    207 was old state    205
 New state    208 was old state    209
 New state    209 was old state    212
 New state    210 was old state    221
 New state    212 was old state    214
 New state    213 was old state    208
 New state    214 was old state    215
 New state    215 was old state    219
 New state    217 was old state    213
 New state    218 was old state    227
 New state    219 was old state    224
 New state    221 was old state    236
 New state    222 was old state    225
 New state    223 was old state    218
 New state    224 was old state    228
 New state    225 was old state    217
 New state    226 was old state    231
 New state    227 was old state    222
 New state    228 was old state    230
 New state    229 was old state    226
 New state    230 was old state    229
 New state    231 was old state    233
 New state    233 was old state    223
 New state    235 was old state    237
 New state    236 was old state    239
 New state    237 was old state    238
 New state    238 was old state    243
 New state    239 was old state    240
 New state    240 was old state    246
 New state    241 was old state    247
 New state    242 was old state    244
 New state    243 was old state    235
 New state    244 was old state    242
 New state    245 was old state    241
 New state    246 was old state    249
 New state    247 was old state    252
 New state    248 was old state    245
 New state    249 was old state    251
 New state    250 was old state    270
 New state    251 was old state    253
 New state    252 was old state    248
 New state    253 was old state    250
 New state    255 was old state    261
 New state    257 was old state    255
 New state    259 was old state    266
 New state    260 was old state    264
 New state    261 was old state    260
 New state    262 was old state    267
 New state    263 was old state    276
 New state    264 was old state    259
 New state    265 was old state    257
 New state    266 was old state    271
 New state    267 was old state    283
 New state    268 was old state    272
 New state    269 was old state    265
 New state    270 was old state    263
 New state    271 was old state    268
 New state    272 was old state    262
 New state    276 was old state    277
 New state    277 was old state    269
 New state    278 was old state    279
 New state    279 was old state    278
 New state    282 was old state    291
 New state    283 was old state    285
 New state    284 was old state    288
 New state    285 was old state    284
 New state    286 was old state    287
 New state    287 was old state    290
 New state    288 was old state    293
 New state    290 was old state    286
 New state    291 was old state    294
 New state    293 was old state    282
 New state    294 was old state    318
 New state    295 was old state    298
 New state    296 was old state    300
 New state    297 was old state    302
 New state    298 was old state    295
 New state    299 was old state    301
 New state    300 was old state    303
 New state    301 was old state    306
 New state    302 was old state    304
 New state    303 was old state    296
 New state    304 was old state    305
 New state    305 was old state    307
 New state    306 was old state    297
 New state    307 was old state    308
 New state    308 was old state    309
 New state    309 was old state    299
 New state    310 was old state    319
 New state    311 was old state    323
 New state    312 was old state    331
 New state    313 was old state    310
 New state    314 was old state    325
 New state    315 was old state    324
 New state    316 was old state    330
 New state    317 was old state    329
 New state    318 was old state    316
 New state    319 was old state    311
 New state    320 was old state    317
 New state    322 was old state    315
 New state    323 was old state    327
 New state    324 was old state    332
 New state    325 was old state    314
 New state    326 was old state    333
 New state    327 was old state    334
 New state    328 was old state    322
 New state    329 was old state    336
 New state    330 was old state    328
 New state    331 was old state    312
 New state    332 was old state    320
 New state    333 was old state    313
 New state    334 was old state    326
 New state    335 was old state    346
 New state    336 was old state    335
 New state    338 was old state    347
 New state    339 was old state    350
 New state    340 was old state    342
 New state    341 was old state    343
 New state    342 was old state    338
 New state    343 was old state    345
 New state    344 was old state    340
 New state    345 was old state    341
 New state    346 was old state    339
 New state    347 was old state    348
 New state    348 was old state    352
 New state    349 was old state    355
 New state    350 was old state    349
 New state    351 was old state    344
 New state    352 was old state    354
 New state    353 was old state    351
 New state    354 was old state    364
 New state    355 was old state    363
 New state    356 was old state    365
 New state    357 was old state    361
 New state    358 was old state    353
 New state    359 was old state    370
 New state    360 was old state    356
 New state    361 was old state    366
 New state    362 was old state    371
 New state    363 was old state    372
 New state    364 was old state    375
 New state    365 was old state    359
 New state    366 was old state    360
 New state    367 was old state    373
 New state    368 was old state    374
 New state    370 was old state    357
 New state    371 was old state    367
 New state    372 was old state    377
 New state    373 was old state    362
 New state    374 was old state    358
 New state    375 was old state    376
 New state    376 was old state    368
 New state    377 was old state    386
 New state    379 was old state    388
 New state    380 was old state    394
 New state    381 was old state    391
 New state    382 was old state    383
 New state    383 was old state    392
 New state    384 was old state    396
 New state    385 was old state    382
 New state    386 was old state    380
 New state    387 was old state    395
 New state    388 was old state    393
 New state    389 was old state    381
 New state    390 was old state    408
 New state    391 was old state    385
 New state    392 was old state    379
 New state    393 was old state    389
 New state    394 was old state    387
 New state    395 was old state    403
 New state    396 was old state    401
 New state    397 was old state    384
 New state    398 was old state    397
 New state    399 was old state    390
 New state    400 was old state    407
 New state    401 was old state    413
 New state    402 was old state    406
 New state    403 was old state    399
 New state    404 was old state    402
 New state    405 was old state    398
 New state    406 was old state    404
 New state    407 was old state    405
 New state    408 was old state    414
 New state    409 was old state    417
 New state    410 was old state    409
 New state    411 was old state    410
 New state    412 was old state    411
 New state    413 was old state    423
 New state    414 was old state    418
 New state    415 was old state    420
 New state    416 was old state    421
 New state    417 was old state    415
 New state    418 was old state    412
 New state    419 was old state    424
 New state    420 was old state    422
 New state    421 was old state    438
 New state    422 was old state    425
 New state    423 was old state    416
 New state    424 was old state    426
 New state    425 was old state    429
 New state    426 was old state    427
 New state    427 was old state    436
 New state    428 was old state    419
 New state    429 was old state    437
 New state    430 was old state    433
 New state    431 was old state    439
 New state    432 was old state    435
 New state    433 was old state    428
 New state    434 was old state    443
 New state    435 was old state    430
 New state    436 was old state    445
 New state    437 was old state    431
 New state    438 was old state    441
 New state    439 was old state    440
 New state    440 was old state    442
 New state    441 was old state    444
 New state    442 was old state    434
 New state    443 was old state    449
 New state    444 was old state    432
 New state    445 was old state    446
 New state    446 was old state    458
 New state    449 was old state    453
 New state    450 was old state    454
 New state    451 was old state    452
 New state    452 was old state    450
 New state    453 was old state    459
 New state    454 was old state    460
 New state    455 was old state    451
 New state    456 was old state    457
 New state    457 was old state    456
 New state    458 was old state    461
 New state    459 was old state    455
 New state    460 was old state    466
 New state    461 was old state    464
 New state    464 was old state    465
 New state    465 was old state    400
 New state    466 was old state    475
 New state    467 was old state    468
 New state    468 was old state    470
 New state    470 was old state    467
 New state    473 was old state    474
 New state    474 was old state    473
 New state    475 was old state    479
 No map to state    478
 New state    479 was old state    480
 New state    480 was old state    482
 New state    481 was old state    478
 New state    482 was old state    483
 New state    483 was old state    481
 New state    484 was old state    486
 New state    486 was old state    487
 New state    487 was old state    488
 New state    488 was old state    484
 New state    490 was old state    491
 New state    491 was old state    490
 New state    496 was old state    497
 New state    497 was old state    500
 New state    499 was old state    496
 New state    500 was old state    501
 New state    501 was old state    499
 New state    503 was old state    505
 New state    505 was old state    503
 New state    506 was old state    508
 New state    508 was old state    506
 New state    511 was old state    512
 New state    512 was old state    511
 New state    519 was old state    521
 New state    521 was old state    522
 New state    522 was old state    524
 New state    523 was old state    519
 New state    524 was old state    527
 New state    525 was old state    528
 New state    526 was old state    523
 New state    527 was old state    526
 New state    528 was old state    525
 New state    529 was old state    533
 New state    532 was old state    529
 New state    533 was old state    534
 New state    534 was old state    535
 New state    535 was old state    537
 New state    536 was old state    532
 New state    537 was old state    538
 New state    538 was old state    536
 New state    542 was old state    543
 New state    543 was old state    542
 New state    544 was old state    545
 New state    545 was old state    544
 New state    546 was old state    548
 New state    548 was old state    549
 New state    549 was old state    552
 New state    550 was old state    551
 New state    551 was old state    546
 New state    552 was old state    553
 New state    553 was old state    550
 New state    554 was old state    558
 New state    555 was old state    557
 New state    556 was old state    554
 New state    557 was old state    556
 New state    558 was old state    555
 New state    559 was old state    564
 New state    561 was old state    559
 New state    563 was old state    565
 New state    564 was old state    561
 New state    565 was old state    563
 New state    566 was old state    567
 New state    567 was old state    566
 New state    569 was old state    570
 New state    570 was old state    571
 New state    571 was old state    569
 New state    572 was old state    579
 New state    574 was old state    584
 New state    575 was old state    572
 New state    576 was old state    577
 New state    577 was old state    574
 New state    578 was old state    583
 New state    579 was old state    581
 New state    581 was old state    582
 New state    582 was old state    578
 New state    583 was old state    576
 New state    584 was old state    575
 New state    588 was old state    589
 New state    589 was old state    588
 New state    593 was old state    595
 New state    595 was old state    597
 New state    597 was old state    593
 New state    598 was old state    600
 New state    599 was old state    598
 New state    600 was old state    599
 New state    602 was old state    603
 New state    603 was old state    604
 New state    604 was old state    606
 New state    606 was old state    608
 New state    608 was old state    602
 New state    609 was old state    611
 New state    610 was old state    609
 New state    611 was old state    612
 New state    612 was old state    610
 New state    613 was old state    615
 New state    614 was old state    616
 New state    615 was old state    614
 New state    616 was old state    613
 New state    617 was old state    620
 New state    618 was old state    621
 New state    619 was old state    617
 New state    620 was old state    618
 New state    621 was old state    624
 New state    622 was old state    626
 New state    623 was old state    619
 New state    624 was old state    623
 New state    625 was old state    627
 New state    626 was old state    630
 New state    627 was old state    622
 New state    628 was old state    631
 New state    629 was old state    625
 New state    630 was old state    629
 New state    631 was old state    632
 New state    632 was old state    633
 New state    633 was old state    628
 New state    634 was old state    635
 New state    635 was old state    634
 New state    637 was old state    641
 New state    638 was old state    637
 New state    640 was old state    638
 New state    641 was old state    640
 New state    642 was old state    644
 New state    643 was old state    645
 New state    644 was old state    647
 New state    645 was old state    643
 New state    646 was old state    648
 New state    647 was old state    651
 New state    648 was old state    642
 New state    649 was old state    650
 New state    650 was old state    652
 New state    651 was old state    649
 New state    652 was old state    653
 New state    653 was old state    654
 New state    654 was old state    655
 New state    655 was old state    658
 New state    658 was old state    646
 New state    659 was old state    660
 New state    660 was old state    659
 New state    663 was old state    666
 New state    664 was old state    665
 New state    665 was old state    670
 New state    666 was old state    664
 New state    667 was old state    663
 New state    668 was old state    671
 New state    669 was old state    667
 New state    670 was old state    669
 New state    671 was old state    668
 New state    672 was old state    673
 New state    673 was old state    672
 New state    674 was old state    676
 New state    675 was old state    674
 New state    676 was old state    675
 New state    677 was old state    678
 New state    678 was old state    677
 New state    679 was old state    680
 New state    680 was old state    679
 New state    683 was old state    684
 New state    684 was old state    685
 New state    685 was old state    683
 New state    686 was old state    687
 New state    687 was old state    686
 New state    690 was old state    693
 New state    691 was old state    692
 New state    692 was old state    691
 New state    693 was old state    694
 New state    694 was old state    696
 New state    695 was old state    690
 New state    696 was old state    695
 New state    700 was old state    706
 New state    701 was old state    704
 New state    702 was old state    700
 New state    703 was old state    705
 New state    704 was old state    703
 New state    705 was old state    707
 New state    706 was old state    701
 New state    707 was old state    702
 New state    710 was old state    711
 New state    711 was old state    710
 New state    713 was old state    715
 New state    714 was old state    716
 New state    715 was old state    713
 New state    716 was old state    714
 New state    720 was old state    721
 New state    721 was old state    722
 New state    722 was old state    724
 New state    723 was old state    725
 New state    724 was old state    723
 New state    725 was old state    726
 New state    726 was old state    727
 New state    727 was old state    720
 New state    728 was old state    729
 New state    729 was old state    728
 New state    731 was old state    732
 New state    732 was old state    731
 New state    734 was old state    736
 New state    735 was old state    734
 New state    736 was old state    735
 New state    739 was old state    740
 New state    740 was old state    741
 New state    741 was old state    739
 New state    743 was old state    744
 New state    744 was old state    745
 New state    745 was old state    743
 New state    746 was old state    747
 New state    747 was old state    746
 New state    749 was old state    752
 New state    750 was old state    749
 New state    752 was old state    754
 New state    753 was old state    750
 New state    754 was old state    753
 New state    756 was old state    758
 New state    758 was old state    759
 New state    759 was old state    762
 New state    760 was old state    756
 New state    762 was old state    764
 New state    763 was old state    768
 New state    764 was old state    765
 New state    765 was old state    763
 New state    766 was old state    760
 New state    767 was old state    766
 New state    768 was old state    767
 New state    770 was old state    771
 New state    771 was old state    772
 New state    772 was old state    775
 New state    775 was old state    776
 New state    776 was old state    780
 New state    777 was old state    770
 New state    778 was old state    779
 New state    779 was old state    778
 New state    780 was old state    784
 New state    781 was old state    786
 New state    782 was old state    783
 New state    783 was old state    781
 New state    784 was old state    777
 New state    785 was old state    782
 New state    786 was old state    785
 New state    789 was old state    792
 New state    790 was old state    789
 New state    791 was old state    790
 New state    792 was old state    791
 New state    794 was old state    795
 New state    795 was old state    796
 New state    796 was old state    794
 New state    799 was old state    801
 New state    800 was old state    799
 New state    801 was old state    800
 New state    802 was old state    804
 New state    803 was old state    805
 New state    804 was old state    808
 New state    805 was old state    812
 New state    806 was old state    809
 New state    807 was old state    803
 New state    808 was old state    806
 New state    809 was old state    811
 New state    811 was old state    813
 New state    812 was old state    807
 New state    813 was old state    814
 New state    814 was old state    802
 New state    815 was old state    816
 New state    816 was old state    815
 New state    821 was old state    823
 New state    822 was old state    824
 New state    823 was old state    822
 New state    824 was old state    821
 New state    825 was old state    827
 New state    826 was old state    825
 New state    827 was old state    829
 New state    828 was old state    826
 New state    829 was old state    828
 New state    830 was old state    833
 New state    832 was old state    830
 New state    833 was old state    832
 New state    834 was old state    838
 New state    835 was old state    834
 New state    836 was old state    835
 New state    838 was old state    839
 New state    839 was old state    836
 New state    841 was old state    843
 New state    843 was old state    845
 New state    844 was old state    846
 New state    845 was old state    851
 New state    846 was old state    844
 New state    847 was old state    853
 New state    849 was old state    847
 New state    850 was old state    849
 New state    851 was old state    852
 New state    852 was old state    850
 New state    853 was old state    854
 New state    854 was old state    858
 New state    855 was old state    859
 New state    856 was old state    857
 New state    857 was old state    855
 New state    858 was old state    856
 New state    859 was old state    867
 New state    860 was old state    868
 New state    861 was old state    866
 New state    862 was old state    861
 New state    864 was old state    862
 New state    865 was old state    864
 New state    866 was old state    865
 New state    867 was old state    884
 New state    868 was old state    860
 New state    869 was old state    873
 New state    870 was old state    871
 New state    871 was old state    875
 New state    872 was old state    874
 New state    873 was old state    872
 New state    874 was old state    869
 New state    875 was old state    876
 New state    876 was old state    870
 New state    883 was old state    889
 New state    884 was old state    885
 New state    885 was old state    886
 New state    886 was old state    888
 No map to state    888
 New state    889 was old state    883
 New state    892 was old state    893
 New state    893 was old state    894
 New state    894 was old state    892
 New state    895 was old state    896
 New state    896 was old state    895
 New state    900 was old state    902
 New state    901 was old state    903
 New state    902 was old state    901
 New state    903 was old state    900
 New state    904 was old state    907
 New state    906 was old state    904
 New state    907 was old state    906
 New state    910 was old state    912
 New state    912 was old state    910
 New state    913 was old state    915
 New state    915 was old state    913
 New state    916 was old state    918
 New state    918 was old state    919
 New state    919 was old state    916
 New state    920 was old state    921
 New state    921 was old state    920
 New state    928 was old state    929
 New state    929 was old state    928
 New state    933 was old state    934
 New state    934 was old state    933
 New state    936 was old state    937
 New state    937 was old state    936
 New state    952 was old state    953
 New state    953 was old state    952
 New state    956 was old state    970
 New state    958 was old state    960
 New state    959 was old state    972
 New state    960 was old state    961
 New state    961 was old state    958
 New state    962 was old state    956
 New state    963 was old state    959
 New state    964 was old state    962
 New state    965 was old state    963
 New state    966 was old state    965
 New state    967 was old state    971
 New state    968 was old state    974
 New state    970 was old state    967
 New state    971 was old state    964
 New state    972 was old state    966
 New state    973 was old state    968
 New state    974 was old state    973
 New state    976 was old state    977
 New state    977 was old state    978
 New state    978 was old state    976
 New state    979 was old state    984
 New state    981 was old state    982
 New state    982 was old state    989
 New state    983 was old state    992
 New state    984 was old state    993
 New state    985 was old state    979
 New state    986 was old state    983
 New state    987 was old state    981
 New state    989 was old state    995
 New state    990 was old state    991
 New state    991 was old state    987
 New state    992 was old state    990
 New state    993 was old state    985
 New state    994 was old state    998
 New state    995 was old state    986
 New state    996 was old state    997
 New state    997 was old state    996
 New state    998 was old state   1000
 New state    999 was old state    994
 New state   1000 was old state   1001
 New state   1001 was old state    999
 New state   1006 was old state   1012
 New state   1008 was old state   1011
 New state   1009 was old state   1006
 New state   1010 was old state   1009
 New state   1011 was old state   1008
 New state   1012 was old state   1013
 New state   1013 was old state   1016
 New state   1014 was old state   1010
 New state   1015 was old state   1014
 New state   1016 was old state   1018
 New state   1017 was old state   1021
 New state   1018 was old state   1015
 New state   1019 was old state   1022
 New state   1020 was old state   1017
 New state   1021 was old state   1019
 New state   1022 was old state   1020
 New state   1023 was old state   1032
 New state   1025 was old state   1023
 New state   1027 was old state   1028
 New state   1028 was old state   1025
 New state   1032 was old state   1027
 New state   1036 was old state   1037
 New state   1037 was old state   1039
 New state   1038 was old state   1036
 New state   1039 was old state   1040
 New state   1040 was old state   1038
 New state   1042 was old state   1045
 New state   1043 was old state   1042
 New state   1044 was old state   1043
 New state   1045 was old state   1044
 New state   1047 was old state   1048
 New state   1048 was old state   1047
 New state   1049 was old state   1050
 New state   1050 was old state   1049
 New state   1051 was old state   1052
 New state   1052 was old state   1051
 New state   1055 was old state   1058
 New state   1056 was old state   1060
 New state   1057 was old state   1059
 New state   1058 was old state   1055
 New state   1059 was old state   1061
 New state   1060 was old state   1056
 New state   1061 was old state   1057
 New state   1062 was old state   1065
 New state   1063 was old state   1069
 New state   1064 was old state   1062
 New state   1065 was old state   1063
 New state   1066 was old state   1064
 New state   1067 was old state   1073
 New state   1068 was old state   1072
 New state   1069 was old state   1071
 New state   1070 was old state   1068
 New state   1071 was old state   1066
 New state   1072 was old state   1067
 New state   1073 was old state   1070
 New state   1076 was old state   1077
 New state   1077 was old state   1076
 New state   1084 was old state   1086
 New state   1085 was old state   1084
 New state   1086 was old state   1085
 New state   1091 was old state   1092
 New state   1092 was old state   1093
 New state   1093 was old state   1096
 New state   1094 was old state   1091
 New state   1096 was old state   1099
 New state   1097 was old state   1094
 New state   1098 was old state   1097
 New state   1099 was old state   1101
 New state   1100 was old state   1103
 New state   1101 was old state   1107
 New state   1102 was old state   1098
 New state   1103 was old state   1100
 New state   1104 was old state   1102
 New state   1105 was old state   1104
 New state   1107 was old state   1111
 New state   1108 was old state   1110
 New state   1109 was old state   1105
 New state   1110 was old state   1108
 New state   1111 was old state   1112
 New state   1112 was old state   1109
 New state   1113 was old state   1122
 New state   1115 was old state   1116
 New state   1116 was old state   1117
 New state   1117 was old state   1121
 New state   1118 was old state   1126
 New state   1119 was old state   1128
 New state   1120 was old state   1113
 New state   1121 was old state   1115
 New state   1122 was old state   1118
 New state   1123 was old state   1119
 New state   1125 was old state   1120
 New state   1126 was old state   1123
 New state   1127 was old state   1125
 New state   1128 was old state   1131
 New state   1129 was old state   1132
 New state   1131 was old state   1127
 New state   1132 was old state   1129
 New state   1134 was old state   1138
 New state   1135 was old state   1134
 New state   1136 was old state   1137
 New state   1137 was old state   1136
 New state   1138 was old state   1135
 New state   1140 was old state   1142
 New state   1142 was old state   1140
 New state   1143 was old state   1144
 New state   1144 was old state   1143
 New state   1146 was old state   1147
 New state   1147 was old state   1146
 New state   1149 was old state   1150
 New state   1150 was old state   1151
 New state   1151 was old state   1149
 New state   1156 was old state   1157
 New state   1157 was old state   1156
 New state   1158 was old state   1160
 New state   1159 was old state   1161
 New state   1160 was old state   1163
 New state   1161 was old state   1158
 New state   1162 was old state   1165
 New state   1163 was old state   1159
 New state   1164 was old state   1166
 New state   1165 was old state   1162
 New state   1166 was old state   1164
 New state   1167 was old state   1168
 New state   1168 was old state   1167
 New state   1171 was old state   1172
 New state   1172 was old state   1171
 New state   1177 was old state   1179
 New state   1179 was old state   1180
 New state   1180 was old state   1177
 New state   1192 was old state   1193
 New state   1193 was old state   1192
 New state   1195 was old state   1197
 New state   1197 was old state   1195
 New state   1202 was old state   1205
 New state   1205 was old state   1206
 New state   1206 was old state   1207
 New state   1207 was old state   1208
 New state   1208 was old state   1202
 New state   1210 was old state   1212
 New state   1212 was old state   1210
 Excitation Energies [eV] at current iteration:
 Root      1 :     9.284586783529395
 Root      2 :     9.949574918124927
 Root      3 :    10.384354152887050
 Root      4 :    10.588502919798330
 Root      5 :    11.105022552971140
 Root      6 :    11.326456091851970
 Root      7 :    11.657130301761240
 Root      8 :    11.667245785551630
 Root      9 :    11.940908018393850
 Root     10 :    12.088646610235300
 Root     11 :    12.099346303571440
 Root     12 :    12.144795969963920
 Root     13 :    12.302653710809550
 Root     14 :    12.348321235547420
 Root     15 :    12.364625876747350
 Root     16 :    12.533612265440310
 Root     17 :    12.597907651158690
 Root     18 :    12.618043928105130
 Root     19 :    12.660267524275100
 Root     20 :    12.689848303826480
 Root     21 :    13.123804165806370
 Root     22 :    13.168742535491620
 Root     23 :    13.292386644810730
 Root     24 :    13.408770091971910
 Root     25 :    13.808749453025390
 Root     26 :    13.879937829523890
 Root     27 :    13.897818193896160
 Root     28 :    14.003384137498300
 Root     29 :    14.036766481948140
 Root     30 :    14.078923042257700
 Root     31 :    14.142981915622080
 Root     32 :    14.265809055781930
 Root     33 :    14.291191257160260
 Root     34 :    14.451753601297170
 Root     35 :    14.452425691658090
 Root     36 :    14.532927009687590
 Root     37 :    14.677033776642550
 Root     38 :    14.700318213961880
 Root     39 :    14.784786708819900
 Root     40 :    14.839354083676030
 Root     41 :    14.949655413552180
 Root     42 :    15.046074379202990
 Root     43 :    15.057909336226340
 Root     44 :    15.209149958486180
 Root     45 :    15.372875622113810
 Root     46 :    15.539958309339720
 Root     47 :    15.700166893463300
 Root     48 :    15.744549775334240
 Root     49 :    15.756417052604150
 Root     50 :    15.798140661040530
 Root     51 :    15.936773788991990
 Root     52 :    16.027676717632780
 Root     53 :    16.033375147627930
 Root     54 :    16.067035472738910
 Root     55 :    16.192393610387170
 Root     56 :    16.205167593966070
 Root     57 :    16.206917751582320
 Root     58 :    16.333527271478180
 Root     59 :    16.373093768431650
 Root     60 :    16.391394539496550
 Root     61 :    16.576356670662240
 Root     62 :    16.618140899357380
 Root     63 :    16.736138832093620
 Root     64 :    16.758440808269340
 Root     65 :    16.864087893600320
 Root     66 :    17.172630961627420
 Root     67 :    17.206097187159460
 Root     68 :    17.227119450384570
 Root     69 :    17.270515258359620
 Root     70 :    17.362388791736930
 Root     71 :    17.377033742221970
 Root     72 :    17.412998246368590
 Root     73 :    17.497535851081550
 Root     74 :    17.565308252091110
 Root     75 :    17.663203130688020
 Root     76 :    17.708218557806830
 Root     77 :    17.708314425050830
 Root     78 :    17.718586117056240
 Root     79 :    17.736062373288750
 Root     80 :    17.783862306328000
 Root     81 :    17.789336181766160
 Root     82 :    17.814795220354310
 Root     83 :    17.834659974015420
 Root     84 :    17.939949620203660
 Root     85 :    17.961363351465920
 Root     86 :    18.005438122032680
 Root     87 :    18.040727296287060
 Root     88 :    18.075983076286810
 Root     89 :    18.105052267174480
 Root     90 :    18.111207144934740
 Root     91 :    18.140428328746370
 Root     92 :    18.206472198142280
 Root     93 :    18.222981235789770
 Root     94 :    18.273064339100020
 Root     95 :    18.273845519884930
 Root     96 :    18.382700449627170
 Root     97 :    18.512502956362520
 Root     98 :    18.576411225821900
 Root     99 :    18.601206652450160
 Root    100 :    18.650310682781300
 Root    101 :    18.754369611083860
 Root    102 :    18.773233803137290
 Root    103 :    18.954834402031060
 Root    104 :    19.054157001511610
 Root    105 :    19.060612054090490
 Root    106 :    19.165425537892420
 Root    107 :    19.178461482488040
 Root    108 :    19.220568854596260
 Root    109 :    19.350502267074710
 Root    110 :    19.435554354806950
 Root    111 :    19.511788683561730
 Root    112 :    19.532191376107740
 Root    113 :    19.613055260551480
 Root    114 :    19.729811504830620
 Root    115 :    19.733051121096740
 Root    116 :    19.800555297336020
 Root    117 :    19.869153759413420
 Root    118 :    20.043432682247360
 Root    119 :    20.048439762461310
 Root    120 :    20.125864196844360
 Root    121 :    20.134919856778680
 Root    122 :    20.250003098710040
 Root    123 :    20.268424140682480
 Root    124 :    20.374622302824620
 Root    125 :    20.392273724928260
 Root    126 :    20.467898171031050
 Root    127 :    20.555623962314710
 Root    128 :    20.601497767058660
 Root    129 :    20.701709370476540
 Root    130 :    20.793481727142770
 Root    131 :    20.814657949761970
 Root    132 :    20.862588041448540
 Root    133 :    20.876986864231180
 Root    134 :    21.113914067613020
 Root    135 :    21.218165826117560
 Root    136 :    21.274184500560270
 Root    137 :    21.278658161937630
 Root    138 :    21.318518220479610
 Root    139 :    21.396576729066590
 Root    140 :    21.418167954858570
 Root    141 :    21.443680419555440
 Root    142 :    21.534696198852230
 Root    143 :    21.549450432004980
 Root    144 :    21.568268108082200
 Root    145 :    21.602062913825820
 Root    146 :    21.669812309567910
 Root    147 :    21.683570353750570
 Root    148 :    21.684278250638150
 Root    149 :    21.717725784875660
 Root    150 :    21.781761317364830
 Root    151 :    21.846958044262440
 Root    152 :    21.868728044310020
 Root    153 :    21.924079009452260
 Root    154 :    22.219056908660130
 Root    155 :    22.374459626972460
 Root    156 :    22.491514114302540
 Root    157 :    22.499309971526860
 Root    158 :    22.589581250087830
 Root    159 :    22.630827911417870
 Root    160 :    22.655507191525600
 Root    161 :    22.688617011322540
 Root    162 :    22.711191279192200
 Root    163 :    22.759737084614080
 Root    164 :    22.770716314572800
 Root    165 :    22.852188594003970
 Root    166 :    22.866850542105390
 Root    167 :    22.877708553330670
 Root    168 :    22.941442421650000
 Root    169 :    22.969211051756910
 Root    170 :    23.008360060283780
 Root    171 :    23.054492486629730
 Root    172 :    23.090361133944330
 Root    173 :    23.093997334019050
 Root    174 :    23.130098630197950
 Root    175 :    23.132850381556910
 Root    176 :    23.269382378640420
 Root    177 :    23.403378673106690
 Root    178 :    23.425420223677370
 Root    179 :    23.452113440952570
 Root    180 :    23.578305896724160
 Root    181 :    23.591844543324100
 Root    182 :    23.812525594126160
 Root    183 :    24.285869605782700
 Root    184 :    24.358665982494270
 Root    185 :    24.376208111073010
 Root    186 :    24.407534608131180
 Root    187 :    24.486186911727820
 Root    188 :    24.784607834702620
 Root    189 :    24.797337611174340
 Root    190 :    24.868561382382730
 Root    191 :    24.908591157985740
 Root    192 :    25.159623804508270
 Root    193 :    25.179980917825090
 Root    194 :    25.229464765460110
 Root    195 :    25.318585726408120
 Root    196 :    25.341130564120670
 Root    197 :    25.378283443208290
 Root    198 :    25.475257637998210
 Root    199 :    25.736701166746890
 Root    200 :    25.752945844421650
 Root    201 :    25.873601131504700
 Root    202 :    26.019812861732700
 Root    203 :    26.106118585833610
 Root    204 :    26.231655783146370
 Root    205 :    26.306152992346870
 Root    206 :    26.372618600997960
 Root    207 :    26.373251822962090
 Root    208 :    26.408586879162480
 Root    209 :    26.494128021830790
 Root    210 :    26.495607170891750
 Root    211 :    26.541683765496070
 Root    212 :    26.605499237843360
 Root    213 :    26.616432342506320
 Root    214 :    26.635071681265610
 Root    215 :    26.827819678257340
 Root    216 :    26.851433916565690
 Root    217 :    26.862906537623190
 Root    218 :    27.103223686729590
 Root    219 :    27.108768094612210
 Root    220 :    27.236439015152880
 Root    221 :    27.301771187740110
 Root    222 :    27.400446274797070
 Root    223 :    27.422221595447060
 Root    224 :    27.428173176356180
 Root    225 :    27.430429534317370
 Root    226 :    27.505682746088350
 Root    227 :    27.566695813820810
 Root    228 :    27.651907414886030
 Root    229 :    27.654370065033620
 Root    230 :    27.727530803437660
 Root    231 :    27.811073321042100
 Root    232 :    28.054646770722450
 Root    233 :    28.065552471282350
 Root    234 :    28.156897338676150
 Root    235 :    28.308737579186200
 Root    236 :    28.328953115274230
 Root    237 :    28.378336683120440
 Root    238 :    28.402186045582210
 Root    239 :    28.590707040215890
 Root    240 :    28.856747784233630
 Root    241 :    28.865520029446320
 Root    242 :    29.057403897786200
 Root    243 :    29.097735876715470
 Root    244 :    29.144764848292660
 Root    245 :    29.167794084218530
 Root    246 :    29.411395201638300
 Root    247 :    29.436139204747420
 Root    248 :    29.447043480506230
 Root    249 :    29.568016361988150
 Root    250 :    29.688306516054710
 Root    251 :    29.786598905552660
 Root    252 :    29.804912989734630
 Root    253 :    30.019499461917640
 Root    254 :    30.056741877786310
 Root    255 :    30.254289171193840
 Root    256 :    30.275916920016520
 Root    257 :    30.398547001953710
 Root    258 :    30.411748695842790
 Root    259 :    30.474898904939800
 Root    260 :    30.511508907673360
 Root    261 :    30.555077335014900
 Root    262 :    30.706094532972590
 Root    263 :    30.803936382906140
 Root    264 :    30.862434302591060
 Root    265 :    30.926266078147160
 Root    266 :    30.949819478325990
 Root    267 :    30.989031158392850
 Root    268 :    30.994476168089810
 Root    269 :    31.058463748035230
 Root    270 :    31.105750927950530
 Root    271 :    31.120843485777670
 Root    272 :    31.203634639286440
 Root    273 :    31.312961672750580
 Root    274 :    31.429459230073810
 Root    275 :    31.435731528704900
 Root    276 :    31.551339323734340
 Root    277 :    31.555149354380620
 Root    278 :    31.764267793081460
 Root    279 :    31.912583780987250
 Root    280 :    31.944914449788680
 Root    281 :    32.256442178010520
 Root    282 :    32.387477275928110
 Root    283 :    32.460150085499320
 Root    284 :    32.598314633576270
 Root    285 :    32.622411635857640
 Root    286 :    32.655686720104470
 Root    287 :    32.662862780938750
 Root    288 :    32.838445306423150
 Root    289 :    32.903804078508990
 Root    290 :    32.956319093702300
 Root    291 :    33.027243817892280
 Root    292 :    33.081270662096020
 Root    293 :    33.098564084322430
 Root    294 :    33.207103140947310
 Root    295 :    33.244830301319060
 Root    296 :    33.574188452257400
 Root    297 :    33.785863355696980
 Root    298 :    33.792258526688020
 Root    299 :    33.846763011395980
 Root    300 :    33.922366732172330
 Root    301 :    34.117106560408220
 Root    302 :    34.170627292871250
 Root    303 :    34.214844526354940
 Root    304 :    34.268205738804890
 Root    305 :    34.299957608052060
 Root    306 :    34.303193461775770
 Root    307 :    34.511502594722760
 Root    308 :    34.634181258450620
 Root    309 :    34.744801199180860
 Root    310 :    34.845708196027500
 Root    311 :    34.964598899796670
 Root    312 :    35.080542536848720
 Root    313 :    35.121790932966360
 Root    314 :    35.218866964235900
 Root    315 :    35.264607451288430
 Root    316 :    35.389125530612680
 Root    317 :    35.390756798101770
 Root    318 :    35.402370995029050
 Root    319 :    35.425416881387800
 Root    320 :    35.469243053216800
 Root    321 :    35.618074842979690
 Root    322 :    35.627431909640330
 Root    323 :    35.725983865971510
 Root    324 :    35.894095687540640
 Root    325 :    35.976181563251150
 Root    326 :    35.984563280061920
 Root    327 :    35.988729143492410
 Root    328 :    35.995941854478570
 Root    329 :    36.032547624856060
 Root    330 :    36.047631690216720
 Root    331 :    36.079452283269520
 Root    332 :    36.267673916815440
 Root    333 :    36.371548445327290
 Root    334 :    36.445800317719350
 Root    335 :    36.552828267012980
 Root    336 :    36.685612445890580
 Root    337 :    36.952334170512710
 Root    338 :    37.001200744003110
 Root    339 :    37.095005154024440
 Root    340 :    37.228891711769490
 Root    341 :    37.338429718939890
 Root    342 :    37.377432322119230
 Root    343 :    37.452050412246340
 Root    344 :    37.616866168844380
 Root    345 :    37.651438126755070
 Root    346 :    37.725460271945010
 Root    347 :    37.917171054738470
 Root    348 :    37.966895061142000
 Root    349 :    38.114396828884120
 Root    350 :    38.120745015471210
 Root    351 :    38.177708661907730
 Root    352 :    38.432245045069660
 Root    353 :    38.470168646055160
 Root    354 :    38.517539553039720
 Root    355 :    38.536127766407650
 Root    356 :    38.612979957917740
 Root    357 :    38.616281225749720
 Root    358 :    38.635469572335270
 Root    359 :    38.737759872944810
 Root    360 :    38.845282965123470
 Root    361 :    39.019400473582220
 Root    362 :    39.067206348187490
 Root    363 :    39.181994983520570
 Root    364 :    39.197148252374000
 Root    365 :    39.248959540493880
 Root    366 :    39.292180121720070
 Root    367 :    39.292788969236270
 Root    368 :    39.428327694113350
 Root    369 :    39.465421857351140
 Root    370 :    39.594438224932250
 Root    371 :    39.685984575711040
 Root    372 :    39.774227823946210
 Root    373 :    39.786944638000810
 Root    374 :    39.800002088076050
 Root    375 :    39.833585476727290
 Root    376 :    39.875424920740970
 Root    377 :    40.110639056763680
 Root    378 :    40.160569537960720
 Root    379 :    40.252011732924440
 Root    380 :    40.313907585139480
 Root    381 :    40.318166049606350
 Root    382 :    40.548847793283510
 Root    383 :    40.572458714929480
 Root    384 :    40.818696700443430
 Root    385 :    40.907865237125030
 Root    386 :    40.916364243825900
 Root    387 :    40.958180872778770
 Root    388 :    41.024621222583300
 Root    389 :    41.057971834504670
 Root    390 :    41.069224534537870
 Root    391 :    41.102290759359280
 Root    392 :    41.155218128145340
 Root    393 :    41.243020034658720
 Root    394 :    41.273412257781970
 Root    395 :    41.299675390138330
 Root    396 :    41.307407386656300
 Root    397 :    41.327662270521490
 Root    398 :    41.416726372909660
 Root    399 :    41.419220692522880
 Root    400 :    41.477532189026820
 Root    401 :    41.491863046992790
 Root    402 :    41.559484090704470
 Root    403 :    41.861078705122490
 Root    404 :    41.909940447615750
 Root    405 :    42.052164290652750
 Root    406 :    42.115386056379140
 Root    407 :    42.244512271036260
 Root    408 :    42.443867794813450
 Root    409 :    42.447094458627160
 Root    410 :    42.504110518575430
 Root    411 :    42.600158219767590
 Root    412 :    42.610668394163830
 Root    413 :    42.651089002392730
 Root    414 :    42.666994544176350
 Root    415 :    42.887060714985550
 Root    416 :    42.915004321114030
 Root    417 :    43.004656041766840
 Root    418 :    43.051178254884680
 Root    419 :    43.127787439691780
 Root    420 :    43.221127420250630
 Root    421 :    43.235328502944720
[...]
     13   0.000000D+00 -0.143036D+00  0.000000D+00  0.359002D+00  0.000000D+00
     14   0.427759D+00  0.000000D+00  0.000000D+00  0.000000D+00  0.000000D+00
     15   0.000000D+00  0.000000D+00  0.000000D+00  0.000000D+00  0.458270D-01
     16   0.000000D+00  0.000000D+00  0.120231D+01  0.000000D+00  0.000000D+00
              1151          1152          1153          1154          1155 
      1  -0.229578D+03 -0.229574D+03 -0.229563D+03 -0.229528D+03 -0.229497D+03
      2   0.000000D+00  0.218561D-02  0.000000D+00  0.101717D+00  0.000000D+00
      3   0.975049D-02  0.000000D+00  0.000000D+00  0.000000D+00  0.308729D-01
      4   0.000000D+00  0.000000D+00  0.000000D+00  0.000000D+00  0.000000D+00
      5   0.000000D+00 -0.248324D-01  0.000000D+00 -0.101758D+01  0.000000D+00
      6  -0.837382D-01  0.000000D+00  0.000000D+00  0.000000D+00 -0.327793D+00
      7   0.000000D+00  0.000000D+00  0.000000D+00  0.000000D+00  0.000000D+00
      8   0.252438D+00  0.000000D+00  0.000000D+00  0.000000D+00 -0.237696D+01
      9   0.000000D+00  0.176784D-01  0.000000D+00  0.589883D+00  0.000000D+00
     10   0.000000D+00  0.000000D+00  0.186886D+00  0.000000D+00  0.000000D+00
     11   0.000000D+00  0.000000D+00  0.000000D+00  0.000000D+00  0.000000D+00
     12   0.000000D+00  0.000000D+00  0.000000D+00  0.000000D+00  0.000000D+00
     13   0.000000D+00  0.000000D+00  0.000000D+00  0.000000D+00  0.000000D+00
     14   0.000000D+00  0.000000D+00 -0.159093D+00  0.000000D+00  0.000000D+00
     15   0.000000D+00 -0.388269D-02  0.000000D+00  0.636844D+00  0.000000D+00
     16   0.438006D+00  0.000000D+00  0.000000D+00  0.000000D+00 -0.209562D+01
              1156          1157          1158          1159          1160 
      1  -0.229493D+03 -0.229488D+03 -0.229451D+03 -0.229431D+03 -0.229420D+03
      2   0.000000D+00  0.000000D+00  0.227468D-02  0.000000D+00  0.000000D+00
      3   0.000000D+00  0.000000D+00  0.000000D+00  0.000000D+00  0.000000D+00
      4   0.000000D+00  0.654799D-01  0.000000D+00  0.136965D-01  0.000000D+00
      5   0.000000D+00  0.000000D+00 -0.231124D-01  0.000000D+00  0.000000D+00
      6   0.000000D+00  0.000000D+00  0.000000D+00  0.000000D+00  0.000000D+00
      7   0.000000D+00 -0.660689D+00  0.000000D+00 -0.140489D+00  0.000000D+00
      8   0.000000D+00  0.000000D+00  0.000000D+00  0.000000D+00  0.000000D+00
      9   0.000000D+00  0.000000D+00  0.134058D-01  0.000000D+00  0.000000D+00
     10   0.240819D+01  0.000000D+00  0.000000D+00  0.000000D+00  0.548919D-01
     11   0.000000D+00  0.806973D-02  0.000000D+00 -0.554310D-01  0.000000D+00
     12   0.000000D+00 -0.320757D+01  0.000000D+00 -0.483772D+00  0.000000D+00
     13   0.000000D+00  0.828389D+00  0.000000D+00  0.180900D+00  0.000000D+00
     14  -0.253379D+01  0.000000D+00  0.000000D+00  0.000000D+00 -0.987054D-01
     15   0.000000D+00  0.000000D+00 -0.281726D-01  0.000000D+00  0.000000D+00
     16   0.000000D+00  0.000000D+00  0.000000D+00  0.000000D+00  0.000000D+00
              1161          1162          1163          1164          1165 
      1  -0.229412D+03 -0.229410D+03 -0.229381D+03 -0.229367D+03 -0.229366D+03
      2   0.000000D+00  0.000000D+00  0.000000D+00  0.602843D-01  0.000000D+00
      3   0.000000D+00 -0.190950D-03  0.000000D+00  0.000000D+00  0.000000D+00
      4  -0.319081D-01  0.000000D+00  0.000000D+00  0.000000D+00  0.957090D-01
      5   0.000000D+00  0.000000D+00  0.000000D+00 -0.616044D+00  0.000000D+00
      6   0.000000D+00 -0.291202D-02  0.000000D+00  0.000000D+00  0.000000D+00
      7   0.329060D+00  0.000000D+00  0.000000D+00  0.000000D+00 -0.912901D+00
      8   0.000000D+00 -0.621429D-01  0.000000D+00  0.000000D+00  0.000000D+00
      9   0.000000D+00  0.000000D+00  0.000000D+00  0.289866D+00  0.000000D+00
     10   0.000000D+00  0.000000D+00 -0.628887D-01  0.000000D+00  0.000000D+00
     11  -0.328967D-01  0.000000D+00  0.000000D+00  0.000000D+00 -0.413347D-01
     12   0.140325D+01  0.000000D+00  0.000000D+00  0.000000D+00  0.219379D+01
     13  -0.312658D+00  0.000000D+00  0.000000D+00  0.000000D+00  0.104917D+01
     14   0.000000D+00  0.000000D+00  0.599797D-01  0.000000D+00  0.000000D+00
     15   0.000000D+00  0.000000D+00  0.000000D+00  0.340243D+00  0.000000D+00
     16   0.000000D+00 -0.273132D-01  0.000000D+00  0.000000D+00  0.000000D+00
              1166          1167          1168          1169          1170 
      1  -0.229342D+03 -0.229301D+03 -0.229298D+03 -0.229287D+03 -0.229285D+03
      2   0.000000D+00  0.000000D+00  0.000000D+00  0.000000D+00  0.000000D+00
      3   0.124748D+00  0.547252D-01 -0.187469D-01  0.000000D+00  0.000000D+00
      4   0.000000D+00  0.000000D+00  0.000000D+00  0.256248D-01  0.000000D+00
      5   0.000000D+00  0.000000D+00  0.000000D+00  0.000000D+00  0.000000D+00
      6  -0.119106D+01 -0.512814D+00  0.179087D+00  0.000000D+00  0.000000D+00
      7   0.000000D+00  0.000000D+00  0.000000D+00 -0.248861D+00  0.000000D+00
      8   0.113005D+00  0.657205D+00  0.147626D+00  0.000000D+00  0.000000D+00
      9   0.000000D+00  0.000000D+00  0.000000D+00  0.000000D+00  0.000000D+00
     10   0.000000D+00  0.000000D+00  0.000000D+00  0.000000D+00  0.107553D+00
     11   0.000000D+00  0.000000D+00  0.000000D+00 -0.414009D-01  0.000000D+00
     12   0.000000D+00  0.000000D+00  0.000000D+00  0.218744D+01  0.000000D+00
     13   0.000000D+00  0.000000D+00  0.000000D+00  0.271794D+00  0.000000D+00
     14   0.000000D+00  0.000000D+00  0.000000D+00  0.000000D+00 -0.111684D+00
     15   0.000000D+00  0.000000D+00  0.000000D+00  0.000000D+00  0.000000D+00
     16   0.158797D+01  0.129267D+01 -0.486638D-01  0.000000D+00  0.000000D+00
              1171          1172          1173          1174          1175 
      1  -0.229282D+03 -0.229278D+03 -0.229254D+03 -0.229213D+03 -0.229200D+03
      2   0.000000D+00  0.998352D-02  0.110773D-02  0.000000D+00  0.000000D+00
      3   0.000000D+00  0.000000D+00  0.000000D+00  0.000000D+00 -0.215317D-01
      4   0.832094D-02  0.000000D+00  0.000000D+00 -0.525420D-01  0.000000D+00
      5   0.000000D+00 -0.978461D-01 -0.123395D-01  0.000000D+00  0.000000D+00
      6   0.000000D+00  0.000000D+00  0.000000D+00  0.000000D+00  0.188819D+00
      7  -0.888847D-01  0.000000D+00  0.000000D+00  0.485036D+00  0.000000D+00
      8   0.000000D+00  0.000000D+00  0.000000D+00  0.000000D+00 -0.868661D+00
      9   0.000000D+00  0.738194D-02  0.416589D-02  0.000000D+00  0.000000D+00
     10   0.000000D+00  0.000000D+00  0.000000D+00  0.000000D+00  0.000000D+00
     11  -0.152812D-01  0.000000D+00  0.000000D+00  0.531261D-01  0.000000D+00
     12  -0.413327D+00  0.000000D+00  0.000000D+00 -0.401906D+01  0.000000D+00
     13   0.159302D+00  0.000000D+00  0.000000D+00 -0.625741D+00  0.000000D+00
     14   0.000000D+00  0.000000D+00  0.000000D+00  0.000000D+00  0.000000D+00
     15   0.000000D+00 -0.112089D-01  0.334095D-01  0.000000D+00  0.000000D+00
     16   0.000000D+00  0.000000D+00  0.000000D+00  0.000000D+00 -0.127589D+01
              1176          1177          1178          1179          1180 
      1  -0.229199D+03 -0.229160D+03 -0.229159D+03 -0.229156D+03 -0.229125D+03
      2   0.000000D+00  0.000000D+00  0.000000D+00  0.146186D-01  0.000000D+00
      3   0.000000D+00  0.000000D+00  0.000000D+00  0.000000D+00  0.000000D+00
      4   0.000000D+00  0.000000D+00 -0.948471D-02  0.000000D+00 -0.151547D-01
      5   0.000000D+00  0.000000D+00  0.000000D+00 -0.169519D+00  0.000000D+00
      6   0.000000D+00  0.000000D+00  0.000000D+00  0.000000D+00  0.000000D+00
      7   0.000000D+00  0.000000D+00  0.107034D+00  0.000000D+00  0.117255D+00
      8   0.000000D+00  0.000000D+00  0.000000D+00  0.000000D+00  0.000000D+00
      9   0.000000D+00  0.000000D+00  0.000000D+00  0.867918D-01  0.000000D+00
     10   0.409713D+00  0.343364D+00  0.000000D+00  0.000000D+00  0.000000D+00
     11   0.000000D+00  0.000000D+00  0.360756D-02  0.000000D+00 -0.193456D-01
     12   0.000000D+00  0.000000D+00  0.296462D+00  0.000000D+00 -0.100134D+01
     13   0.000000D+00  0.000000D+00 -0.176656D+00  0.000000D+00 -0.839238D-01
     14  -0.415824D+00 -0.428391D+00  0.000000D+00  0.000000D+00  0.000000D+00
     15   0.000000D+00  0.000000D+00  0.000000D+00  0.148954D+00  0.000000D+00
     16   0.000000D+00  0.000000D+00  0.000000D+00  0.000000D+00  0.000000D+00
              1181          1182          1183          1184          1185 
      1  -0.229115D+03 -0.229031D+03 -0.229009D+03 -0.229005D+03 -0.228934D+03
      2   0.000000D+00  0.000000D+00  0.269894D-02  0.000000D+00  0.000000D+00
      3  -0.453297D-02  0.479918D-01  0.000000D+00  0.000000D+00  0.568489D-02
      4   0.000000D+00  0.000000D+00  0.000000D+00  0.000000D+00  0.000000D+00
      5   0.000000D+00  0.000000D+00 -0.354036D-01  0.000000D+00  0.000000D+00
      6   0.520250D-01 -0.428563D+00  0.000000D+00  0.000000D+00 -0.378506D-01
      7   0.000000D+00  0.000000D+00  0.000000D+00  0.000000D+00  0.000000D+00
      8   0.255054D+00  0.398021D+00  0.000000D+00  0.000000D+00  0.486396D-01
      9   0.000000D+00  0.000000D+00  0.228951D-01  0.000000D+00  0.000000D+00
     10   0.000000D+00  0.000000D+00  0.000000D+00  0.130853D+00  0.000000D+00
     11   0.000000D+00  0.000000D+00  0.000000D+00  0.000000D+00  0.000000D+00
     12   0.000000D+00  0.000000D+00  0.000000D+00  0.000000D+00  0.000000D+00
     13   0.000000D+00  0.000000D+00  0.000000D+00  0.000000D+00  0.000000D+00
     14   0.000000D+00  0.000000D+00  0.000000D+00 -0.143492D+00  0.000000D+00
     15   0.000000D+00  0.000000D+00  0.247817D-01  0.000000D+00  0.000000D+00
     16   0.227879D+00  0.773267D+00  0.000000D+00  0.000000D+00  0.144334D+00
              1186          1187          1188          1189          1190 
      1  -0.228887D+03 -0.228711D+03 -0.228679D+03 -0.228525D+03 -0.228494D+03
      2   0.000000D+00  0.000000D+00  0.000000D+00  0.000000D+00  0.000000D+00
      3   0.000000D+00 -0.519597D-02  0.000000D+00  0.000000D+00  0.169389D-02
      4  -0.625389D-02  0.000000D+00  0.299657D-02  0.675628D-02  0.000000D+00
      5   0.000000D+00  0.000000D+00  0.000000D+00  0.000000D+00  0.000000D+00
      6   0.000000D+00  0.704243D-01  0.000000D+00  0.000000D+00  0.809297D-02
      7   0.688012D-01  0.000000D+00 -0.509655D-01 -0.616112D-01  0.000000D+00
      8   0.000000D+00 -0.515945D-01  0.000000D+00  0.000000D+00 -0.943563D-02
      9   0.000000D+00  0.000000D+00  0.000000D+00  0.000000D+00  0.000000D+00
     10   0.000000D+00  0.000000D+00  0.000000D+00  0.000000D+00  0.000000D+00
     11  -0.515416D-02  0.000000D+00  0.555227D-01  0.905776D-02  0.000000D+00
     12   0.150091D+00  0.000000D+00  0.136255D+00  0.129827D+00  0.000000D+00
     13  -0.907913D-01  0.000000D+00  0.337202D-01  0.193243D-01  0.000000D+00
     14   0.000000D+00  0.000000D+00  0.000000D+00  0.000000D+00  0.000000D+00
     15   0.000000D+00  0.000000D+00  0.000000D+00  0.000000D+00  0.000000D+00
     16   0.000000D+00 -0.285629D-01  0.000000D+00  0.000000D+00  0.185887D-01
              1191          1192          1193          1194          1195 
      1  -0.216223D+03 -0.216132D+03 -0.216123D+03 -0.216101D+03 -0.216018D+03
      2   0.113418D-01  0.000000D+00  0.000000D+00  0.000000D+00 -0.631737D-02
      3   0.000000D+00  0.000000D+00  0.290910D-02  0.000000D+00  0.000000D+00
      4   0.000000D+00  0.789923D-02  0.000000D+00  0.000000D+00  0.000000D+00
      5  -0.132189D+00  0.000000D+00  0.000000D+00  0.000000D+00  0.807102D-01
      6   0.000000D+00  0.000000D+00 -0.263129D-01  0.000000D+00  0.000000D+00
      7   0.000000D+00 -0.982949D-01  0.000000D+00  0.000000D+00  0.000000D+00
      8   0.000000D+00  0.000000D+00 -0.346380D-01  0.000000D+00  0.000000D+00
      9  -0.102422D+00  0.000000D+00  0.000000D+00  0.000000D+00  0.100864D+00
     10   0.000000D+00  0.000000D+00  0.000000D+00  0.472974D-01  0.000000D+00
     11   0.000000D+00 -0.758471D-01  0.000000D+00  0.000000D+00  0.000000D+00
     12   0.000000D+00 -0.621882D-01  0.000000D+00  0.000000D+00  0.000000D+00
     13   0.000000D+00 -0.195167D+00  0.000000D+00  0.000000D+00  0.000000D+00
     14   0.000000D+00  0.000000D+00  0.000000D+00 -0.483600D-01  0.000000D+00
     15  -0.151264D+00  0.000000D+00  0.000000D+00  0.000000D+00  0.110422D+00
     16   0.000000D+00  0.000000D+00 -0.335545D-01  0.000000D+00  0.000000D+00
              1196          1197          1198          1199          1200 
      1  -0.216017D+03 -0.216016D+03 -0.215831D+03 -0.215332D+03 -0.215278D+03
      2   0.000000D+00  0.000000D+00  0.000000D+00  0.000000D+00  0.000000D+00
      3   0.000000D+00 -0.720680D-02  0.000000D+00 -0.683981D-02  0.000000D+00
      4  -0.647170D-02  0.000000D+00 -0.534010D-02  0.000000D+00  0.302734D-02
      5   0.000000D+00  0.000000D+00  0.000000D+00  0.000000D+00  0.000000D+00
      6   0.000000D+00  0.925874D-01  0.000000D+00  0.925165D-01  0.000000D+00
      7   0.820474D-01  0.000000D+00  0.463030D-01  0.000000D+00 -0.545679D-01
      8   0.000000D+00 -0.988747D-01  0.000000D+00 -0.954870D-01  0.000000D+00
      9   0.000000D+00  0.000000D+00  0.000000D+00  0.000000D+00  0.000000D+00
     10   0.000000D+00  0.000000D+00  0.000000D+00  0.000000D+00  0.000000D+00
     11   0.315376D-01  0.000000D+00  0.189587D+00  0.000000D+00  0.736555D-01
     12   0.186724D-02  0.000000D+00  0.667646D-01  0.000000D+00  0.253125D+00
     13   0.228402D+00  0.000000D+00  0.207653D+00  0.000000D+00  0.716764D-01
     14   0.000000D+00  0.000000D+00  0.000000D+00  0.000000D+00  0.000000D+00
     15   0.000000D+00  0.000000D+00  0.000000D+00  0.000000D+00  0.000000D+00
     16   0.000000D+00  0.125727D+00  0.000000D+00 -0.625025D-01  0.000000D+00
              1201          1202          1203          1204          1205 
      1  -0.181588D+03 -0.181578D+03 -0.181566D+03 -0.181560D+03 -0.181442D+03
      2   0.000000D+00  0.196962D-01  0.000000D+00  0.000000D+00  0.000000D+00
      3   0.000000D+00  0.000000D+00  0.000000D+00  0.102960D-01 -0.108316D-01
      4   0.000000D+00  0.000000D+00  0.143574D-01  0.000000D+00  0.000000D+00
      5   0.000000D+00 -0.450614D+00  0.000000D+00  0.000000D+00  0.000000D+00
      6   0.000000D+00  0.000000D+00  0.000000D+00 -0.238627D+00  0.316958D+00
      7   0.000000D+00  0.000000D+00 -0.345256D+00  0.000000D+00  0.000000D+00
      8   0.000000D+00  0.000000D+00  0.000000D+00 -0.917108D+00 -0.157254D+00
      9   0.000000D+00  0.244076D+00  0.000000D+00  0.000000D+00  0.000000D+00
     10   0.898997D+00  0.000000D+00  0.000000D+00  0.000000D+00  0.000000D+00
     11   0.000000D+00  0.000000D+00  0.512166D-03  0.000000D+00  0.000000D+00
     12   0.000000D+00  0.000000D+00 -0.117170D+01  0.000000D+00  0.000000D+00
     13   0.000000D+00  0.000000D+00  0.385273D+00  0.000000D+00  0.000000D+00
     14  -0.890733D+00  0.000000D+00  0.000000D+00  0.000000D+00  0.000000D+00
     15   0.000000D+00  0.242256D+00  0.000000D+00  0.000000D+00  0.000000D+00
     16   0.000000D+00  0.000000D+00  0.000000D+00 -0.658701D+00 -0.529819D+00
              1206          1207          1208          1209          1210 
      1  -0.181440D+03 -0.181389D+03 -0.181388D+03 -0.181307D+03 -0.181300D+03
      2   0.000000D+00  0.000000D+00 -0.251946D-02  0.000000D+00  0.000000D+00
      3   0.000000D+00  0.000000D+00  0.000000D+00  0.000000D+00 -0.309579D-02
      4   0.876341D-02  0.000000D+00  0.000000D+00  0.584521D-03  0.000000D+00
      5   0.000000D+00  0.000000D+00  0.487696D-01  0.000000D+00  0.000000D+00
      6   0.000000D+00  0.000000D+00  0.000000D+00  0.000000D+00  0.125741D+00
      7  -0.251433D+00  0.000000D+00  0.000000D+00 -0.502620D-01  0.000000D+00
      8   0.000000D+00  0.000000D+00  0.000000D+00  0.000000D+00 -0.144595D+00
      9   0.000000D+00  0.000000D+00 -0.290304D-01  0.000000D+00  0.000000D+00
     10   0.000000D+00  0.305838D+00  0.000000D+00  0.000000D+00  0.000000D+00
     11   0.455997D-01  0.000000D+00  0.000000D+00  0.663909D-01  0.000000D+00
     12   0.120218D+01  0.000000D+00  0.000000D+00  0.579961D+00  0.000000D+00
     13   0.334736D+00  0.000000D+00  0.000000D+00  0.138698D+00  0.000000D+00
     14   0.000000D+00 -0.334765D+00  0.000000D+00  0.000000D+00  0.000000D+00
     15   0.000000D+00  0.000000D+00 -0.227769D-01  0.000000D+00  0.000000D+00
     16   0.000000D+00  0.000000D+00  0.000000D+00  0.000000D+00 -0.283694D+00
              1211          1212          1213          1214          1215 
      1  -0.181262D+03 -0.181248D+03 -0.181230D+03 -0.181227D+03 -0.181101D+03
      2   0.000000D+00  0.000000D+00  0.000000D+00  0.220454D-02  0.000000D+00
      3   0.000000D+00 -0.144553D-02  0.000000D+00  0.000000D+00 -0.286018D-02
      4   0.000000D+00  0.000000D+00  0.230007D-02  0.000000D+00  0.000000D+00
      5   0.000000D+00  0.000000D+00  0.000000D+00 -0.797587D-01  0.000000D+00
      6   0.000000D+00  0.295141D-01  0.000000D+00  0.000000D+00  0.549223D-01
      7   0.000000D+00  0.000000D+00 -0.348594D-01  0.000000D+00  0.000000D+00
      8   0.000000D+00 -0.173394D+00  0.000000D+00  0.000000D+00 -0.615682D-01
      9   0.000000D+00  0.000000D+00  0.000000D+00  0.485145D-01  0.000000D+00
     10   0.934143D-01  0.000000D+00  0.000000D+00  0.000000D+00  0.000000D+00
     11   0.000000D+00  0.000000D+00 -0.297365D-01  0.000000D+00  0.000000D+00
     12   0.000000D+00  0.000000D+00 -0.326093D+00  0.000000D+00  0.000000D+00
     13   0.000000D+00  0.000000D+00  0.385183D-01  0.000000D+00  0.000000D+00
     14  -0.890355D-01  0.000000D+00  0.000000D+00  0.000000D+00  0.000000D+00
     15   0.000000D+00  0.000000D+00  0.000000D+00  0.420436D-01  0.000000D+00
     16   0.000000D+00 -0.196158D+00  0.000000D+00  0.000000D+00 -0.881644D-01
              1216          1217          1218          1219          1220 
      1  -0.181061D+03 -0.180657D+03 -0.180638D+03 -0.180527D+03 -0.180508D+03
      2   0.000000D+00  0.000000D+00  0.000000D+00  0.000000D+00  0.000000D+00
      3   0.000000D+00  0.000000D+00  0.413114D-03 -0.799687D-03  0.000000D+00
      4   0.303044D-02 -0.137761D-03  0.000000D+00  0.000000D+00  0.290610D-03
      5   0.000000D+00  0.000000D+00  0.000000D+00  0.000000D+00  0.000000D+00
      6   0.000000D+00  0.000000D+00  0.112602D-01  0.128174D-01  0.000000D+00
      7  -0.618031D-01 -0.861616D-02  0.000000D+00  0.000000D+00 -0.587754D-02
      8   0.000000D+00  0.000000D+00 -0.135179D-01 -0.687053D-03  0.000000D+00
      9   0.000000D+00  0.000000D+00  0.000000D+00  0.000000D+00  0.000000D+00
     10   0.000000D+00  0.000000D+00  0.000000D+00  0.000000D+00  0.000000D+00
     11   0.955432D-01 -0.320835D+00  0.000000D+00  0.000000D+00 -0.108726D+00
     12   0.353903D+00 -0.274029D+00  0.000000D+00  0.000000D+00 -0.696294D-01
     13   0.140809D+00 -0.305142D+00  0.000000D+00  0.000000D+00 -0.113043D+00
     14   0.000000D+00  0.000000D+00  0.000000D+00  0.000000D+00  0.000000D+00
     15   0.000000D+00  0.000000D+00  0.000000D+00  0.000000D+00  0.000000D+00
     16   0.000000D+00  0.000000D+00 -0.288290D-01 -0.708501D-02  0.000000D+00
 Unable to Open any file for archive entry.
 1\1\GINC-HEL19\SP\RwB97XD TD-FC\Gen\C1H2F2\RR\27-Feb-2022\0\\#P TD(Nst
 ates=10000) wB97XD/Gen SCF(maxcycles=100) Int(Grid=ultrafine)\\xGDB7_0
 0001_tier4.com\\0,1\F,0,0.,1.098813,-0.28912\C,0,0.,0.,0.499944\F,0,0.
 ,-1.098813,-0.28912\H,0,-0.911346,0.,1.102246\H,0,0.911346,0.,1.102246
 \\Version=EM64L-G16RevC.01\State=1-A1\HF=-239.0271981\RMSD=1.115e-09\P
 G=C02V [C2(C1),SGV(F2),SGV'(H2)]\\@
 The archive entry for this job was punched.


 We make a living by what we get,
 we make a life by what we give.
                   -- Sir Winston Churchill
 Job cpu time:       0 days  0 hours 11 minutes  9.7 seconds.
 Elapsed time:       0 days  0 hours  1 minutes 25.0 seconds.
 File lengths (MBytes):  RWF=   1941 Int=      0 D2E=      0 Chk=    518 Scr=      1
 Normal termination of Gaussian 16 at Sun Feb 27 06:40:43 2022.
