 Entering Gaussian System, Link 0=g16
 Input=bigQM7w_TDwB97XD_def2TZVP_000001.com
 Output=bigQM7w_TDwB97XD_def2TZVP_000001.log
 Initial command:
 /home/rr/g16/l1.exe "/scratch/rr/PBS_7918654.helios/Gau-13058.inp" -scrdir="/scratch/rr/PBS_7918654.helios/"
 Entering Link 1 = /home/rr/g16/l1.exe PID=     13063.
  
 Copyright (c) 1988-2019, Gaussian, Inc.  All Rights Reserved.
  
 This is part of the Gaussian(R) 16 program.  It is based on
 the Gaussian(R) 09 system (copyright 2009, Gaussian, Inc.),
 the Gaussian(R) 03 system (copyright 2003, Gaussian, Inc.),
 the Gaussian(R) 98 system (copyright 1998, Gaussian, Inc.),
 the Gaussian(R) 94 system (copyright 1995, Gaussian, Inc.),
 the Gaussian 92(TM) system (copyright 1992, Gaussian, Inc.),
 the Gaussian 90(TM) system (copyright 1990, Gaussian, Inc.),
 the Gaussian 88(TM) system (copyright 1988, Gaussian, Inc.),
 the Gaussian 86(TM) system (copyright 1986, Carnegie Mellon
 University), and the Gaussian 82(TM) system (copyright 1983,
 Carnegie Mellon University). Gaussian is a federally registered
 trademark of Gaussian, Inc.
  
 This software contains proprietary and confidential information,
 including trade secrets, belonging to Gaussian, Inc.
  
 This software is provided under written license and may be
 used, copied, transmitted, or stored only in accord with that
 written license.
  
 The following legend is applicable only to US Government
 contracts under FAR:
  
                    RESTRICTED RIGHTS LEGEND
  
 Use, reproduction and disclosure by the US Government is
 subject to restrictions as set forth in subparagraphs (a)
 and (c) of the Commercial Computer Software - Restricted
 Rights clause in FAR 52.227-19.
  
 Gaussian, Inc.
 340 Quinnipiac St., Bldg. 40, Wallingford CT 06492
  
  
 ---------------------------------------------------------------
 Warning -- This program may not be used in any manner that
 competes with the business of Gaussian, Inc. or will provide
 assistance to any competitor of Gaussian, Inc.  The licensee
 of this program is prohibited from giving any competitor of
 Gaussian, Inc. access to this program.  By using this program,
 the user acknowledges that Gaussian, Inc. is engaged in the
 business of creating and licensing software in the field of
 computational chemistry and represents and warrants to the
 licensee that it is not a competitor of Gaussian, Inc. and that
 it will not use this program in any manner prohibited above.
 ---------------------------------------------------------------
  

 Cite this work as:
 Gaussian 16, Revision C.01,
 M. J. Frisch, G. W. Trucks, H. B. Schlegel, G. E. Scuseria, 
 M. A. Robb, J. R. Cheeseman, G. Scalmani, V. Barone, 
 G. A. Petersson, H. Nakatsuji, X. Li, M. Caricato, A. V. Marenich, 
 J. Bloino, B. G. Janesko, R. Gomperts, B. Mennucci, H. P. Hratchian, 
 J. V. Ortiz, A. F. Izmaylov, J. L. Sonnenberg, D. Williams-Young, 
 F. Ding, F. Lipparini, F. Egidi, J. Goings, B. Peng, A. Petrone, 
 T. Henderson, D. Ranasinghe, V. G. Zakrzewski, J. Gao, N. Rega, 
 G. Zheng, W. Liang, M. Hada, M. Ehara, K. Toyota, R. Fukuda, 
 J. Hasegawa, M. Ishida, T. Nakajima, Y. Honda, O. Kitao, H. Nakai, 
 T. Vreven, K. Throssell, J. A. Montgomery, Jr., J. E. Peralta, 
 F. Ogliaro, M. J. Bearpark, J. J. Heyd, E. N. Brothers, K. N. Kudin, 
 V. N. Staroverov, T. A. Keith, R. Kobayashi, J. Normand, 
 K. Raghavachari, A. P. Rendell, J. C. Burant, S. S. Iyengar, 
 J. Tomasi, M. Cossi, J. M. Millam, M. Klene, C. Adamo, R. Cammi, 
 J. W. Ochterski, R. L. Martin, K. Morokuma, O. Farkas, 
 J. B. Foresman, and D. J. Fox, Gaussian, Inc., Wallingford CT, 2019.
 
 ******************************************
 Gaussian 16:  EM64L-G16RevC.01  3-Jul-2019
                27-Feb-2022 
 ******************************************
 %mem=64gb
 %nproc=8
 Will use up to    8 processors via shared memory.
 ----------------------------------------------------------------------
 #P TD(Nstates=10000) wB97XD/Gen SCF(maxcycles=100) Int(Grid=ultrafine)
 ----------------------------------------------------------------------
 1/38=1,172=1/1;
 2/12=2,17=6,18=5,40=1/2;
 3/5=7,11=9,25=1,30=1,74=-58,75=-5/1,2,3,8;
 4//1;
 5/5=2,7=100,38=5/2;
 8/6=1,10=1,108=10000/1;
 9/41=10000,42=1,70=2/14;
 6/7=2,8=2,9=2,10=2/1;
 99/5=1,9=1/99;
 Leave Link    1 at Sun Feb 27 06:37:00 2022, MaxMem=  8589934592 cpu:               0.4 elap:               0.1
 (Enter /home/rr/g16/l101.exe)
 ---------------------
 xGDB7_00001_tier4.com
 ---------------------
 Symbolic Z-matrix:
 Charge =  0 Multiplicity = 1
 6                     0.        0.00001   0. 
 1                     0.98523   0.46299  -0.02804 
 1                    -0.05618  -0.68294   0.84631 
 1                    -0.16813  -0.55191  -0.92354 
 1                    -0.76094   0.77183   0.10527 
 
 ITRead=  0  0  0  0  0
 MicOpt= -1 -1 -1 -1 -1
 NAtoms=      5 NQM=        5 NQMF=       0 NMMI=      0 NMMIF=      0
                NMic=       0 NMicF=      0.
                    Isotopes and Nuclear Properties:
 (Nuclear quadrupole moments (NQMom) in fm**2, nuclear magnetic moments (NMagM)
  in nuclear magnetons)

  Atom         1           2           3           4           5
 IAtWgt=          12           1           1           1           1
 AtmWgt=  12.0000000   1.0078250   1.0078250   1.0078250   1.0078250
 NucSpn=           0           1           1           1           1
 AtZEff=  -0.0000000  -0.0000000  -0.0000000  -0.0000000  -0.0000000
 NQMom=    0.0000000   0.0000000   0.0000000   0.0000000   0.0000000
 NMagM=    0.0000000   2.7928460   2.7928460   2.7928460   2.7928460
 AtZNuc=   6.0000000   1.0000000   1.0000000   1.0000000   1.0000000
 Leave Link  101 at Sun Feb 27 06:37:00 2022, MaxMem=  8589934592 cpu:               0.9 elap:               0.2
 (Enter /home/rr/g16/l202.exe)
                          Input orientation:                          
 ---------------------------------------------------------------------
 Center     Atomic      Atomic             Coordinates (Angstroms)
 Number     Number       Type             X           Y           Z
 ---------------------------------------------------------------------
      1          6           0        0.000001    0.000006    0.000000
      2          1           0        0.985233    0.462990   -0.028035
      3          1           0       -0.056180   -0.682943    0.846305
      4          1           0       -0.168125   -0.551911   -0.923536
      5          1           0       -0.760937    0.771825    0.105269
 ---------------------------------------------------------------------
                    Distance matrix (angstroms):
                    1          2          3          4          5
     1  C    0.000000
     2  H    1.088955   0.000000
     3  H    1.088948   1.778250   0.000000
     4  H    1.088943   1.778252   1.778212   0.000000
     5  H    1.088950   1.778274   1.778248   1.778241   0.000000
 Stoichiometry    CH4
 Framework group  C1[X(CH4)]
 Deg. of freedom     9
 Full point group                 C1      NOp   1
 Largest Abelian subgroup         C1      NOp   1
 Largest concise Abelian subgroup C1      NOp   1
                         Standard orientation:                         
 ---------------------------------------------------------------------
 Center     Atomic      Atomic             Coordinates (Angstroms)
 Number     Number       Type             X           Y           Z
 ---------------------------------------------------------------------
      1          6           0       -0.000001    0.000006    0.000000
      2          1           0       -0.991926    0.448073    0.033817
      3          1           0        0.066172   -0.671147   -0.854975
      4          1           0        0.176250   -0.561167    0.916416
      5          1           0        0.749514    0.784204   -0.095260
 ---------------------------------------------------------------------
 Rotational constants (GHZ):         158.5824917         158.5804390         158.5768253
 Leave Link  202 at Sun Feb 27 06:37:01 2022, MaxMem=  8589934592 cpu:               0.2 elap:               0.1
 (Enter /home/rr/g16/l301.exe)
 General basis read from cards:  (5D, 7F)
 Centers:       2      3      4      5
 S 3 1.00
     Exponent=  3.4061341000D+01 Coefficients=  6.0251978000D-03
     Exponent=  5.1235746000D+00 Coefficients=  4.5021094000D-02
     Exponent=  1.1646626000D+00 Coefficients=  2.0189726000D-01
 S 1 1.00
     Exponent=  3.2723041000D-01 Coefficients=  1.0000000000D+00
 S 1 1.00
     Exponent=  1.0307241000D-01 Coefficients=  1.0000000000D+00
 P 1 1.00
     Exponent=  8.0000000000D-01 Coefficients=  1.0000000000D+00
 P 1 1.00
     Exponent=  9.5774129632D-02 Coefficients=  1.0000000000D+00
 ****
 Centers:       1
 S 6 1.00
     Exponent=  1.3575349682D+04 Coefficients=  2.2245814352D-04
     Exponent=  2.0352333680D+03 Coefficients=  1.7232738252D-03
     Exponent=  4.6322562359D+02 Coefficients=  8.9255715314D-03
     Exponent=  1.3120019598D+02 Coefficients=  3.5727984502D-02
     Exponent=  4.2853015891D+01 Coefficients=  1.1076259931D-01
     Exponent=  1.5584185766D+01 Coefficients=  2.4295627626D-01
 S 2 1.00
     Exponent=  6.2067138508D+00 Coefficients=  4.1440263448D-01
     Exponent=  2.5764896527D+00 Coefficients=  2.3744968655D-01
 S 1 1.00
     Exponent=  5.7696339419D-01 Coefficients=  1.0000000000D+00
 S 1 1.00
     Exponent=  2.2972831358D-01 Coefficients=  1.0000000000D+00
 S 1 1.00
     Exponent=  9.5164440028D-02 Coefficients=  1.0000000000D+00
 S 1 1.00
     Exponent=  4.8475401370D-02 Coefficients=  1.0000000000D+00
 P 4 1.00
     Exponent=  3.4697232244D+01 Coefficients=  5.3333657805D-03
     Exponent=  7.9582622826D+00 Coefficients=  3.5864109092D-02
     Exponent=  2.3780826883D+00 Coefficients=  1.4215873329D-01
     Exponent=  8.1433208183D-01 Coefficients=  3.4270471845D-01
 P 1 1.00
     Exponent=  2.8887547253D-01 Coefficients=  4.6445822433D-01
 P 1 1.00
     Exponent=  1.0056823671D-01 Coefficients=  2.4955789874D-01
 D 1 1.00
     Exponent=  1.0970000000D+00 Coefficients=  1.0000000000D+00
 D 1 1.00
     Exponent=  3.1800000000D-01 Coefficients=  1.0000000000D+00
 D 1 1.00
     Exponent=  9.0985336424D-02 Coefficients=  1.0000000000D+00
 F 1 1.00
     Exponent=  7.6100000000D-01 Coefficients=  1.0000000000D+00
 ****
 Ernie: Thresh=  0.10000D-02 Tol=  0.10000D-05 Strict=F.
 There are    79 symmetry adapted cartesian basis functions of A   symmetry.
 There are    73 symmetry adapted basis functions of A   symmetry.
    73 basis functions,   102 primitive gaussians,    79 cartesian basis functions
     5 alpha electrons        5 beta electrons
       nuclear repulsion energy        13.4483556150 Hartrees.
 IExCor= 4639 DFT=T Ex+Corr=wB97XD ExCW=0 ScaHFX=  1.000000
 ScaDFX=  1.000000  1.000000  1.000000  1.000000 ScalE2=  1.000000  1.000000
 IRadAn=      5 IRanWt=     -1 IRanGd=            0 ICorTp=0 IEmpDi=121
 HFx  wShort=  0.000000 wLong=  0.200000 cFull=  0.222036 cShort=  0.000000 cLong=  0.777964
 DFx  wShort=  0.000000 wLong=  0.200000 cFull=  0.000000 cShort=  0.000000 cLong=  1.000000
 NAtoms=    5 NActive=    5 NUniq=    5 SFac= 1.00D+00 NAtFMM=   60 NAOKFM=F Big=F
 Integral buffers will be    131072 words long.
 Raffenetti 1 integral format.
 Two-electron integral symmetry is turned on.
 R6Disp:  Grimme-D2 Dispersion energy=       -0.0003954214 Hartrees.
 Nuclear repulsion after empirical dispersion term =       13.4479601936 Hartrees.
 Leave Link  301 at Sun Feb 27 06:37:01 2022, MaxMem=  8589934592 cpu:               1.3 elap:               0.2
 (Enter /home/rr/g16/l302.exe)
 NPDir=0 NMtPBC=     1 NCelOv=     1 NCel=       1 NClECP=     1 NCelD=      1
         NCelK=      1 NCelE2=     1 NClLst=     1 CellRange=     0.0.
 One-electron integrals computed using PRISM.
 One-electron integral symmetry used in STVInt
 NBasis=    73 RedAO= T EigKep=  2.96D-05  NBF=    73
 NBsUse=    73 1.00D-06 EigRej= -1.00D+00 NBFU=    73
 Precomputing XC quadrature grid using
 IXCGrd= 4 IRadAn=           5 IRanWt=          -1 IRanGd=           0 AccXCQ= 0.00D+00.
 Generated NRdTot=       0 NPtTot=           0 NUsed=           0 NTot=          32
 NSgBfM=    79    79    79    79    79 MxSgAt=     5 MxSgA2=     5.
 Leave Link  302 at Sun Feb 27 06:37:01 2022, MaxMem=  8589934592 cpu:               1.9 elap:               0.3
 (Enter /home/rr/g16/l303.exe)
 DipDrv:  MaxL=1.
 Leave Link  303 at Sun Feb 27 06:37:02 2022, MaxMem=  8589934592 cpu:               0.7 elap:               0.2
 (Enter /home/rr/g16/l308.exe)
 Leave Link  308 at Sun Feb 27 06:37:02 2022, MaxMem=  8589934592 cpu:               0.6 elap:               0.2
 (Enter /home/rr/g16/l401.exe)
 ExpMin= 4.85D-02 ExpMax= 1.36D+04 ExpMxC= 4.63D+02 IAcc=3 IRadAn=         5 AccDes= 0.00D+00
 Harris functional with IExCor= 4639 and IRadAn=       5 diagonalized for initial guess.
 HarFok:  IExCor= 4639 AccDes= 0.00D+00 IRadAn=         5 IDoV= 1 UseB2=F ITyADJ=14
 ICtDFT=  3500011 ScaDFX=  1.000000  1.000000  1.000000  1.000000
 FoFCou: FMM=F IPFlag=           0 FMFlag=      100000 FMFlg1=           0
         NFxFlg=           0 DoJE=T BraDBF=F KetDBF=T FulRan=T
         wScrn=  0.000000 ICntrl=       500 IOpCl=  0 I1Cent=   200000004 NGrid=           0
         NMat0=    1 NMatS0=      1 NMatT0=    0 NMatD0=    1 NMtDS0=    0 NMtDT0=    0
 Petite list used in FoFCou.
 Harris En= -38.2746797464713    
 JPrj=0 DoOrth=F DoCkMO=F.
 Leave Link  401 at Sun Feb 27 06:37:03 2022, MaxMem=  8589934592 cpu:               5.3 elap:               0.9
 (Enter /home/rr/g16/l502.exe)
 Keep R1 ints in memory in canonical form, NReq=14716155.
 FoFCou: FMM=F IPFlag=           0 FMFlag=           0 FMFlg1=           0
         NFxFlg=           0 DoJE=F BraDBF=F KetDBF=F FulRan=T
         wScrn=  0.000000 ICntrl=       600 IOpCl=  0 I1Cent=           0 NGrid=           0
         NMat0=    1 NMatS0=   2701 NMatT0=    0 NMatD0=    1 NMtDS0=    0 NMtDT0=    0
 Symmetry not used in FoFCou.
 Two-electron integral symmetry not used.
 Closed shell SCF:
 Using DIIS extrapolation, IDIIS=  1040.
 NGot=  8589934592 LenX=  8582622360 LenY=  8582615678
 Requested convergence on RMS density matrix=1.00D-08 within 100 cycles.
 Requested convergence on MAX density matrix=1.00D-06.
 Requested convergence on             energy=1.00D-06.
 No special actions if energy rises.

 Cycle   1  Pass 1  IDiag  1:
 E= -40.4939246518872    
 DIIS: error= 7.81D-02 at cycle   1 NSaved=   1.
 NSaved= 1 IEnMin= 1 EnMin= -40.4939246518872     IErMin= 1 ErrMin= 7.81D-02
 ErrMax= 7.81D-02  0.00D+00 EMaxC= 1.00D-01 BMatC= 9.17D-02 BMatP= 9.17D-02
 IDIUse=3 WtCom= 2.19D-01 WtEn= 7.81D-01
 Coeff-Com:  0.100D+01
 Coeff-En:   0.100D+01
 Coeff:      0.100D+01
 Gap=     0.507 Goal=   None    Shift=    0.000
 GapD=    0.507 DampG=2.000 DampE=0.500 DampFc=1.0000 IDamp=-1.
 RMSDP=5.71D-03 MaxDP=1.44D-01              OVMax= 7.03D-02

 Cycle   2  Pass 1  IDiag  1:
 E= -40.5098371026162     Delta-E=       -0.015912450729 Rises=F Damp=F
 DIIS: error= 1.68D-02 at cycle   2 NSaved=   2.
 NSaved= 2 IEnMin= 2 EnMin= -40.5098371026162     IErMin= 2 ErrMin= 1.68D-02
 ErrMax= 1.68D-02  0.00D+00 EMaxC= 1.00D-01 BMatC= 1.00D-02 BMatP= 9.17D-02
 IDIUse=3 WtCom= 8.32D-01 WtEn= 1.68D-01
 Coeff-Com:  0.172D+00 0.828D+00
 Coeff-En:   0.142D+00 0.858D+00
 Coeff:      0.167D+00 0.833D+00
 Gap=     0.569 Goal=   None    Shift=    0.000
 RMSDP=1.28D-03 MaxDP=2.53D-02 DE=-1.59D-02 OVMax= 4.04D-02

 Cycle   3  Pass 1  IDiag  1:
 E= -40.5173290700300     Delta-E=       -0.007491967414 Rises=F Damp=F
 DIIS: error= 7.66D-03 at cycle   3 NSaved=   3.
 NSaved= 3 IEnMin= 3 EnMin= -40.5173290700300     IErMin= 3 ErrMin= 7.66D-03
 ErrMax= 7.66D-03  0.00D+00 EMaxC= 1.00D-01 BMatC= 2.40D-03 BMatP= 1.00D-02
 IDIUse=3 WtCom= 9.23D-01 WtEn= 7.66D-02
 Coeff-Com:  0.237D-01 0.334D+00 0.643D+00
 Coeff-En:   0.000D+00 0.806D-01 0.919D+00
 Coeff:      0.219D-01 0.314D+00 0.664D+00
 Gap=     0.550 Goal=   None    Shift=    0.000
 RMSDP=3.70D-04 MaxDP=7.86D-03 DE=-7.49D-03 OVMax= 1.38D-02

 Cycle   4  Pass 1  IDiag  1:
 E= -40.5194568203934     Delta-E=       -0.002127750363 Rises=F Damp=F
 DIIS: error= 3.85D-04 at cycle   4 NSaved=   4.
 NSaved= 4 IEnMin= 4 EnMin= -40.5194568203934     IErMin= 4 ErrMin= 3.85D-04
 ErrMax= 3.85D-04  0.00D+00 EMaxC= 1.00D-01 BMatC= 7.26D-06 BMatP= 2.40D-03
 IDIUse=3 WtCom= 9.96D-01 WtEn= 3.85D-03
 Coeff-Com: -0.418D-02-0.646D-01-0.658D-01 0.113D+01
 Coeff-En:   0.000D+00 0.000D+00 0.000D+00 0.100D+01
 Coeff:     -0.417D-02-0.644D-01-0.655D-01 0.113D+01
 Gap=     0.550 Goal=   None    Shift=    0.000
 RMSDP=8.20D-05 MaxDP=8.03D-04 DE=-2.13D-03 OVMax= 8.52D-04

 Cycle   5  Pass 1  IDiag  1:
 E= -40.5194644937940     Delta-E=       -0.000007673401 Rises=F Damp=F
 DIIS: error= 2.92D-05 at cycle   5 NSaved=   5.
 NSaved= 5 IEnMin= 5 EnMin= -40.5194644937940     IErMin= 5 ErrMin= 2.92D-05
 ErrMax= 2.92D-05  0.00D+00 EMaxC= 1.00D-01 BMatC= 3.46D-08 BMatP= 7.26D-06
 IDIUse=1 WtCom= 1.00D+00 WtEn= 0.00D+00
 Coeff-Com:  0.302D-04 0.517D-03-0.388D-02-0.146D+00 0.115D+01
 Coeff:      0.302D-04 0.517D-03-0.388D-02-0.146D+00 0.115D+01
 Gap=     0.551 Goal=   None    Shift=    0.000
 RMSDP=2.29D-05 MaxDP=2.65D-04 DE=-7.67D-06 OVMax= 1.34D-04

 Cycle   6  Pass 1  IDiag  1:
 E= -40.5194645760573     Delta-E=       -0.000000082263 Rises=F Damp=F
 DIIS: error= 2.35D-06 at cycle   6 NSaved=   6.
 NSaved= 6 IEnMin= 6 EnMin= -40.5194645760573     IErMin= 6 ErrMin= 2.35D-06
 ErrMax= 2.35D-06  0.00D+00 EMaxC= 1.00D-01 BMatC= 2.83D-10 BMatP= 3.46D-08
 IDIUse=1 WtCom= 1.00D+00 WtEn= 0.00D+00
 Coeff-Com:  0.541D-05 0.215D-03 0.827D-03 0.207D-01-0.236D+00 0.121D+01
 Coeff:      0.541D-05 0.215D-03 0.827D-03 0.207D-01-0.236D+00 0.121D+01
 Gap=     0.551 Goal=   None    Shift=    0.000
 RMSDP=2.70D-06 MaxDP=5.20D-05 DE=-8.23D-08 OVMax= 1.50D-05

 Cycle   7  Pass 1  IDiag  1:
 E= -40.5194645768839     Delta-E=       -0.000000000827 Rises=F Damp=F
 DIIS: error= 2.36D-07 at cycle   7 NSaved=   7.
 NSaved= 7 IEnMin= 7 EnMin= -40.5194645768839     IErMin= 7 ErrMin= 2.36D-07
 ErrMax= 2.36D-07  0.00D+00 EMaxC= 1.00D-01 BMatC= 2.36D-12 BMatP= 2.83D-10
 IDIUse=1 WtCom= 1.00D+00 WtEn= 0.00D+00
 Coeff-Com:  0.209D-05-0.626D-05-0.164D-04-0.164D-02 0.203D-01-0.150D+00
 Coeff-Com:  0.113D+01
 Coeff:      0.209D-05-0.626D-05-0.164D-04-0.164D-02 0.203D-01-0.150D+00
 Coeff:      0.113D+01
 Gap=     0.551 Goal=   None    Shift=    0.000
 RMSDP=2.16D-07 MaxDP=2.26D-06 DE=-8.27D-10 OVMax= 1.02D-06

 Cycle   8  Pass 1  IDiag  1:
 E= -40.5194645768890     Delta-E=       -0.000000000005 Rises=F Damp=F
 DIIS: error= 2.41D-08 at cycle   8 NSaved=   8.
 NSaved= 8 IEnMin= 8 EnMin= -40.5194645768890     IErMin= 8 ErrMin= 2.41D-08
 ErrMax= 2.41D-08  0.00D+00 EMaxC= 1.00D-01 BMatC= 2.31D-14 BMatP= 2.36D-12
 IDIUse=1 WtCom= 1.00D+00 WtEn= 0.00D+00
 Coeff-Com: -0.281D-06-0.551D-06 0.244D-06 0.149D-03-0.182D-02 0.146D-01
 Coeff-Com: -0.175D+00 0.116D+01
 Coeff:     -0.281D-06-0.551D-06 0.244D-06 0.149D-03-0.182D-02 0.146D-01
 Coeff:     -0.175D+00 0.116D+01
 Gap=     0.551 Goal=   None    Shift=    0.000
 RMSDP=4.00D-08 MaxDP=3.98D-07 DE=-5.07D-12 OVMax= 9.25D-08

 Cycle   9  Pass 1  IDiag  1:
 E= -40.5194645768891     Delta-E=       -0.000000000000 Rises=F Damp=F
 DIIS: error= 1.38D-09 at cycle   9 NSaved=   9.
 NSaved= 9 IEnMin= 9 EnMin= -40.5194645768891     IErMin= 9 ErrMin= 1.38D-09
 ErrMax= 1.38D-09  0.00D+00 EMaxC= 1.00D-01 BMatC= 4.80D-17 BMatP= 2.31D-14
 IDIUse=1 WtCom= 1.00D+00 WtEn= 0.00D+00
 Coeff-Com:  0.160D-07-0.969D-07-0.143D-06-0.112D-04 0.160D-03-0.131D-02
 Coeff-Com:  0.181D-01-0.142D+00 0.112D+01
 Coeff:      0.160D-07-0.969D-07-0.143D-06-0.112D-04 0.160D-03-0.131D-02
 Coeff:      0.181D-01-0.142D+00 0.112D+01
 Gap=     0.551 Goal=   None    Shift=    0.000
 RMSDP=8.27D-10 MaxDP=1.01D-08 DE=-1.21D-13 OVMax= 3.37D-09

 SCF Done:  E(RwB97XD) =  -40.5194645769     A.U. after    9 cycles
            NFock=  9  Conv=0.83D-09     -V/T= 2.0067
 KE= 4.025140569843D+01 PE=-1.201414543495D+02 EE= 2.592262388056D+01
 Leave Link  502 at Sun Feb 27 06:37:06 2022, MaxMem=  8589934592 cpu:              16.7 elap:               2.3
 (Enter /home/rr/g16/l801.exe)
 DoSCS=F DFT=T ScalE2(SS,OS)=  1.000000  1.000000
 ExpMin= 4.85D-02 ExpMax= 1.36D+04 ExpMxC= 4.63D+02 IAcc=3 IRadAn=         5 AccDes= 0.00D+00
 HarFok:  IExCor=  205 AccDes= 0.00D+00 IRadAn=         5 IDoV=-2 UseB2=F ITyADJ=14
 ICtDFT= 12500011 ScaDFX=  1.000000  1.000000  1.000000  1.000000
 Largest valence mixing into a core orbital is  6.13D-05
 Largest core mixing into a valence orbital is  8.44D-06
 Range of M.O.s used for correlation:     2    73
 NBasis=    73 NAE=     5 NBE=     5 NFC=     1 NFV=     0
 NROrb=     72 NOA=     4 NOB=     4 NVA=    68 NVB=    68

 **** Warning!!: The largest alpha MO coefficient is  0.84392144D+02

 Leave Link  801 at Sun Feb 27 06:37:06 2022, MaxMem=  8589934592 cpu:               0.6 elap:               0.1
 (Enter /home/rr/g16/l914.exe)
 RHF ground state
 Keep R1, R2, and R3 ints in memory in canonical form, NReq=176505107.
 FoFCou: FMM=F IPFlag=           0 FMFlag=           0 FMFlg1=           0
         NFxFlg=           0 DoJE=F BraDBF=F KetDBF=F FulRan=T
         wScrn=  0.000000 ICntrl=       600 IOpCl=  0 I1Cent=           0 NGrid=           0
         NMat0=    1 NMatS0=   2701 NMatT0=    0 NMatD0=    1 NMtDS0=    0 NMtDT0=    0
 Symmetry not used in FoFCou.
 Two-electron integral symmetry not used.
 MDV=  8589934592 DFT=T DoStab=F Mixed=T DoRPA=T DoScal=F NonHer=T
 Making orbital integer symmetry assigments:
 Orbital symmetries:
       Occupied  (A) (A) (A) (A) (A)
       Virtual   (A) (A) (A) (A) (A) (A) (A) (A) (A) (A) (A) (A)
                 (A) (A) (A) (A) (A) (A) (A) (A) (A) (A) (A) (A)
                 (A) (A) (A) (A) (A) (A) (A) (A) (A) (A) (A) (A)
                 (A) (A) (A) (A) (A) (A) (A) (A) (A) (A) (A) (A)
                 (A) (A) (A) (A) (A) (A) (A) (A) (A) (A) (A) (A)
                 (A) (A) (A) (A) (A) (A) (A) (A)
   272 initial guesses have been made.
 Convergence on wavefunction:    0.001000000000000
 Davidson Disk Diagonalization:  ConvIn= 1.00D-03 SkipCon=T Conv= 1.00D-03.
 Max sub-space:  1632 roots to seek:   544 dimension of matrix:          544
 *** WARNING: Number of orthogonal guesses is          272
 Iteration     1 Dimension   272 NMult     0 NNew    272
 CISAX will form   272 AO SS matrices at one time.
 NMat=   272 NSing=   272 JSym2X= 0.
 New state      4 was old state      5
 New state      5 was old state     10
 New state      6 was old state     11
 New state      7 was old state      9
 New state      8 was old state     12
 New state      9 was old state      7
 New state     10 was old state      8
 New state     11 was old state      4
 New state     12 was old state     16
 New state     13 was old state     19
 New state     14 was old state     18
 New state     16 was old state     17
 New state     17 was old state     13
 New state     18 was old state     14
 New state     19 was old state     21
 New state     21 was old state      6
 New state     23 was old state     25
 New state     24 was old state     26
 New state     25 was old state     23
 New state     26 was old state     24
 New state     34 was old state     35
 New state     35 was old state     36
 New state     36 was old state     42
 New state     37 was old state     39
 New state     38 was old state     40
 New state     39 was old state     44
 New state     40 was old state     45
 New state     41 was old state     48
 New state     42 was old state     49
 New state     43 was old state     47
 New state     44 was old state     37
 New state     45 was old state     41
 New state     46 was old state     38
 New state     47 was old state     52
 New state     48 was old state     46
 New state     49 was old state     43
 New state     52 was old state     55
 New state     53 was old state     57
 New state     55 was old state     59
 New state     56 was old state     60
 New state     57 was old state     61
 New state     58 was old state     56
 New state     59 was old state     53
 New state     60 was old state     58
 New state     61 was old state     34
 New state     62 was old state     65
 New state     63 was old state     69
 New state     64 was old state     68
 New state     65 was old state     62
 New state     66 was old state     67
 New state     67 was old state     64
 New state     68 was old state     66
 New state     69 was old state     63
 New state     72 was old state     73
 New state     73 was old state     72
 New state     74 was old state     76
 New state     75 was old state     83
 New state     76 was old state     78
 New state     78 was old state     84
 New state     79 was old state     80
 New state     80 was old state     82
 New state     81 was old state     79
 New state     82 was old state     74
 New state     83 was old state     75
 New state     84 was old state     85
 New state     85 was old state     81
 New state     87 was old state     93
 New state     88 was old state     94
 New state     89 was old state     95
 New state     90 was old state     87
 New state     91 was old state     88
 New state     92 was old state     89
 New state     93 was old state     90
 New state     94 was old state     91
 New state     95 was old state     92
 New state     99 was old state    102
 New state    100 was old state    104
 New state    101 was old state    110
 New state    102 was old state     99
 New state    103 was old state    100
 New state    104 was old state    101
 New state    106 was old state    109
 New state    109 was old state    106
 New state    110 was old state    111
 New state    111 was old state    112
 New state    112 was old state    103
 New state    116 was old state    117
 New state    117 was old state    121
 New state    119 was old state    116
 New state    120 was old state    119
 New state    121 was old state    120
 New state    124 was old state    127
 New state    125 was old state    132
 New state    126 was old state    124
 New state    127 was old state    125
 New state    128 was old state    126
 New state    129 was old state    128
 New state    130 was old state    133
 New state    131 was old state    129
 New state    132 was old state    130
 New state    133 was old state    134
 No map to state    134
 New state    135 was old state    131
 New state    141 was old state    146
 New state    143 was old state    149
 New state    146 was old state    141
 New state    147 was old state    143
 New state    148 was old state    147
 New state    149 was old state    148
 New state    150 was old state    151
 New state    151 was old state    158
 New state    152 was old state    155
 New state    153 was old state    154
 New state    154 was old state    152
 New state    155 was old state    153
 New state    158 was old state    159
 New state    159 was old state    160
 New state    160 was old state    161
 New state    161 was old state    150
 New state    162 was old state    163
 New state    163 was old state    162
 New state    168 was old state    173
 New state    169 was old state    175
 New state    171 was old state    177
 New state    172 was old state    176
 New state    173 was old state    172
 New state    175 was old state    171
 New state    176 was old state    168
 New state    177 was old state    169
 New state    179 was old state    180
 New state    180 was old state    179
 New state    184 was old state    188
 New state    186 was old state    184
 New state    187 was old state    190
 New state    188 was old state    191
 New state    189 was old state    193
 New state    190 was old state    186
 New state    191 was old state    187
 New state    192 was old state    189
 New state    193 was old state    192
 New state    194 was old state    196
 New state    195 was old state    194
 New state    196 was old state    198
 New state    198 was old state    195
 New state    201 was old state    202
 New state    202 was old state    208
 New state    203 was old state    206
 New state    204 was old state    201
 New state    205 was old state    203
 New state    206 was old state    207
 New state    207 was old state    205
 New state    208 was old state    204
 New state    217 was old state    220
 New state    218 was old state    223
 New state    219 was old state    224
 New state    220 was old state    217
 New state    221 was old state    218
 New state    222 was old state    219
 New state    223 was old state    222
 New state    224 was old state    225
 New state    225 was old state    221
 New state    226 was old state    227
 New state    227 was old state    233
 New state    228 was old state    232
 New state    229 was old state    226
 New state    231 was old state    234
 New state    232 was old state    231
 New state    233 was old state    229
 New state    234 was old state    228
 New state    235 was old state    236
 New state    236 was old state    237
 New state    237 was old state    235
 New state    238 was old state    240
 New state    239 was old state    245
 New state    240 was old state    239
 New state    241 was old state    246
 New state    242 was old state    243
 New state    243 was old state    244
 New state    244 was old state    241
 New state    245 was old state    242
 New state    246 was old state    238
 New state    253 was old state    259
 New state    255 was old state    260
 New state    256 was old state    255
 New state    257 was old state    253
 New state    259 was old state    256
 New state    260 was old state    257
 New state    262 was old state    264
 New state    263 was old state    262
 New state    264 was old state    263
 Excitation Energies [eV] at current iteration:
 Root      1 :    10.370356710885180
 Root      2 :    10.370475962376720
 Root      3 :    10.370539700283760
 Root      4 :    12.487809112819040
 Root      5 :    12.487842946827550
 Root      6 :    12.487886906184140
 Root      7 :    12.678537658003090
 Root      8 :    12.678600607944620
 Root      9 :    12.678664792798930
 Root     10 :    12.721720788715120
 Root     11 :    12.721742016938480
 Root     12 :    12.931479113380660
 Root     13 :    12.931510605464840
 Root     14 :    12.931569923406360
 Root     15 :    12.989920000584810
 Root     16 :    12.989963760005900
 Root     17 :    13.086296057338230
 Root     18 :    13.626300847171680
 Root     19 :    13.626343417980100
 Root     20 :    13.626415114058960
 Root     21 :    13.792896620040140
 Root     22 :    14.214824605986270
 Root     23 :    14.214912665912010
 Root     24 :    14.214940129766280
 Root     25 :    14.370543608485540
 Root     26 :    14.370591561125300
 Root     27 :    14.370620983838800
 Root     28 :    16.052199454324990
 Root     29 :    16.052317153970690
 Root     30 :    16.052384766961530
 Root     31 :    17.283009653921840
 Root     32 :    17.283130914155650
 Root     33 :    17.283193093085980
 Root     34 :    17.428985537002130
 Root     35 :    17.429134699147970
 Root     36 :    17.429203358188850
 Root     37 :    17.533569683976710
 Root     38 :    17.533606450607860
 Root     39 :    18.103485490305610
 Root     40 :    18.103529743450570
 Root     41 :    18.103601283945910
 Root     42 :    18.123955641564180
 Root     43 :    18.123979686461140
 Root     44 :    18.249825784665240
 Root     45 :    18.249881825314620
 Root     46 :    18.249965515960650
 Root     47 :    18.270592287955210
 Root     48 :    18.273741523954250
 Root     49 :    18.273783886958000
 Root     50 :    18.273843343620770
 Root     51 :    18.471199259061700
 Root     52 :    18.583133962259070
 Root     53 :    18.583155016085930
 Root     54 :    18.665035729258990
 Root     55 :    18.665070027078550
 Root     56 :    18.665119867888520
 Root     57 :    18.683532283703620
 Root     58 :    18.770738818070500
 Root     59 :    18.770791213836270
 Root     60 :    18.770853296569170
 Root     61 :    19.365635373230520
 Root     62 :    21.114149327422500
 Root     63 :    21.114233658485710
 Root     64 :    21.114241444417910
 Root     65 :    21.219659255549700
 Root     66 :    21.219700454104330
 Root     67 :    21.219723720593970
 Root     68 :    21.590600223610100
 Root     69 :    21.590637019033660
 Root     70 :    21.590660877335200
 Root     71 :    21.809746996155760
 Root     72 :    21.809761996774590
 Root     73 :    21.809765776586260
 Root     74 :    22.317700117981770
 Root     75 :    22.317728298310320
 Root     76 :    22.585002564690270
 Root     77 :    22.585044586625350
 Root     78 :    22.585117643636250
 Root     79 :    22.871146215074790
 Root     80 :    22.871176513396750
 Root     81 :    22.871238982709880
 Root     82 :    22.913432888269830
 Root     83 :    22.913450656860200
 Root     84 :    23.737767524990930
 Root     85 :    25.037205831805840
 Root     86 :    26.100369570361990
 Root     87 :    26.187743226628250
 Root     88 :    26.187855620712080
 Root     89 :    26.187910274847790
 Root     90 :    26.346388507933900
 Root     91 :    26.346451203656380
 Root     92 :    26.346470974802430
 Root     93 :    26.817782470358470
 Root     94 :    26.817802071823820
 Root     95 :    26.817829433454350
 Root     96 :    27.264803946744130
 Root     97 :    27.264812460548320
 Root     98 :    27.264846413332530
 Root     99 :    28.871962081399870
 Root    100 :    28.872173588169800
 Root    101 :    28.872227767462510
 Root    102 :    28.878499676720440
 Root    103 :    28.878607315162270
 Root    104 :    28.878690543986270
 Root    105 :    29.062762112204070
 Root    106 :    29.062796538750350
 Root    107 :    29.392320975573690
 Root    108 :    29.392346574670030
 Root    109 :    29.392454335465420
 Root    110 :    29.845841970405570
 Root    111 :    29.845863199988880
 Root    112 :    30.933116058494800
 Root    113 :    31.283860841865620
 Root    114 :    31.283885001667820
 Root    115 :    31.283890624352700
 Root    116 :    32.516320443504350
 Root    117 :    32.516586962218500
 Root    118 :    32.516614335233730
 Root    119 :    33.587825384923150
 Root    120 :    33.587957146899190
 Root    121 :    33.588024134742940
 Root    122 :    34.702504922567320
 Root    123 :    37.275482901641150
 Root    124 :    37.642418375898810
 Root    125 :    37.642454090625850
 Root    126 :    37.666091779584550
 Root    127 :    37.666147934013730
 Root    128 :    37.666186311455510
 Root    129 :    37.755949690936430
 Root    130 :    37.756130524194640
 Root    131 :    37.756179456093230
 Root    132 :    38.786587288610140
 Root    133 :    38.786608839774710
 Root    134 :    38.786631759129150
 Root    135 :    38.832339180994630
 Root    136 :    41.491897041060510
 Root    137 :    41.491955310086590
 Root    138 :    46.453180394349350
 Root    139 :    46.453249541485680
 Root    140 :    46.453317074512450
 Root    141 :    52.998181792407200
 Root    142 :    52.998245759808650
 Root    143 :    52.998570368295640
 Root    144 :    53.143872481107230
 Root    145 :    53.143905779794140
 Root    146 :    53.173999426303600
 Root    147 :    53.248833476592710
 Root    148 :    53.249246008715510
 Root    149 :    53.249457416276440
 Root    150 :    54.850842770913340
 Root    151 :    54.851038462914760
 Root    152 :    54.851249151082540
 Root    153 :    55.121879962899180
 Root    154 :    55.121904945650260
 Root    155 :    55.132766742464230
 Root    156 :    55.132977640873530
 Root    157 :    55.133163825162010
 Root    158 :    56.846607620451940
 Root    159 :    56.846692520605770
 Root    160 :    56.846768083397670
 Root    161 :    57.371534122822330
 Root    162 :    61.472703974950480
 Root    163 :    61.472938215568450
 Root    164 :    61.473421636911650
 Root    165 :    63.581421018986680
 Root    166 :    63.581591737286300
 Root    167 :    63.581888855714520
 Root    168 :    65.668412411585020
 Root    169 :    65.668591478091900
 Root    170 :    65.697714026430320
 Root    171 :    65.697917319303740
 Root    172 :    65.698246366366150
 Root    173 :    65.723731324842490
 Root    174 :    65.724719496965350
 Root    175 :    65.724860708550570
 Root    176 :    65.987791004962930
 Root    177 :    66.742890790548020
 Root    178 :    67.383146823525550
 Root    179 :    67.383281804904530
 Root    180 :    67.383359962563570
 Root    181 :    74.008765648059490
 Root    182 :    74.008920753156220
 Root    183 :    74.009323979582600
 Root    184 :    75.239282365911080
 Root    185 :    75.239469836674760
 Root    186 :    75.239951353393180
 Root    187 :    75.286074670651710
 Root    188 :    75.286188252070740
 Root    189 :    75.339032995398030
 Root    190 :    75.370293593918920
 Root    191 :    75.370738387694500
 Root    192 :    75.370959055442430
 Root    193 :    75.851659558641980
 Root    194 :    76.558886213158490
 Root    195 :    76.559234619678380
 Root    196 :    76.559239066903800
 Root    197 :    76.706040834289810
 Root    198 :    76.706337471507060
 Root    199 :    76.706722163359930
 Root    200 :    79.461498537997800
 Root    201 :    80.581592997379200
 Root    202 :    80.581650865987110
 Root    203 :    80.581899706840230
 Root    204 :    80.731627148449120
 Root    205 :    80.731763516252310
 Root    206 :    80.731975899641030
 Root    207 :    80.831738301927670
 Root    208 :    80.831825598854650
 Root    209 :    83.736165224554240
 Root    210 :    83.736312914687190
 Root    211 :    83.736441756815980
 Root    212 :    85.050195712051990
 Root    213 :    85.050480627560250
 Root    214 :    89.126632823173410
 Root    215 :    89.126692540967180
 Root    216 :    89.126936287431210
 Root    217 :    93.083091998677690
 Root    218 :    93.085422622646390
 Root    219 :    93.086190113358190
 Root    220 :    93.609170540995180
 Root    221 :    93.609379091547680
 Root    222 :    93.609450015861840
 Root    223 :    94.136253622608550
 Root    224 :    94.137308122881610
 Root    225 :    94.137544932850660
 Root    226 :   100.012147185870300
 Root    227 :   100.013430579607400
 Root    228 :   100.013758076257500
 Root    229 :   100.036402341091800
 Root    230 :   100.036827675664000
 Root    231 :   100.240316690303900
 Root    232 :   100.241157383241200
 Root    233 :   100.242526410548500
 Root    234 :   100.367365254152300
 Root    235 :   101.930760305361400
 Root    236 :   101.931028395630400
 Root    237 :   102.179556201856600
 Root    238 :   105.268231762313100
 Root    239 :   105.710734911772200
 Root    240 :   105.710858934194700
 Root    241 :   105.711327771233900
 Root    242 :   106.041240616998100
 Root    243 :   106.041328724654300
 Root    244 :   106.041602544833200
 Root    245 :   106.115156068223500
 Root    246 :   106.115388873236300
 Root    247 :   108.479460312495700
 Root    248 :   108.481988933337600
 Root    249 :   108.482277568109700
 Root    250 :   114.213976584222400
 Root    251 :   114.214209644110600
 Root    252 :   114.214684044507500
 Root    253 :   125.076735773092800
 Root    254 :   125.787590648606900
 Root    255 :   125.788190369866700
 Root    256 :   125.788251745195600
 Root    257 :   126.039659204893900
 Root    258 :   126.041862137367900
 Root    259 :   126.043785030899100
 Root    260 :   126.441182776857900
 Root    261 :   126.441667196675700
 Root    262 :   133.521291602247200
 Root    263 :   133.521491161958300
 Root    264 :   133.521541866123700
 Root    265 :   134.386397290949600
 Root    266 :   134.387687965598000
 Root    267 :   134.388545007153900
 Root    268 :   141.790654519817700
 Root    269 :   615.159273506601200
 Root    270 :   615.159627730662900
 Root    271 :   615.159822975641800
 Root    272 :   624.742239333086600
 Convergence achieved for final wavefunctions.
 ***********************************************************************
 Excited states from <AA,BB:AA,BB> singles matrix:
 ***********************************************************************
 
 1PDM for each excited state written to RWF  633
 Ground to excited state transition densities written to RWF  633
 Ground to excited state transition electric dipole moments (Au):
       state          X           Y           Z        Dip. S.      Osc.
         1         0.0536     -0.1381     -0.7256      0.5484      0.1393
         2         0.0734     -0.7229      0.1430      0.5484      0.1393
         3        -0.7349     -0.0823     -0.0386      0.5484      0.1393
         4        -0.0017     -0.2586     -0.4658      0.2838      0.0868
         5         0.2566     -0.4086      0.2259      0.2838      0.0868
         6         0.4669      0.2236     -0.1258      0.2838      0.0868
         7        -0.0000      0.0000     -0.0002      0.0000      0.0000
         8         0.0000     -0.0000     -0.0001      0.0000      0.0000
         9         0.0001      0.0000      0.0000      0.0000      0.0000
        10         0.0001     -0.0001     -0.0000      0.0000      0.0000
        11         0.0001     -0.0001      0.0001      0.0000      0.0000
        12        -0.0000      0.0000     -0.0001      0.0000      0.0000
        13         0.0000     -0.0000     -0.0000      0.0000      0.0000
        14        -0.0000     -0.0000      0.0000      0.0000      0.0000
        15        -0.0000     -0.0000      0.0000      0.0000      0.0000
        16        -0.0000      0.0000     -0.0000      0.0000      0.0000
        17        -0.0000      0.0001      0.0000      0.0000      0.0000
        18         0.0678      0.1567      0.5892      0.3763      0.1256
        19        -0.1101      0.5862     -0.1432      0.3763      0.1256
        20         0.5996      0.0899     -0.0928      0.3762      0.1256
        21         0.0000     -0.0001     -0.0000      0.0000      0.0000
        22         0.0002     -0.0000      0.0005      0.0000      0.0000
        23         0.0002      0.0000     -0.0001      0.0000      0.0000
        24        -0.0004     -0.0001      0.0001      0.0000      0.0000
        25         1.0130      0.1862     -0.2524      1.1246      0.3959
        26         0.2533     -0.9890      0.2869      1.1246      0.3959
        27         0.1850      0.3344      0.9892      1.1245      0.3959
        28         0.0317     -0.0868     -0.4419      0.2038      0.0802
        29         0.0221     -0.4421      0.0885      0.2038      0.0802
        30        -0.4498     -0.0279     -0.0268      0.2038      0.0802
        31        -0.0282      0.0747      0.3717      0.1445      0.0612
        32        -0.0501      0.3687     -0.0779      0.1446      0.0612
        33         0.3758      0.0548      0.0175      0.1446      0.0612
        34         0.0000     -0.0000      0.0001      0.0000      0.0000
        35         0.0000      0.0000      0.0000      0.0000      0.0000
        36         0.0001      0.0000      0.0000      0.0000      0.0000
        37        -0.0000      0.0000      0.0000      0.0000      0.0000
        38         0.0001     -0.0000      0.0001      0.0000      0.0000
        39        -0.0005     -0.0001      0.0000      0.0000      0.0000
        40         0.0000     -0.0004      0.0001      0.0000      0.0000
        41        -0.0000      0.0000      0.0003      0.0000      0.0000
        42         0.0001     -0.0001      0.0001      0.0000      0.0000
        43         0.0000     -0.0000     -0.0000      0.0000      0.0000
        44         0.0497      0.2944      0.8757      0.8560      0.3827
        45         0.3734     -0.8086      0.2506      0.8560      0.3827
        46        -0.8451     -0.3399      0.1622      0.8560      0.3827
        47        -0.0007      0.0023      0.0007      0.0000      0.0000
        48         0.0005      0.0000      0.0000      0.0000      0.0000
        49         0.0001      0.0000     -0.0000      0.0000      0.0000
        50         0.0001     -0.0001      0.0004      0.0000      0.0000
        51         0.0000     -0.0000      0.0000      0.0000      0.0000
        52         0.0000     -0.0001     -0.0000      0.0000      0.0000
        53         0.0000     -0.0001      0.0000      0.0000      0.0000
        54         0.0000      0.0000      0.0000      0.0000      0.0000
        55        -0.0000      0.0000      0.0000      0.0000      0.0000
        56         0.0000      0.0000     -0.0000      0.0000      0.0000
        57        -0.0000      0.0001      0.0000      0.0000      0.0000
        58         0.0068      0.0166      0.0659      0.0047      0.0021
        59         0.0118     -0.0655      0.0153      0.0047      0.0021
        60        -0.0669     -0.0099      0.0094      0.0047      0.0021
        61         0.0000      0.0000     -0.0000      0.0000      0.0000
        62        -0.0001      0.0000     -0.0003      0.0000      0.0000
        63         0.0002      0.0000     -0.0002      0.0000      0.0000
        64         0.0001      0.0000      0.0000      0.0000      0.0000
        65        -0.4724     -0.0360      0.1008      0.2346      0.1220
        66        -0.0568      0.4708     -0.0984      0.2346      0.1220
        67         0.0907      0.1077      0.4634      0.2346      0.1219
        68         0.3754     -0.0560     -0.0710      0.1491      0.0789
        69        -0.0569     -0.3820     -0.0002      0.1491      0.0789
        70        -0.0702      0.0106     -0.3796      0.1492      0.0789
        71        -0.0591      0.0207      0.1815      0.0368      0.0197
        72         0.1598      0.0982      0.0408      0.0368      0.0197
        73         0.0885     -0.1636      0.0475      0.0368      0.0197
        74        -0.0000      0.0000      0.0000      0.0000      0.0000
        75         0.0000     -0.0001      0.0000      0.0000      0.0000
        76        -0.0000      0.0000     -0.0001      0.0000      0.0000
        77        -0.0000      0.0000     -0.0000      0.0000      0.0000
        78        -0.0001     -0.0000      0.0000      0.0000      0.0000
        79        -0.0350     -0.1673     -0.3747      0.1696      0.0950
        80         0.1461     -0.3565      0.1455      0.1696      0.0950
        81         0.3834      0.1205     -0.0896      0.1696      0.0950
        82        -0.0001      0.0002     -0.0001      0.0000      0.0000
        83         0.0000      0.0000     -0.0001      0.0000      0.0000
        84         0.0000     -0.0000     -0.0000      0.0000      0.0000
        85        -0.0000      0.0000     -0.0000      0.0000      0.0000
        86         0.0000     -0.0000      0.0000      0.0000      0.0000
        87        -0.0106      0.0248      0.0987      0.0105      0.0067
        88        -0.0358      0.0920     -0.0270      0.0105      0.0067
        89         0.0952      0.0373      0.0008      0.0105      0.0067
        90        -0.0063      0.0146      0.0374      0.0017      0.0011
        91         0.0157     -0.0340      0.0159      0.0017      0.0011
        92        -0.0370     -0.0169      0.0003      0.0017      0.0011
        93        -0.0000      0.0000      0.0000      0.0000      0.0000
        94        -0.0000      0.0000     -0.0000      0.0000      0.0000
        95         0.0000      0.0000      0.0000      0.0000      0.0000
        96        -0.0049     -0.0033     -0.0323      0.0011      0.0007
        97        -0.0059      0.0322     -0.0024      0.0011      0.0007
        98         0.0319      0.0055     -0.0054      0.0011      0.0007
        99        -0.0006      0.0005      0.0020      0.0000      0.0000
       100        -0.0005     -0.0005      0.0000      0.0000      0.0000
       101         0.0015      0.0009     -0.0001      0.0000      0.0000
       102         0.0182     -0.0543     -0.2703      0.0763      0.0540
       103        -0.0082     -0.2709      0.0539      0.0764      0.0540
       104        -0.2756      0.0045     -0.0195      0.0764      0.0540
       105         0.0000     -0.0000     -0.0000      0.0000      0.0000
       106         0.0001     -0.0000      0.0001      0.0000      0.0000
       107         0.1944     -0.1924     -0.1215      0.0896      0.0645
       108        -0.1438      0.0200     -0.2618      0.0896      0.0645
       109         0.1764      0.2284     -0.0795      0.0896      0.0645
       110        -0.0000     -0.0000      0.0000      0.0000      0.0000
       111        -0.0000     -0.0000      0.0000      0.0000      0.0000
       112        -0.0000      0.0000      0.0000      0.0000      0.0000
       113        -0.2025     -0.1517      0.0906      0.0722      0.0554
       114        -0.1760      0.1604     -0.1247      0.0722      0.0554
       115         0.0163     -0.1533     -0.2202      0.0722      0.0554
       116        -0.0000     -0.0000      0.0000      0.0000      0.0000
       117        -0.0001      0.0000      0.0000      0.0000      0.0000
       118        -0.0001      0.0000     -0.0001      0.0000      0.0000
       119         0.6189     -0.1789     -0.1889      0.4508      0.3709
       120        -0.1453     -0.6420      0.1321      0.4508      0.3709
       121         0.2158      0.0809      0.6306      0.4508      0.3709
       122         0.0000      0.0000     -0.0000      0.0000      0.0000
       123         0.0000     -0.0000      0.0000      0.0000      0.0000
       124        -0.0001      0.0000      0.0003      0.0000      0.0000
       125        -0.0002      0.0001     -0.0002      0.0000      0.0000
       126        -0.1462      0.1285      0.0881      0.0457      0.0421
       127         0.1413      0.0584      0.1493      0.0457      0.0421
       128         0.0657      0.1604     -0.1249      0.0457      0.0421
       129        -0.0000     -0.0000      0.0000      0.0000      0.0000
       130        -0.0000     -0.0000      0.0000      0.0000      0.0000
       131        -0.0001      0.0000     -0.0000      0.0000      0.0000
       132         0.0800      0.3480      0.1160      0.1410      0.1340
       133         0.2652     -0.1369      0.2279      0.1410      0.1340
       134        -0.2535     -0.0334      0.2749      0.1410      0.1340
       135         0.0001      0.0001      0.0001      0.0000      0.0000
       136         0.0000     -0.0000     -0.0000      0.0000      0.0000
       137        -0.0000      0.0000     -0.0000      0.0000      0.0000
       138         0.1497     -0.0056     -0.0163      0.0227      0.0259
       139         0.0060      0.1506      0.0029      0.0227      0.0258
       140         0.0161     -0.0035      0.1498      0.0227      0.0258
       141         0.0001     -0.0000      0.0000      0.0000      0.0000
       142         0.0001     -0.0002      0.0001      0.0000      0.0000
       143        -0.0002      0.0000     -0.0002      0.0000      0.0000
       144         0.0010     -0.0002      0.0011      0.0000      0.0000
       145         0.0005      0.0001     -0.0011      0.0000      0.0000
       146        -0.0000      0.0000     -0.0000      0.0000      0.0000
       147        -0.2912      0.0851      0.0146      0.0923      0.1204
       148         0.0831      0.2621      0.1291      0.0923      0.1204
       149        -0.0236     -0.1278      0.2746      0.0923      0.1204
       150        -0.0055     -0.0025     -0.0745      0.0056      0.0075
       151         0.0407     -0.0627     -0.0010      0.0056      0.0075
       152         0.0624      0.0406     -0.0060      0.0056      0.0075
       153        -0.0000     -0.0001      0.0000      0.0000      0.0000
       154         0.0000     -0.0000     -0.0000      0.0000      0.0000
       155        -0.0000      0.0000     -0.0000      0.0000      0.0000
       156        -0.0000     -0.0000     -0.0000      0.0000      0.0000
       157        -0.0000     -0.0000     -0.0000      0.0000      0.0000
       158        -0.0129      0.0373      0.1004      0.0116      0.0162
       159        -0.0177      0.0990     -0.0390      0.0116      0.0162
       160         0.1057      0.0211      0.0058      0.0116      0.0162
       161         0.0000     -0.0000     -0.0000      0.0000      0.0000
       162         0.0000     -0.0000      0.0000      0.0000      0.0000
       163         0.0000      0.0000     -0.0000      0.0000      0.0000
       164         0.0000     -0.0000     -0.0000      0.0000      0.0000
       165        -0.0102     -0.0067     -0.2498      0.0625      0.0974
       166         0.0151     -0.2495      0.0061      0.0625      0.0974
       167         0.2494      0.0149     -0.0106      0.0625      0.0974
       168        -0.0002      0.0003     -0.0000      0.0000      0.0000
       169        -0.0000     -0.0000     -0.0002      0.0000      0.0000
       170         0.0038     -0.0085     -0.0296      0.0010      0.0015
       171         0.0212     -0.0209      0.0087      0.0010      0.0015
       172        -0.0223     -0.0213      0.0032      0.0010      0.0015
       173         0.0001     -0.0001     -0.0000      0.0000      0.0000
       174        -0.0001     -0.0002      0.0000      0.0000      0.0000
       175        -0.0002     -0.0000     -0.0002      0.0000      0.0000
       176        -0.0000     -0.0000     -0.0000      0.0000      0.0000
       177        -0.0000     -0.0000     -0.0000      0.0000      0.0000
       178         0.0011     -0.0046     -0.0072      0.0001      0.0001
       179        -0.0064     -0.0052      0.0023      0.0001      0.0001
       180         0.0056     -0.0051      0.0041      0.0001      0.0001
       181        -0.0021      0.0062      0.0057      0.0001      0.0001
       182        -0.0042      0.0043     -0.0063      0.0001      0.0001
       183        -0.0073     -0.0042      0.0019      0.0001      0.0001
       184         0.0000      0.0000     -0.0000      0.0000      0.0000
       185        -0.0001      0.0000      0.0000      0.0000      0.0000
       186         0.0000      0.0000      0.0001      0.0000      0.0000
       187         0.0000     -0.0000      0.0001      0.0000      0.0000
       188         0.0000      0.0001      0.0000      0.0000      0.0000
       189        -0.0004     -0.0000      0.0001      0.0000      0.0000
       190         0.0219      0.0202      0.0005      0.0009      0.0016
       191        -0.0198      0.0212      0.0070      0.0009      0.0016
       192         0.0045     -0.0055      0.0289      0.0009      0.0016
       193         0.0000     -0.0000      0.0000      0.0000      0.0000
       194         0.0151     -0.0021     -0.0745      0.0058      0.0108
       195        -0.0734     -0.0133     -0.0145      0.0058      0.0108
       196        -0.0127      0.0748     -0.0047      0.0058      0.0108
       197        -0.0000      0.0000      0.0001      0.0000      0.0000
       198         0.0000      0.0000     -0.0001      0.0000      0.0000
       199        -0.0002     -0.0000     -0.0000      0.0000      0.0000
       200        -0.0000      0.0000     -0.0000      0.0000      0.0000
       201         0.0003      0.0215      0.0410      0.0021      0.0042
       202         0.0205     -0.0368      0.0191      0.0021      0.0042
       203         0.0415      0.0180     -0.0098      0.0021      0.0042
       204        -0.0000      0.0000      0.0000      0.0000      0.0000
       205        -0.0000     -0.0000      0.0000      0.0000      0.0000
       206        -0.0000     -0.0000      0.0000      0.0000      0.0000
       207         0.0000     -0.0000      0.0000      0.0000      0.0000
       208        -0.0000     -0.0000     -0.0000      0.0000      0.0000
       209         0.0042      0.0025     -0.0015      0.0000      0.0001
       210         0.0007     -0.0034     -0.0037      0.0000      0.0001
       211         0.0028     -0.0029      0.0031      0.0000      0.0001
       212         0.0000     -0.0000      0.0000      0.0000      0.0000
       213        -0.0000      0.0000      0.0000      0.0000      0.0000
       214         0.0009     -0.0022     -0.0167      0.0003      0.0006
       215         0.0045      0.0161     -0.0019      0.0003      0.0006
       216        -0.0162      0.0043     -0.0014      0.0003      0.0006
       217         0.0000      0.0000     -0.0000      0.0000      0.0000
       218         0.0000     -0.0001     -0.0000      0.0000      0.0000
       219         0.0000     -0.0000      0.0001      0.0000      0.0000
       220        -0.0042      0.0065      0.0319      0.0011      0.0025
       221        -0.0129      0.0291     -0.0077      0.0011      0.0025
       222         0.0298      0.0136      0.0011      0.0011      0.0025
       223        -0.0766      0.0818      0.0123      0.0127      0.0293
       224        -0.0136      0.0041     -0.1119      0.0127      0.0293
       225        -0.0816     -0.0775      0.0071      0.0127      0.0293
       226         0.0000      0.0000     -0.0000      0.0000      0.0000
       227        -0.0000      0.0000      0.0000      0.0000      0.0000
       228        -0.0000      0.0000     -0.0000      0.0000      0.0000
       229        -0.0000      0.0000     -0.0000      0.0000      0.0000
       230         0.0000      0.0000     -0.0001      0.0000      0.0000
       231        -0.0022      0.0021      0.0013      0.0000      0.0000
       232        -0.0016      0.0001     -0.0028      0.0000      0.0000
       233        -0.0018     -0.0025      0.0010      0.0000      0.0000
       234        -0.0000      0.0000     -0.0000      0.0000      0.0000
       235        -0.0000      0.0000      0.0000      0.0000      0.0000
       236         0.0000     -0.0000     -0.0000      0.0000      0.0000
       237        -0.0000      0.0000      0.0000      0.0000      0.0000
       238        -0.0000      0.0000      0.0000      0.0000      0.0000
       239         0.0000      0.0000     -0.0000      0.0000      0.0000
       240         0.0000      0.0000     -0.0000      0.0000      0.0000
       241         0.0000     -0.0000      0.0001      0.0000      0.0000
       242         0.0970      0.0239     -0.0077      0.0100      0.0261
       243        -0.0248      0.0959     -0.0156      0.0100      0.0261
       244        -0.0036     -0.0170     -0.0987      0.0100      0.0261
       245        -0.0001      0.0002      0.0000      0.0000      0.0000
       246        -0.0000      0.0001     -0.0003      0.0000      0.0000
       247        -0.0000     -0.0000      0.0000      0.0000      0.0000
       248        -0.0000     -0.0000      0.0000      0.0000      0.0000
       249        -0.0000      0.0000     -0.0000      0.0000      0.0000
       250        -0.0224     -0.0040      0.0018      0.0005      0.0015
       251         0.0042     -0.0222      0.0035      0.0005      0.0015
       252         0.0011      0.0038      0.0225      0.0005      0.0015
       253         0.0000     -0.0000      0.0000      0.0000      0.0000
       254         0.0603     -0.0071     -0.0033      0.0037      0.0114
       255         0.0043      0.0089      0.0600      0.0037      0.0114
       256         0.0065      0.0598     -0.0094      0.0037      0.0114
       257        -0.0000     -0.0000     -0.0002      0.0000      0.0000
       258        -0.0001      0.0000     -0.0001      0.0000      0.0000
       259        -0.0001     -0.0001     -0.0001      0.0000      0.0000
       260        -0.0000     -0.0000     -0.0000      0.0000      0.0000
       261         0.0000     -0.0000      0.0001      0.0000      0.0000
       262        -0.0131      0.0081      0.0083      0.0003      0.0010
       263        -0.0112     -0.0055     -0.0122      0.0003      0.0010
       264        -0.0031     -0.0144      0.0093      0.0003      0.0010
       265        -0.0162      0.0099      0.0018      0.0004      0.0012
       266         0.0101      0.0159      0.0033      0.0004      0.0012
       267        -0.0002     -0.0038      0.0187      0.0004      0.0012
       268        -0.0000      0.0000      0.0000      0.0000      0.0000
       269         0.0017     -0.0012     -0.0123      0.0002      0.0023
       270         0.0066     -0.0104      0.0019      0.0002      0.0023
       271        -0.0104     -0.0068     -0.0008      0.0002      0.0023
       272         0.0000     -0.0000      0.0000      0.0000      0.0000
 Ground to excited state transition velocity dipole moments (Au):
       state          X           Y           Z        Dip. S.      Osc.
         1        -0.0206      0.0531      0.2790      0.0811      0.1418
         2        -0.0282      0.2779     -0.0550      0.0811      0.1418
         3         0.2826      0.0316      0.0148      0.0811      0.1418
         4         0.0008      0.1163      0.2094      0.0574      0.0834
         5        -0.1154      0.1837     -0.1016      0.0574      0.0834
         6        -0.2099     -0.1005      0.0566      0.0574      0.0834
         7         0.0000     -0.0000      0.0001      0.0000      0.0000
         8        -0.0000      0.0000      0.0000      0.0000      0.0000
         9        -0.0001     -0.0000     -0.0000      0.0000      0.0000
        10        -0.0000      0.0000      0.0000      0.0000      0.0000
        11        -0.0000      0.0000     -0.0000      0.0000      0.0000
        12         0.0000     -0.0000      0.0000      0.0000      0.0000
        13        -0.0000      0.0000      0.0000      0.0000      0.0000
        14         0.0000      0.0000     -0.0000      0.0000      0.0000
        15         0.0000      0.0000     -0.0000      0.0000      0.0000
        16         0.0000     -0.0000      0.0000      0.0000      0.0000
        17         0.0000     -0.0000     -0.0000      0.0000      0.0000
        18        -0.0340     -0.0787     -0.2959      0.0949      0.1264
        19         0.0553     -0.2944      0.0719      0.0949      0.1264
        20        -0.3012     -0.0452      0.0466      0.0949      0.1263
        21        -0.0000      0.0001      0.0000      0.0000      0.0000
        22        -0.0001      0.0000     -0.0003      0.0000      0.0000
        23        -0.0001     -0.0000      0.0000      0.0000      0.0000
        24         0.0002      0.0001     -0.0001      0.0000      0.0000
        25        -0.5391     -0.0991      0.1343      0.3185      0.4021
        26        -0.1348      0.5263     -0.1527      0.3185      0.4021
        27        -0.0985     -0.1779     -0.5264      0.3185      0.4021
        28        -0.0187      0.0510      0.2598      0.0704      0.0796
        29        -0.0130      0.2599     -0.0520      0.0704      0.0796
        30         0.2644      0.0164      0.0158      0.0704      0.0796
        31         0.0179     -0.0474     -0.2359      0.0582      0.0611
        32         0.0318     -0.2340      0.0494      0.0582      0.0611
        33        -0.2385     -0.0348     -0.0111      0.0582      0.0611
        34        -0.0000      0.0000     -0.0001      0.0000      0.0000
        35        -0.0000     -0.0000     -0.0000      0.0000      0.0000
        36        -0.0001     -0.0000     -0.0000      0.0000      0.0000
        37         0.0000     -0.0000     -0.0000      0.0000      0.0000
        38        -0.0000      0.0000     -0.0000      0.0000      0.0000
        39         0.0043      0.0004      0.0001      0.0000      0.0000
        40        -0.0004      0.0041     -0.0006      0.0000      0.0000
        41         0.0002     -0.0006     -0.0041      0.0000      0.0000
        42        -0.0001      0.0001     -0.0000      0.0000      0.0000
        43        -0.0000      0.0000      0.0000      0.0000      0.0000
        44        -0.0333     -0.1973     -0.5870      0.3847      0.3824
        45        -0.2503      0.5420     -0.1680      0.3846      0.3824
        46         0.5665      0.2279     -0.1087      0.3847      0.3824
        47         0.0005     -0.0015     -0.0005      0.0000      0.0000
        48        -0.0003     -0.0000     -0.0000      0.0000      0.0000
        49        -0.0001     -0.0000      0.0000      0.0000      0.0000
        50        -0.0001      0.0001     -0.0002      0.0000      0.0000
        51        -0.0000      0.0000     -0.0000      0.0000      0.0000
        52        -0.0000      0.0000      0.0000      0.0000      0.0000
        53        -0.0000      0.0000     -0.0000      0.0000      0.0000
        54        -0.0000     -0.0000     -0.0000      0.0000      0.0000
        55         0.0000     -0.0000     -0.0000      0.0000      0.0000
        56        -0.0000     -0.0000      0.0000      0.0000      0.0000
        57         0.0000     -0.0000     -0.0000      0.0000      0.0000
        58        -0.0045     -0.0111     -0.0441      0.0021      0.0020
        59        -0.0079      0.0438     -0.0102      0.0021      0.0020
        60         0.0448      0.0066     -0.0063      0.0021      0.0020
        61        -0.0000     -0.0000      0.0000      0.0000      0.0000
        62         0.0001     -0.0000      0.0002      0.0000      0.0000
        63        -0.0002     -0.0000      0.0001      0.0000      0.0000
        64        -0.0001     -0.0000     -0.0000      0.0000      0.0000
        65         0.3659      0.0279     -0.0781      0.1408      0.1203
        66         0.0440     -0.3647      0.0762      0.1408      0.1203
        67        -0.0703     -0.0835     -0.3589      0.1407      0.1203
        68        -0.2984      0.0445      0.0564      0.0942      0.0792
        69         0.0453      0.3036      0.0001      0.0942      0.0792
        70         0.0558     -0.0084      0.3018      0.0942      0.0792
        71         0.0481     -0.0169     -0.1479      0.0245      0.0204
        72        -0.1302     -0.0801     -0.0332      0.0245      0.0204
        73        -0.0721      0.1334     -0.0387      0.0245      0.0204
        74         0.0000     -0.0000     -0.0000      0.0000      0.0000
        75        -0.0000      0.0001     -0.0000      0.0000      0.0000
        76         0.0000     -0.0000      0.0001      0.0000      0.0000
        77         0.0000     -0.0000      0.0000      0.0000      0.0000
        78         0.0000      0.0000     -0.0000      0.0000      0.0000
        79         0.0286      0.1365      0.3058      0.1129      0.0896
        80        -0.1192      0.2909     -0.1187      0.1129      0.0896
        81        -0.3129     -0.0984      0.0732      0.1129      0.0896
        82         0.0001     -0.0001      0.0001      0.0000      0.0000
        83        -0.0000     -0.0000      0.0001      0.0000      0.0000
        84        -0.0000      0.0000      0.0000      0.0000      0.0000
        85         0.0000     -0.0000      0.0000      0.0000      0.0000
        86        -0.0000      0.0000     -0.0000      0.0000      0.0000
        87         0.0104     -0.0245     -0.0974      0.0102      0.0071
        88         0.0353     -0.0908      0.0266      0.0102      0.0071
        89        -0.0940     -0.0368     -0.0008      0.0102      0.0071
        90         0.0061     -0.0141     -0.0363      0.0016      0.0011
        91        -0.0152      0.0329     -0.0154      0.0016      0.0011
        92         0.0358      0.0164     -0.0003      0.0016      0.0011
        93         0.0000      0.0000     -0.0000      0.0000      0.0000
        94         0.0000     -0.0000      0.0000      0.0000      0.0000
        95        -0.0000     -0.0000     -0.0000      0.0000      0.0000
        96         0.0045      0.0031      0.0298      0.0009      0.0006
        97         0.0055     -0.0297      0.0022      0.0009      0.0006
        98        -0.0294     -0.0050      0.0050      0.0009      0.0006
        99         0.0007     -0.0005     -0.0021      0.0000      0.0000
       100         0.0005      0.0005     -0.0000      0.0000      0.0000
       101        -0.0016     -0.0010      0.0001      0.0000      0.0000
       102        -0.0195      0.0582      0.2897      0.0877      0.0551
       103         0.0088      0.2903     -0.0577      0.0877      0.0551
       104         0.2954     -0.0049      0.0209      0.0877      0.0551
       105        -0.0000      0.0000      0.0000      0.0000      0.0000
       106        -0.0001      0.0000     -0.0001      0.0000      0.0000
       107        -0.2085      0.2064      0.1303      0.1030      0.0636
       108         0.1542     -0.0214      0.2807      0.1031      0.0636
       109        -0.1891     -0.2450      0.0853      0.1031      0.0636
       110        -0.0000      0.0000     -0.0000      0.0000      0.0000
       111         0.0000      0.0000     -0.0000      0.0000      0.0000
       112         0.0000      0.0000     -0.0000      0.0000      0.0000
       113         0.2252      0.1687     -0.1008      0.0893      0.0518
       114         0.1957     -0.1784      0.1386      0.0893      0.0518
       115        -0.0181      0.1704      0.2449      0.0893      0.0518
       116         0.0000      0.0000     -0.0000      0.0000      0.0000
       117         0.0001     -0.0000     -0.0001      0.0000      0.0000
       118         0.0001     -0.0000      0.0001      0.0000      0.0000
       119        -0.7450      0.2154      0.2273      0.6530      0.3527
       120         0.1749      0.7728     -0.1590      0.6530      0.3527
       121        -0.2597     -0.0974     -0.7590      0.6531      0.3527
       122        -0.0000     -0.0000      0.0000      0.0000      0.0000
       123        -0.0000      0.0000     -0.0000      0.0000      0.0000
       124         0.0001     -0.0001     -0.0003      0.0000      0.0000
       125         0.0002     -0.0001      0.0002      0.0000      0.0000
       126         0.1948     -0.1712     -0.1174      0.0810      0.0390
       127        -0.1882     -0.0778     -0.1989      0.0810      0.0390
       128        -0.0875     -0.2138      0.1664      0.0810      0.0390
       129         0.0000      0.0000     -0.0000      0.0000      0.0000
       130         0.0000      0.0000     -0.0000      0.0000      0.0000
       131         0.0001     -0.0000      0.0000      0.0000      0.0000
       132        -0.1115     -0.4853     -0.1618      0.2742      0.1282
       133        -0.3698      0.1909     -0.3178      0.2742      0.1282
       134         0.3535      0.0466     -0.3834      0.2742      0.1282
       135        -0.0001     -0.0002     -0.0001      0.0000      0.0000
       136        -0.0000      0.0000      0.0000      0.0000      0.0000
       137         0.0000     -0.0000      0.0000      0.0000      0.0000
       138        -0.2483      0.0093      0.0270      0.0625      0.0244
       139        -0.0099     -0.2497     -0.0048      0.0625      0.0244
       140        -0.0268      0.0058     -0.2484      0.0625      0.0244
       141        -0.0002      0.0001     -0.0001      0.0000      0.0000
       142        -0.0003      0.0003     -0.0001      0.0000      0.0000
       143         0.0003     -0.0001      0.0003      0.0000      0.0000
       144        -0.0018      0.0004     -0.0018      0.0000      0.0000
       145        -0.0008     -0.0001      0.0018      0.0000      0.0000
       146         0.0000     -0.0000      0.0000      0.0000      0.0000
       147         0.4981     -0.1455     -0.0249      0.2699      0.0919
       148        -0.1421     -0.4483     -0.2207      0.2699      0.0919
       149         0.0403      0.2185     -0.4696      0.2699      0.0919
       150         0.0105      0.0047      0.1419      0.0203      0.0067
       151        -0.0775      0.1193      0.0019      0.0203      0.0067
       152        -0.1188     -0.0774      0.0114      0.0202      0.0067
       153         0.0000      0.0001     -0.0000      0.0000      0.0000
       154        -0.0000      0.0001      0.0000      0.0000      0.0000
       155         0.0000     -0.0000      0.0000      0.0000      0.0000
       156         0.0000      0.0000     -0.0000      0.0000      0.0000
       157         0.0000      0.0000      0.0000      0.0000      0.0000
       158         0.0289     -0.0834     -0.2248      0.0583      0.0186
       159         0.0395     -0.2217      0.0874      0.0583      0.0186
       160        -0.2365     -0.0473     -0.0129      0.0583      0.0186
       161        -0.0000      0.0001      0.0000      0.0000      0.0000
       162        -0.0000      0.0000     -0.0000      0.0000      0.0000
       163        -0.0000     -0.0000      0.0000      0.0000      0.0000
       164         0.0000      0.0000      0.0001      0.0000      0.0000
       165         0.0253      0.0165      0.6168      0.3813      0.1088
       166        -0.0373      0.6162     -0.0150      0.3813      0.1088
       167        -0.6158     -0.0367      0.0262      0.3813      0.1088
       168         0.0004     -0.0005      0.0001      0.0000      0.0000
       169         0.0000      0.0000      0.0004      0.0000      0.0000
       170        -0.0073      0.0162      0.0566      0.0035      0.0010
       171        -0.0406      0.0399     -0.0166      0.0035      0.0010
       172         0.0426      0.0408     -0.0062      0.0035      0.0010
       173        -0.0001      0.0001      0.0000      0.0000      0.0000
       174         0.0002      0.0004     -0.0001      0.0000      0.0000
       175         0.0003      0.0001      0.0003      0.0000      0.0000
       176         0.0000      0.0001      0.0000      0.0000      0.0000
       177         0.0000      0.0000      0.0000      0.0000      0.0000
       178        -0.0021      0.0084      0.0131      0.0002      0.0001
       179         0.0118      0.0095     -0.0042      0.0002      0.0001
       180        -0.0102      0.0093     -0.0075      0.0002      0.0001
       181         0.0192     -0.0565     -0.0514      0.0062      0.0015
       182         0.0379     -0.0390      0.0570      0.0062      0.0015
       183         0.0663      0.0387     -0.0177      0.0062      0.0015
       184        -0.0000     -0.0000      0.0001      0.0000      0.0000
       185         0.0001     -0.0000     -0.0000      0.0000      0.0000
       186        -0.0000     -0.0000     -0.0001      0.0000      0.0000
       187        -0.0000      0.0001     -0.0001      0.0000      0.0000
       188        -0.0000     -0.0002     -0.0000      0.0000      0.0000
       189         0.0006      0.0001     -0.0002      0.0000      0.0000
       190        -0.0389     -0.0360     -0.0008      0.0028      0.0007
       191         0.0352     -0.0376     -0.0125      0.0028      0.0007
       192        -0.0079      0.0097     -0.0514      0.0028      0.0007
       193        -0.0000      0.0001     -0.0000      0.0000      0.0000
       194        -0.0394      0.0055      0.1946      0.0395      0.0093
       195         0.1918      0.0349      0.0379      0.0394      0.0093
       196         0.0331     -0.1955      0.0122      0.0395      0.0093
       197         0.0000     -0.0000     -0.0003      0.0000      0.0000
       198        -0.0000     -0.0001      0.0002      0.0000      0.0000
       199         0.0006      0.0000      0.0001      0.0000      0.0000
       200         0.0000     -0.0000      0.0000      0.0000      0.0000
       201        -0.0009     -0.0611     -0.1165      0.0173      0.0039
       202        -0.0582      0.1047     -0.0544      0.0173      0.0039
       203        -0.1180     -0.0512      0.0278      0.0173      0.0039
       204         0.0000     -0.0000     -0.0000      0.0000      0.0000
       205         0.0000      0.0000     -0.0000      0.0000      0.0000
       206         0.0000      0.0000     -0.0000      0.0000      0.0000
       207        -0.0000      0.0001     -0.0001      0.0000      0.0000
       208         0.0000      0.0001      0.0001      0.0000      0.0000
       209        -0.0338     -0.0201      0.0122      0.0017      0.0004
       210        -0.0055      0.0275      0.0301      0.0017      0.0004
       211        -0.0228      0.0230     -0.0253      0.0017      0.0004
       212        -0.0000      0.0000     -0.0000      0.0000      0.0000
       213         0.0000     -0.0000     -0.0000      0.0000      0.0000
       214        -0.0021      0.0054      0.0407      0.0017      0.0003
       215        -0.0109     -0.0393      0.0046      0.0017      0.0003
       216         0.0395     -0.0106      0.0035      0.0017      0.0003
       217        -0.0001     -0.0001      0.0000      0.0000      0.0000
       218        -0.0002      0.0003      0.0000      0.0000      0.0000
       219        -0.0002      0.0001     -0.0003      0.0000      0.0000
       220         0.0137     -0.0212     -0.1039      0.0114      0.0022
       221         0.0421     -0.0949      0.0250      0.0114      0.0022
       222        -0.0972     -0.0443     -0.0037      0.0114      0.0022
       223         0.2971     -0.3170     -0.0478      0.1910      0.0368
       224         0.0528     -0.0158      0.4336      0.1910      0.0368
       225         0.3162      0.3004     -0.0275      0.1910      0.0368
       226        -0.0000     -0.0000      0.0000      0.0000      0.0000
       227         0.0000     -0.0001     -0.0000      0.0000      0.0000
       228         0.0000     -0.0000      0.0001      0.0000      0.0000
       229         0.0001     -0.0000      0.0000      0.0000      0.0000
       230        -0.0000     -0.0000      0.0002      0.0000      0.0000
       231         0.0008     -0.0008     -0.0005      0.0000      0.0000
       232         0.0006     -0.0000      0.0010      0.0000      0.0000
       233         0.0007      0.0009     -0.0004      0.0000      0.0000
       234         0.0000     -0.0000      0.0000      0.0000      0.0000
       235         0.0001     -0.0000     -0.0000      0.0000      0.0000
       236        -0.0000      0.0000      0.0001      0.0000      0.0000
       237         0.0000     -0.0000      0.0000      0.0000      0.0000
       238         0.0001     -0.0002     -0.0000      0.0000      0.0000
       239        -0.0001     -0.0000      0.0000      0.0000      0.0000
       240        -0.0001     -0.0001      0.0001      0.0000      0.0000
       241        -0.0001      0.0000     -0.0005      0.0000      0.0000
       242        -0.3854     -0.0949      0.0305      0.1585      0.0271
       243         0.0986     -0.3807      0.0618      0.1585      0.0271
       244         0.0144      0.0674      0.3921      0.1585      0.0271
       245         0.0004     -0.0009     -0.0000      0.0000      0.0000
       246         0.0001     -0.0005      0.0010      0.0000      0.0000
       247         0.0000      0.0000     -0.0000      0.0000      0.0000
       248         0.0000      0.0000     -0.0000      0.0000      0.0000
       249         0.0000     -0.0000      0.0000      0.0000      0.0000
       250         0.0970      0.0173     -0.0076      0.0098      0.0016
       251        -0.0183      0.0959     -0.0151      0.0098      0.0016
       252        -0.0048     -0.0162     -0.0974      0.0098      0.0016
       253        -0.0002      0.0002     -0.0000      0.0000      0.0000
       254        -0.3049      0.0358      0.0165      0.0945      0.0136
       255        -0.0217     -0.0452     -0.3033      0.0945      0.0136
       256        -0.0329     -0.3020      0.0474      0.0945      0.0136
       257         0.0000      0.0000      0.0009      0.0000      0.0000
       258         0.0006     -0.0001      0.0003      0.0000      0.0000
       259         0.0007      0.0003      0.0007      0.0000      0.0000
       260         0.0001      0.0001      0.0000      0.0000      0.0000
[...]
      3   0.219970D-01 -0.368601D-01  0.172708D-01  0.130316D-04 -0.281339D-05
      4  -0.406970D-01 -0.196024D-01  0.999727D-02 -0.150776D-04 -0.111066D-04
      5   0.183811D-02  0.567032D-01  0.118700D+00 -0.273531D-04 -0.450840D-04
      6  -0.625406D-01  0.104800D+00 -0.491073D-01 -0.380413D-04  0.864660D-05
      7   0.115709D+00  0.557339D-01 -0.284263D-01  0.447281D-04  0.327481D-04
      8   0.336923D-04 -0.171768D-04 -0.729434D-05 -0.685330D-01 -0.718402D-02
      9  -0.113033D-04 -0.412702D-05 -0.261852D-04  0.763891D-02 -0.680699D-01
     10  -0.474488D-05  0.218229D-05  0.193885D-04 -0.260313D-02 -0.875310D-02
     11   0.177458D+00 -0.408531D+00 -0.577408D-01  0.972552D-04  0.642293D-04
     12  -0.489684D-01  0.375166D-02  0.155279D+00 -0.795241D-04 -0.575726D-04
     13  -0.128460D+00  0.404715D+00 -0.977373D-01 -0.119813D-03 -0.716212D-05
     14  -0.229074D-01 -0.308597D-01 -0.415101D+00  0.387865D-04  0.107146D-03
     15   0.476985D-01  0.789818D-01 -0.434789D-01  0.000000D+00  0.190411D-03
     16   0.406031D+00  0.142487D+00 -0.117925D-01  0.114383D-03  0.732139D-05
               206           207           208           209           210 
      1  -0.375526D+02 -0.375490D+02 -0.375489D+02 -0.374422D+02 -0.374422D+02
      2   0.103986D-04  0.000000D+00  0.695228D-05 -0.421438D-02 -0.635678D-03
      3  -0.146069D-04 -0.250885D-04 -0.224793D-04  0.239982D-02 -0.346505D-02
      4  -0.441858D-05 -0.308690D-04  0.239579D-04  0.153383D-02  0.367403D-02
      5  -0.315528D-04  0.103456D-05 -0.203822D-04  0.340740D-01  0.513776D-02
      6   0.409691D-04  0.759544D-04  0.670409D-04 -0.194064D-01  0.280067D-01
      7   0.112742D-04  0.898316D-04 -0.680068D-04 -0.124068D-01 -0.296947D-01
      8  -0.353779D-02  0.696151D-05 -0.663358D-05 -0.401724D-05 -0.998173D-05
      9  -0.840739D-02 -0.167771D-04  0.190980D-04  0.231425D-05 -0.887137D-05
     10   0.683778D-01  0.398128D-04  0.235297D-04 -0.110421D-04 -0.567677D-05
     11  -0.152624D-03  0.146946D+00  0.175043D+00  0.150936D-02  0.179072D+00
     12   0.255424D-03 -0.380332D+00 -0.269393D+00 -0.956571D-01 -0.312102D-01
     13  -0.681899D-04  0.233418D+00  0.943324D-01  0.942598D-01 -0.147891D+00
     14   0.198227D-03 -0.824569D-01 -0.105618D+00  0.250897D+00 -0.433783D-02
     15   0.632075D-04 -0.253917D+00  0.327750D+00  0.346351D-01  0.142972D-01
     16   0.284174D-04  0.703787D-02 -0.840184D-01  0.275930D-01  0.215035D+00
               211           212           213           214           215 
      1  -0.374422D+02 -0.373939D+02 -0.373939D+02 -0.372441D+02 -0.372441D+02
      2  -0.277931D-02  0.000000D+00  0.000000D+00 -0.846060D-03 -0.471618D-02
      3  -0.285324D-02 -0.329512D-05  0.667696D-05 -0.243642D-02  0.160447D-01
      4  -0.316939D-02 -0.414110D-05  0.000000D+00  0.166617D-01  0.211051D-02
      5   0.224636D-01  0.000000D+00  0.000000D+00  0.205767D-02  0.114953D-01
      6   0.230549D-01  0.175546D-04 -0.425912D-04  0.593907D-02 -0.391121D-01
      7   0.256199D-01  0.194510D-04  0.480612D-05 -0.406206D-01 -0.515173D-02
      8   0.129765D-04  0.299209D-05  0.000000D+00 -0.270802D-05  0.000000D+00
      9   0.745700D-05 -0.119510D-04 -0.607196D-05 -0.383221D-05  0.000000D+00
     10  -0.137462D-04  0.614282D-05  0.000000D+00  0.000000D+00  0.177263D-05
     11   0.212756D+00 -0.122415D-01  0.164168D+00 -0.328278D-01  0.160034D+00
     12  -0.783962D-02  0.109002D+00 -0.317636D+00  0.400262D-01  0.413804D-01
     13  -0.204925D+00 -0.967623D-01  0.153484D+00 -0.720705D-02 -0.201393D+00
     14   0.604024D-01  0.379250D-02 -0.965295D-01 -0.286736D-01 -0.130397D+00
     15  -0.506326D-01  0.286500D+00  0.847978D-01 -0.394198D-01 -0.342143D-01
     16  -0.155043D+00 -0.392869D-01 -0.461499D-01 -0.220679D+00  0.181907D-01
               216           217           218           219           220 
      1  -0.372441D+02 -0.370987D+02 -0.370986D+02 -0.370986D+02 -0.370794D+02
      2   0.161589D-01 -0.226476D-04 -0.485997D-04 -0.457232D-04  0.407810D-02
      3   0.455792D-02  0.242878D-04 -0.751914D-04 -0.156505D-04  0.698369D-02
      4   0.148962D-02  0.284399D-05  0.457466D-05 -0.711554D-04 -0.317866D-01
      5  -0.393875D-01  0.870419D-04  0.193997D-03  0.189329D-03 -0.133258D-01
      6  -0.111115D-01 -0.922444D-04  0.303670D-03  0.607624D-04 -0.227381D-01
      7  -0.362999D-02 -0.940379D-05 -0.674391D-05  0.286211D-03  0.103614D+00
      8   0.000000D+00 -0.112243D-01 -0.186123D-02  0.129335D-01 -0.809861D-05
      9   0.000000D+00  0.130801D-01  0.586949D-03  0.112311D-01  0.000000D+00
     10  -0.376458D-05  0.167596D-02 -0.170947D-01 -0.102127D-02 -0.198788D-05
     11   0.167720D+00 -0.102881D-04 -0.122173D-03 -0.608889D-04 -0.479277D-01
     12  -0.625972D-01 -0.167128D-04  0.118624D-04 -0.119143D-04  0.375138D-01
     13  -0.105163D+00  0.677143D-05  0.125342D-03  0.474556D-04  0.104107D-01
     14   0.171548D+00  0.614724D-05 -0.216569D-04 -0.939437D-04 -0.324750D-01
     15  -0.958071D-02  0.399704D-04  0.702340D-04  0.306330D-04 -0.316751D-01
     16  -0.370142D-01  0.000000D+00  0.829760D-04  0.836849D-04 -0.187516D+00
               221           222           223           224           225 
      1  -0.370794D+02 -0.370794D+02 -0.370600D+02 -0.370600D+02 -0.370600D+02
      2   0.124957D-01 -0.300190D-01  0.754297D-01  0.135868D-01  0.827137D-01
      3   0.291910D-01  0.131541D-01  0.830683D-01  0.285555D-02 -0.762097D-01
      4   0.803979D-02 -0.945488D-03 -0.112739D-01  0.111906D+00 -0.808915D-02
      5  -0.407080D-01  0.978377D-01 -0.292358D+00 -0.526654D-01 -0.320597D+00
      6  -0.951340D-01 -0.428905D-01 -0.321964D+00 -0.110647D-01  0.295385D+00
      7  -0.262038D-01  0.311019D-02  0.437002D-01 -0.433743D+00  0.313622D-01
      8   0.311929D-05 -0.434873D-05 -0.521490D-05 -0.341076D-04  0.000000D+00
      9  -0.555027D-05  0.000000D+00 -0.523561D-05 -0.231567D-04 -0.152540D-04
     10  -0.134238D-05  0.270812D-05  0.431249D-04  0.765783D-05  0.209876D-05
     11  -0.195080D+00  0.231718D-01 -0.168057D-01 -0.160442D-02  0.374674D-02
     12   0.316753D-02 -0.630758D-01  0.291508D-02 -0.230619D-02  0.498796D-02
     13   0.191944D+00  0.399347D-01  0.138665D-01  0.389489D-02 -0.878507D-02
     14  -0.391946D-02  0.184867D+00 -0.627585D-02  0.557627D-03 -0.148049D-01
     15   0.312199D-01  0.110224D-01  0.115953D-02  0.334587D-02 -0.184270D-02
     16   0.259784D-01 -0.420409D-01 -0.225841D-02  0.162024D-01  0.250488D-02
               226           227           228           229           230 
      1  -0.368441D+02 -0.368440D+02 -0.368440D+02 -0.368432D+02 -0.368432D+02
      2  -0.279365D-05  0.188519D-04  0.202041D-04  0.492801D-04 -0.395673D-05
      3   0.667501D-05  0.245193D-04  0.496854D-05  0.229901D-04  0.162939D-04
      4   0.922958D-05 -0.337902D-05  0.231708D-04  0.182086D-04  0.591197D-04
      5   0.123837D-04 -0.353207D-04 -0.364202D-04 -0.120486D-03  0.755981D-05
      6  -0.194228D-04 -0.588598D-04 -0.156595D-04 -0.278875D-04 -0.394708D-04
      7  -0.143596D-04  0.181419D-04 -0.511838D-04 -0.342776D-04 -0.180807D-03
      8   0.354398D-01 -0.103705D-01  0.330058D-01  0.450151D-03 -0.552407D-03
      9  -0.345126D-01 -0.622727D-02  0.349939D-01  0.247293D-03 -0.241234D-03
     10  -0.318651D-02 -0.480244D-01 -0.116870D-01  0.469877D-03 -0.797755D-03
     11  -0.364741D-03 -0.172701D-02 -0.116955D-02  0.321509D-01  0.515302D-02
     12   0.630491D-04 -0.620879D-03  0.833046D-03 -0.734368D-01  0.654374D-02
     13   0.300132D-03  0.235670D-02  0.352181D-03  0.412948D-01 -0.116874D-01
     14   0.184562D-03 -0.102521D-02 -0.101755D-02 -0.224670D-01 -0.330692D-02
     15   0.397661D-03 -0.999725D-03  0.775878D-03  0.403864D-02  0.665044D-01
     16   0.715003D-03  0.168977D-03  0.162943D-02 -0.669900D-02 -0.910315D-02
               231           232           233           234           235 
      1  -0.368357D+02 -0.368357D+02 -0.368356D+02 -0.368310D+02 -0.367736D+02
      2   0.212048D-02  0.161308D-02  0.187350D-02  0.129788D-05  0.119942D-04
      3   0.214236D-02  0.681726D-04 -0.243912D-02  0.000000D+00  0.604795D-05
      4  -0.125689D-02  0.281503D-02 -0.100837D-02  0.000000D+00 -0.100867D-05
      5  -0.820062D-03 -0.608647D-03 -0.679863D-03 -0.639715D-05 -0.570124D-04
      6  -0.835672D-03 -0.259053D-04  0.851324D-03 -0.341916D-05 -0.261710D-04
      7   0.473407D-03 -0.101128D-02  0.365822D-03 -0.459908D-05  0.473558D-05
      8   0.121494D-04 -0.171119D-03  0.799797D-05 -0.143626D-04 -0.203981D-05
      9  -0.161451D-04 -0.742651D-04 -0.502899D-04  0.679896D-04  0.000000D+00
     10   0.174832D-03  0.131911D-03 -0.530011D-05  0.000000D+00 -0.172837D-05
     11  -0.413048D+00 -0.128404D+00  0.169782D+00  0.302864D-04 -0.559926D-01
     12   0.103690D+00  0.461647D-02  0.133353D+00 -0.186962D-04  0.127250D+00
     13   0.309339D+00  0.123778D+00 -0.303169D+00 -0.110659D-04 -0.711839D-01
     14  -0.187172D+00 -0.144765D+00 -0.360195D+00  0.296652D-04  0.326368D-01
     15   0.159070D-02  0.743982D-01 -0.736754D-01 -0.269570D-05  0.343934D-01
     16  -0.180687D+00  0.404751D+00 -0.427656D-01 -0.698949D-04  0.656325D-02
               236           237           238           239           240 
      1  -0.367736D+02 -0.367644D+02 -0.366509D+02 -0.366347D+02 -0.366347D+02
      2   0.000000D+00  0.106704D-04  0.157985D-04 -0.132361D-04 -0.377954D-04
      3  -0.135045D-05  0.000000D+00  0.389671D-04  0.103527D-04  0.344449D-04
      4   0.143361D-04  0.000000D+00 -0.273886D-05  0.119270D-04  0.241744D-04
      5   0.000000D+00 -0.429648D-04 -0.633764D-04  0.547278D-04  0.147306D-03
      6   0.141990D-05 -0.104912D-05 -0.154813D-03 -0.413780D-04 -0.134802D-03
      7  -0.675586D-04  0.000000D+00  0.109441D-04 -0.466657D-04 -0.963592D-04
      8   0.144576D-05 -0.113840D-05  0.578231D-05  0.475767D-01  0.204005D-02
      9  -0.124811D-04 -0.281360D-05  0.144319D-04  0.301846D-01 -0.115621D-01
     10   0.693082D-05  0.190052D-05  0.307373D-05  0.455227D-02  0.552893D-01
     11  -0.315144D-01 -0.105299D+00 -0.623626D-01  0.164788D-04  0.571608D-04
     12   0.332711D-01 -0.105286D+00 -0.624583D-01 -0.328155D-04 -0.282478D-04
     13  -0.183809D-02 -0.105370D+00 -0.625113D-01  0.562294D-04 -0.661958D-04
     14   0.196684D-01 -0.225956D-04  0.334917D-04 -0.289710D-04 -0.776075D-04
     15  -0.112031D+00  0.315242D-04 -0.351502D-05 -0.163523D-03  0.339882D-05
     16   0.223543D-01 -0.113521D-04  0.370006D-05  0.331549D-04 -0.300478D-04
               241           242           243           244           245 
      1  -0.366346D+02 -0.366225D+02 -0.366225D+02 -0.366225D+02 -0.366198D+02
      2  -0.167322D-04 -0.973887D-01  0.234291D-01  0.388673D-02  0.998817D-04
      3   0.000000D+00  0.223730D-01  0.960129D-01 -0.181697D-01  0.227041D-03
      4  -0.130701D-03  0.797065D-02  0.167868D-01  0.985061D-01 -0.590947D-05
      5   0.662083D-04  0.386794D+00 -0.930537D-01 -0.154372D-01 -0.395065D-03
      6  -0.286186D-05 -0.888562D-01 -0.381330D+00  0.721640D-01 -0.899612D-03
      7   0.515231D-03 -0.316574D-01 -0.666723D-01 -0.391234D+00  0.227171D-04
      8  -0.304447D-01 -0.555967D-05 -0.108322D-04 -0.379364D-04 -0.769420D-05
      9   0.463514D-01  0.000000D+00  0.106881D-04  0.650140D-04 -0.536253D-05
     10   0.108140D-01 -0.242536D-04 -0.125735D-04  0.603526D-05 -0.867511D-05
     11  -0.378889D-04 -0.269073D-01  0.862501D-01 -0.117205D-01  0.152268D+00
     12   0.233819D-04  0.304673D-01  0.298119D-02  0.127078D-01 -0.330780D+00
     13   0.660626D-04 -0.360811D-02 -0.891682D-01 -0.999025D-03  0.178503D+00
     14   0.335807D-04 -0.842420D-01 -0.107175D-01 -0.298480D-02 -0.878236D-01
     15  -0.271816D-03 -0.497594D-02 -0.141059D-01 -0.155339D-01 -0.484911D-01
     16   0.170983D-03  0.779278D-02 -0.219710D-02 -0.872906D-01 -0.241092D-01
               246           247           248           249           250 
      1  -0.366198D+02 -0.365329D+02 -0.365328D+02 -0.365328D+02 -0.363222D+02
      2   0.160619D-04  0.152681D-05  0.372349D-05  0.189117D-05  0.224845D-01
      3   0.134974D-03 -0.112810D-05  0.000000D+00  0.577177D-05 -0.365612D-02
      4   0.264763D-03 -0.185561D-05 -0.423640D-05  0.000000D+00 -0.181628D-02
      5  -0.626836D-04 -0.573615D-05 -0.141425D-04 -0.908069D-05 -0.972498D-01
      6  -0.535870D-03  0.603939D-05  0.201294D-05 -0.228295D-04  0.158129D-01
      7  -0.104832D-02  0.576875D-05  0.152787D-04 -0.262043D-05  0.785628D-02
      8  -0.957222D-05  0.949660D-02 -0.872808D-02 -0.136907D-02 -0.697857D-05
      9   0.542976D-04 -0.855708D-02 -0.878004D-02 -0.418817D-02  0.000000D+00
     10   0.552447D-05 -0.187622D-02 -0.397208D-02  0.122233D-01  0.317926D-05
     11   0.603359D-01 -0.177960D-04 -0.454018D-05  0.697364D-04  0.697232D-01
     12  -0.402760D-01 -0.182609D-05 -0.207181D-04  0.228955D-05 -0.655104D-01
     13  -0.200616D-01  0.197844D-05 -0.141689D-05 -0.834540D-04 -0.417147D-02
     14  -0.385031D-01  0.485858D-05  0.423288D-04 -0.851377D-05  0.178638D+00
     15   0.292413D+00  0.628183D-05  0.227679D-04 -0.473874D-05  0.883675D-02
     16  -0.553033D-01 -0.647081D-05 -0.315786D-04 -0.302260D-04 -0.149449D-01
               251           252           253           254           255 
      1  -0.363222D+02 -0.363222D+02 -0.359230D+02 -0.358969D+02 -0.358968D+02
      2  -0.391189D-02 -0.116026D-02 -0.433308D-04 -0.602258D-01 -0.443477D-02
      3  -0.221939D-01  0.402408D-02 -0.377295D-04 -0.801759D-02  0.964621D-02
      4  -0.377542D-02 -0.224608D-01 -0.805680D-05  0.316881D-02 -0.599030D-01
      5   0.169193D-01  0.501860D-02  0.214535D-03  0.304353D+00  0.224128D-01
      6   0.959922D-01 -0.174057D-01  0.192519D-03  0.405148D-01 -0.487482D-01
      7   0.163304D-01  0.971465D-01  0.428995D-04 -0.160141D-01  0.302721D+00
      8   0.103390D-05  0.221000D-05 -0.132350D-04  0.402452D-04  0.109822D-03
      9  -0.300908D-05 -0.427397D-05 -0.187643D-04  0.550182D-04 -0.218703D-04
     10  -0.387297D-05 -0.389629D-05 -0.135857D-04 -0.529962D-04 -0.446400D-04
     11  -0.181861D+00  0.228897D-01  0.148329D+00  0.178728D+00 -0.264593D-01
     12  -0.844738D-02 -0.266749D-01  0.147960D+00 -0.910425D-01  0.381684D-01
     13   0.190317D+00  0.377928D-02  0.147806D+00 -0.880218D-01 -0.117617D-01
     14   0.349386D-01  0.478319D-02  0.109446D-03  0.240222D+00 -0.323147D-02
     15   0.297177D-01  0.318271D-01 -0.417528D-04  0.980949D-03 -0.480448D-01
     16   0.265525D-02  0.187418D+00 -0.588550D-04 -0.157296D-01 -0.280151D+00
               256           257           258           259           260 
      1  -0.358968D+02 -0.358876D+02 -0.358875D+02 -0.358874D+02 -0.358728D+02
      2  -0.739207D-02  0.000000D+00  0.111000D-03  0.142639D-03  0.247085D-04
      3   0.595323D-01 -0.401845D-05  0.162666D-04 -0.536546D-04 -0.225973D-04
      4   0.101346D-01  0.169819D-03  0.549336D-04  0.135674D-03  0.931876D-05
      5   0.373588D-01 -0.102713D-05 -0.561557D-03 -0.719410D-03 -0.124315D-03
      6  -0.300851D+00  0.191026D-04 -0.835137D-04  0.271148D-03  0.119841D-03
      7  -0.512154D-01 -0.855016D-03 -0.276337D-03 -0.686464D-03 -0.474507D-04
      8   0.130061D-04  0.184049D-01 -0.260013D-02  0.217956D-01  0.590859D-05
      9   0.228708D-04 -0.218221D-01  0.171363D-02  0.185082D-01  0.346175D-05
     10   0.771165D-05 -0.299256D-02 -0.284726D-01 -0.875766D-03  0.106062D-04
     11  -0.230066D+00  0.364215D-04 -0.222224D-03 -0.815783D-04  0.957218D-01
     12  -0.397719D-01 -0.142719D-03  0.158232D-04  0.232121D-03 -0.199994D+00
     13   0.270043D+00  0.390516D-04  0.169269D-03  0.668660D-04  0.104189D+00
     14   0.126885D+00  0.614464D-04 -0.396467D-03 -0.479762D-03 -0.556968D-01
     15   0.455281D-01  0.486587D-03 -0.840373D-04 -0.239459D-03 -0.251091D-02
     16  -0.679289D-02  0.706235D-03  0.273122D-03  0.719594D-03 -0.192236D-01
               261           262           263           264           265 
      1  -0.358728D+02 -0.356126D+02 -0.356126D+02 -0.356126D+02 -0.355809D+02
      2  -0.151463D-04  0.129319D-01  0.112561D-01  0.327182D-02  0.161010D-01
      3  -0.280834D-05  0.840957D-02 -0.551481D-02 -0.142650D-01  0.101762D-01
      4  -0.675268D-04 -0.816538D-02  0.121459D-01 -0.950887D-02 -0.167034D-02
      5   0.749509D-04 -0.461756D-01 -0.401916D-01 -0.116787D-01 -0.433853D-01
      6   0.161442D-04 -0.300345D-01  0.196876D-01  0.509321D-01 -0.274204D-01
      7   0.337248D-03  0.291610D-01 -0.433751D-01  0.339561D-01  0.449486D-02
      8   0.000000D+00  0.000000D+00  0.000000D+00  0.407901D-05 -0.610612D-05
      9  -0.619369D-04  0.404650D-05  0.475116D-05 -0.266321D-05 -0.296695D-05
     10   0.113826D-04  0.000000D+00  0.352884D-05  0.112850D-04  0.180182D-04
     11  -0.220475D-01  0.171574D+00  0.127066D-01 -0.135154D+00 -0.735344D-01
     12  -0.575464D-02 -0.605841D-01 -0.238081D-01 -0.455743D-01  0.200837D-01
     13   0.278036D-01 -0.110990D+00  0.111010D-01  0.180730D+00  0.534545D-01
     14   0.149695D-01  0.119851D+00  0.124581D+00  0.106641D+00 -0.476414D-01
     15  -0.178047D+00  0.766163D-02 -0.185488D-01  0.453526D-01  0.348434D-02
     16   0.302990D-01  0.930425D-01 -0.171744D+00  0.764656D-01 -0.542889D-02
               266           267           268           269           270 
      1  -0.355808D+02 -0.355808D+02 -0.353088D+02 -0.179128D+02 -0.179128D+02
      2  -0.103112D-01  0.291722D-03  0.234165D-05 -0.163679D-02 -0.645368D-02
      3   0.157969D-01 -0.354918D-02  0.000000D+00 -0.135251D-02 -0.104319D-01
      4  -0.314226D-02 -0.187925D-01  0.000000D+00  0.122483D-01 -0.201433D-02
      5   0.277903D-01 -0.787251D-03 -0.863380D-05  0.193510D-01  0.763003D-01
      6  -0.425754D-01  0.957032D-02 -0.761649D-05  0.159904D-01  0.123335D+00
      7   0.846677D-02  0.506527D-01  0.000000D+00 -0.144811D+00  0.238157D-01
      8   0.315156D-05  0.746158D-05  0.000000D+00 -0.184013D-05  0.000000D+00
      9   0.896761D-05  0.152221D-04  0.000000D+00  0.000000D+00  0.000000D+00
     10   0.657559D-05 -0.716985D-05  0.467091D-05  0.000000D+00  0.000000D+00
     11  -0.367840D-01  0.135552D-01  0.339431D-01  0.604122D-02  0.397009D-01
     12  -0.167458D-01  0.152000D-01  0.339221D-01 -0.797554D-02 -0.306486D-02
     13   0.535304D-01 -0.287632D-01  0.339111D-01  0.194447D-02 -0.366354D-01
     14   0.587830D-01 -0.162323D-01  0.000000D+00  0.817943D-02  0.661444D-02
     15   0.654612D-02 -0.173948D-01  0.118415D-05  0.695684D-02 -0.525603D-02
     16  -0.299633D-01 -0.738332D-01  0.370610D-05  0.371114D-01 -0.307201D-02
               271           272 
      1  -0.179128D+02 -0.175606D+02
      2   0.104978D-01  0.000000D+00
      3  -0.662405D-02  0.000000D+00
      4   0.671312D-03  0.000000D+00
      5  -0.124114D+00  0.135042D-05
      6   0.783157D-01  0.193191D-05
      7  -0.793712D-02  0.244599D-05
      8   0.000000D+00  0.000000D+00
      9   0.000000D+00  0.000000D+00
     10   0.145994D-05  0.000000D+00
     11   0.143304D-02  0.198607D+00
     12   0.118332D-01  0.198607D+00
     13  -0.132600D-01  0.198605D+00
     14  -0.357938D-01  0.000000D+00
     15  -0.262862D-02  0.000000D+00
     16   0.988296D-02  0.000000D+00
 Unable to Open any file for archive entry.
 1\1\GINC-HEL15\SP\RwB97XD TD-FC\Gen\C1H4\RR\27-Feb-2022\0\\#P TD(Nstat
 es=10000) wB97XD/Gen SCF(maxcycles=100) Int(Grid=ultrafine)\\xGDB7_000
 01_tier4.com\\0,1\C,0,0.000001,0.000006,0.\H,0,0.985233,0.46299,-0.028
 035\H,0,-0.05618,-0.682943,0.846305\H,0,-0.168125,-0.551911,-0.923536\
 H,0,-0.760937,0.771825,0.105269\\Version=EM64L-G16RevC.01\State=1-A\HF
 =-40.5194646\RMSD=8.273e-10\PG=C01 [X(C1H4)]\\@
 The archive entry for this job was punched.


 AN AIRPLANE IS A COLLECTION OF SPARE PARTS
 FLYING IN CLOSE FORMATION.
 Job cpu time:       0 days  0 hours  2 minutes 51.7 seconds.
 Elapsed time:       0 days  0 hours  0 minutes 22.6 seconds.
 File lengths (MBytes):  RWF=    103 Int=      0 D2E=      0 Chk=     34 Scr=      1
 Normal termination of Gaussian 16 at Sun Feb 27 06:37:24 2022.
