 Entering Gaussian System, Link 0=g16
 Input=000004.com
 Output=000004.log
 Initial command:
 /home/sabyasachi/g16/l1.exe "/scratch/sabyasachi/PBS_7976006.helios/Gau-25158.inp" -scrdir="/scratch/sabyasachi/PBS_7976006.helios/"
 Entering Link 1 = /home/sabyasachi/g16/l1.exe PID=     25159.
  
 Copyright (c) 1988-2019, Gaussian, Inc.  All Rights Reserved.
  
 This is part of the Gaussian(R) 16 program.  It is based on
 the Gaussian(R) 09 system (copyright 2009, Gaussian, Inc.),
 the Gaussian(R) 03 system (copyright 2003, Gaussian, Inc.),
 the Gaussian(R) 98 system (copyright 1998, Gaussian, Inc.),
 the Gaussian(R) 94 system (copyright 1995, Gaussian, Inc.),
 the Gaussian 92(TM) system (copyright 1992, Gaussian, Inc.),
 the Gaussian 90(TM) system (copyright 1990, Gaussian, Inc.),
 the Gaussian 88(TM) system (copyright 1988, Gaussian, Inc.),
 the Gaussian 86(TM) system (copyright 1986, Carnegie Mellon
 University), and the Gaussian 82(TM) system (copyright 1983,
 Carnegie Mellon University). Gaussian is a federally registered
 trademark of Gaussian, Inc.
  
 This software contains proprietary and confidential information,
 including trade secrets, belonging to Gaussian, Inc.
  
 This software is provided under written license and may be
 used, copied, transmitted, or stored only in accord with that
 written license.
  
 The following legend is applicable only to US Government
 contracts under FAR:
  
                    RESTRICTED RIGHTS LEGEND
  
 Use, reproduction and disclosure by the US Government is
 subject to restrictions as set forth in subparagraphs (a)
 and (c) of the Commercial Computer Software - Restricted
 Rights clause in FAR 52.227-19.
  
 Gaussian, Inc.
 340 Quinnipiac St., Bldg. 40, Wallingford CT 06492
  
  
 ---------------------------------------------------------------
 Warning -- This program may not be used in any manner that
 competes with the business of Gaussian, Inc. or will provide
 assistance to any competitor of Gaussian, Inc.  The licensee
 of this program is prohibited from giving any competitor of
 Gaussian, Inc. access to this program.  By using this program,
 the user acknowledges that Gaussian, Inc. is engaged in the
 business of creating and licensing software in the field of
 computational chemistry and represents and warrants to the
 licensee that it is not a competitor of Gaussian, Inc. and that
 it will not use this program in any manner prohibited above.
 ---------------------------------------------------------------
  

 Cite this work as:
 Gaussian 16, Revision C.01,
 M. J. Frisch, G. W. Trucks, H. B. Schlegel, G. E. Scuseria, 
 M. A. Robb, J. R. Cheeseman, G. Scalmani, V. Barone, 
 G. A. Petersson, H. Nakatsuji, X. Li, M. Caricato, A. V. Marenich, 
 J. Bloino, B. G. Janesko, R. Gomperts, B. Mennucci, H. P. Hratchian, 
 J. V. Ortiz, A. F. Izmaylov, J. L. Sonnenberg, D. Williams-Young, 
 F. Ding, F. Lipparini, F. Egidi, J. Goings, B. Peng, A. Petrone, 
 T. Henderson, D. Ranasinghe, V. G. Zakrzewski, J. Gao, N. Rega, 
 G. Zheng, W. Liang, M. Hada, M. Ehara, K. Toyota, R. Fukuda, 
 J. Hasegawa, M. Ishida, T. Nakajima, Y. Honda, O. Kitao, H. Nakai, 
 T. Vreven, K. Throssell, J. A. Montgomery, Jr., J. E. Peralta, 
 F. Ogliaro, M. J. Bearpark, J. J. Heyd, E. N. Brothers, K. N. Kudin, 
 V. N. Staroverov, T. A. Keith, R. Kobayashi, J. Normand, 
 K. Raghavachari, A. P. Rendell, J. C. Burant, S. S. Iyengar, 
 J. Tomasi, M. Cossi, J. M. Millam, M. Klene, C. Adamo, R. Cammi, 
 J. W. Ochterski, R. L. Martin, K. Morokuma, O. Farkas, 
 J. B. Foresman, and D. J. Fox, Gaussian, Inc., Wallingford CT, 2019.
 
 ******************************************
 Gaussian 16:  EM64L-G16RevC.01  3-Jul-2019
                21-Mar-2022 
 ******************************************
 %mem=64gb
 %nproc=8
 Will use up to    8 processors via shared memory.
 ---------------------------------------------------------------------
 #P TD(Nstates=10000) b3lyp/Gen SCF(maxcycles=100) Int(Grid=ultrafine)
 ---------------------------------------------------------------------
 1/38=1,172=1/1;
 2/12=2,17=6,18=5,40=1/2;
 3/5=7,11=9,25=1,30=1,74=-5,75=-5/1,2,3,8;
 4//1;
 5/5=2,7=100,38=5/2;
 8/6=1,10=1,108=10000/1;
 9/41=10000,42=1,70=2/14;
 6/7=2,8=2,9=2,10=2/1;
 99/5=1,9=1/99;
 Leave Link    1 at Mon Mar 21 20:04:14 2022, MaxMem=  8589934592 cpu:               0.4 elap:               0.1
 (Enter /home/sabyasachi/g16/l101.exe)
 ---------------------
 xGDB7_00001_tier4.com
 ---------------------
 Symbolic Z-matrix:
 Charge =  0 Multiplicity = 1
 9                     0.        0.        0.0918 
 1                     0.        0.       -0.82621 
 
 ITRead=  0  0
 MicOpt= -1 -1
 NAtoms=      2 NQM=        2 NQMF=       0 NMMI=      0 NMMIF=      0
                NMic=       0 NMicF=      0.
                    Isotopes and Nuclear Properties:
 (Nuclear quadrupole moments (NQMom) in fm**2, nuclear magnetic moments (NMagM)
  in nuclear magnetons)

  Atom         1           2
 IAtWgt=          19           1
 AtmWgt=  18.9984033   1.0078250
 NucSpn=           1           1
 AtZEff=  -0.0000000  -0.0000000
 NQMom=    0.0000000   0.0000000
 NMagM=    2.6288670   2.7928460
 AtZNuc=   9.0000000   1.0000000
 Leave Link  101 at Mon Mar 21 20:04:14 2022, MaxMem=  8589934592 cpu:               0.6 elap:               0.1
 (Enter /home/sabyasachi/g16/l202.exe)
                          Input orientation:                          
 ---------------------------------------------------------------------
 Center     Atomic      Atomic             Coordinates (Angstroms)
 Number     Number       Type             X           Y           Z
 ---------------------------------------------------------------------
      1          9           0        0.000000    0.000000    0.091801
      2          1           0        0.000000    0.000000   -0.826212
 ---------------------------------------------------------------------
 Stoichiometry    FH
 Framework group  C*V[C*(HF)]
 Deg. of freedom     1
 Full point group                 C*V     NOp   4
 Largest Abelian subgroup         C2V     NOp   4
 Largest concise Abelian subgroup C1      NOp   1
                         Standard orientation:                         
 ---------------------------------------------------------------------
 Center     Atomic      Atomic             Coordinates (Angstroms)
 Number     Number       Type             X           Y           Z
 ---------------------------------------------------------------------
      1          9           0        0.000000    0.000000    0.091801
      2          1           0        0.000000    0.000000   -0.826212
 ---------------------------------------------------------------------
 Rotational constants (GHZ):           0.0000000         626.5886337         626.5886337
 Leave Link  202 at Mon Mar 21 20:04:14 2022, MaxMem=  8589934592 cpu:               0.1 elap:               0.0
 (Enter /home/sabyasachi/g16/l301.exe)
 General basis read from cards:  (5D, 7F)
 Centers:       2
 S 3 1.00
     Exponent=  1.3010701000D+01 Coefficients=  1.9682158000D-02
     Exponent=  1.9622572000D+00 Coefficients=  1.3796524000D-01
     Exponent=  4.4453796000D-01 Coefficients=  4.7831935000D-01
 S 1 1.00
     Exponent=  1.2194962000D-01 Coefficients=  1.0000000000D+00
 P 1 1.00
     Exponent=  8.0000000000D-01 Coefficients=  1.0000000000D+00
 P 1 1.00
     Exponent=  1.1704099050D-01 Coefficients=  1.0000000000D+00
 ****
 Centers:       1
 S 5 1.00
     Exponent=  2.8948325990D+03 Coefficients= -5.3408255515D-03
     Exponent=  4.3541939120D+02 Coefficients= -3.9904258866D-02
     Exponent=  9.8843328866D+01 Coefficients= -1.7912768038D-01
     Exponent=  2.7485198001D+01 Coefficients= -4.6758090825D-01
     Exponent=  8.5405498171D+00 Coefficients= -4.4653131020D-01
 S 1 1.00
     Exponent=  1.0654578038D+00 Coefficients=  1.0000000000D+00
 S 1 1.00
     Exponent=  3.3247346748D-01 Coefficients=  1.0000000000D+00
 S 1 1.00
     Exponent=  9.8097752264D-02 Coefficients=  1.0000000000D+00
 P 3 1.00
     Exponent=  2.2696633924D+01 Coefficients= -4.5212874436D-02
     Exponent=  4.9872339257D+00 Coefficients= -2.3754317067D-01
     Exponent=  1.3491613954D+00 Coefficients= -5.1287353587D-01
 P 1 1.00
     Exponent=  3.4829881977D-01 Coefficients=  1.0000000000D+00
 P 1 1.00
     Exponent=  8.3372148304D-02 Coefficients=  1.0000000000D+00
 D 1 1.00
     Exponent=  1.4000000000D+00 Coefficients=  1.0000000000D+00
 D 1 1.00
     Exponent=  2.2301361948D-01 Coefficients=  1.0000000000D+00
 ****
 Ernie: Thresh=  0.10000D-02 Tol=  0.10000D-05 Strict=F.
 There are    17 symmetry adapted cartesian basis functions of A1  symmetry.
 There are     2 symmetry adapted cartesian basis functions of A2  symmetry.
 There are     7 symmetry adapted cartesian basis functions of B1  symmetry.
 There are     7 symmetry adapted cartesian basis functions of B2  symmetry.
 There are    15 symmetry adapted basis functions of A1  symmetry.
 There are     2 symmetry adapted basis functions of A2  symmetry.
 There are     7 symmetry adapted basis functions of B1  symmetry.
 There are     7 symmetry adapted basis functions of B2  symmetry.
    31 basis functions,    45 primitive gaussians,    33 cartesian basis functions
     5 alpha electrons        5 beta electrons
       nuclear repulsion energy         5.1879384042 Hartrees.
 IExCor=  402 DFT=T Ex+Corr=B3LYP ExCW=0 ScaHFX=  0.200000
 ScaDFX=  0.800000  0.720000  1.000000  0.810000 ScalE2=  1.000000  1.000000
 IRadAn=      5 IRanWt=     -1 IRanGd=            0 ICorTp=0 IEmpDi=  4
 NAtoms=    2 NActive=    2 NUniq=    2 SFac= 1.00D+00 NAtFMM=   60 NAOKFM=F Big=F
 Integral buffers will be    131072 words long.
 Regular integral format.
 Two-electron integral symmetry is turned on.
 Leave Link  301 at Mon Mar 21 20:04:14 2022, MaxMem=  8589934592 cpu:               0.5 elap:               0.1
 (Enter /home/sabyasachi/g16/l302.exe)
 NPDir=0 NMtPBC=     1 NCelOv=     1 NCel=       1 NClECP=     1 NCelD=      1
         NCelK=      1 NCelE2=     1 NClLst=     1 CellRange=     0.0.
 One-electron integrals computed using PRISM.
 One-electron integral symmetry used in STVInt
 NBasis=    31 RedAO= T EigKep=  3.31D-03  NBF=    15     2     7     7
 NBsUse=    31 1.00D-06 EigRej= -1.00D+00 NBFU=    15     2     7     7
 Precomputing XC quadrature grid using
 IXCGrd= 4 IRadAn=           5 IRanWt=          -1 IRanGd=           0 AccXCQ= 0.00D+00.
 Generated NRdTot=       0 NPtTot=           0 NUsed=           0 NTot=          32
 NSgBfM=    33    33    33    33    33 MxSgAt=     2 MxSgA2=     2.
 Leave Link  302 at Mon Mar 21 20:04:14 2022, MaxMem=  8589934592 cpu:               0.8 elap:               0.1
 (Enter /home/sabyasachi/g16/l303.exe)
 DipDrv:  MaxL=1.
 Leave Link  303 at Mon Mar 21 20:04:14 2022, MaxMem=  8589934592 cpu:               0.2 elap:               0.0
 (Enter /home/sabyasachi/g16/l308.exe)
 Leave Link  308 at Mon Mar 21 20:04:14 2022, MaxMem=  8589934592 cpu:               0.2 elap:               0.0
 (Enter /home/sabyasachi/g16/l401.exe)
 ExpMin= 8.34D-02 ExpMax= 2.89D+03 ExpMxC= 4.35D+02 IAcc=3 IRadAn=         5 AccDes= 0.00D+00
 Harris functional with IExCor=  402 and IRadAn=       5 diagonalized for initial guess.
 HarFok:  IExCor=  402 AccDes= 0.00D+00 IRadAn=         5 IDoV= 1 UseB2=F ITyADJ=14
 ICtDFT=  3500011 ScaDFX=  1.000000  1.000000  1.000000  1.000000
 FoFCou: FMM=F IPFlag=           0 FMFlag=      100000 FMFlg1=           0
         NFxFlg=           0 DoJE=T BraDBF=F KetDBF=T FulRan=T
         wScrn=  0.000000 ICntrl=       500 IOpCl=  0 I1Cent=   200000004 NGrid=           0
         NMat0=    1 NMatS0=      1 NMatT0=    0 NMatD0=    1 NMtDS0=    0 NMtDT0=    0
 Petite list used in FoFCou.
 Harris En= -100.380141236989    
 JPrj=0 DoOrth=F DoCkMO=F.
 Initial guess orbital symmetries:
       Occupied  (SG) (SG) (SG) (PI) (PI)
       Virtual   (SG) (SG) (PI) (PI) (SG) (PI) (PI) (SG) (DLTA)
                 (DLTA) (SG) (PI) (PI) (SG) (PI) (PI) (SG) (PI)
                 (PI) (SG) (SG) (DLTA) (DLTA) (PI) (PI) (SG)
 The electronic state of the initial guess is 1-SG.
 Leave Link  401 at Mon Mar 21 20:04:14 2022, MaxMem=  8589934592 cpu:               1.1 elap:               0.2
 (Enter /home/sabyasachi/g16/l502.exe)
 Keep R1 ints in memory in symmetry-blocked form, NReq=7036424.
 FoFCou: FMM=F IPFlag=           0 FMFlag=           0 FMFlg1=           0
         NFxFlg=           0 DoJE=F BraDBF=F KetDBF=F FulRan=T
         wScrn=  0.000000 ICntrl=       600 IOpCl=  0 I1Cent=           0 NGrid=           0
         NMat0=    1 NMatS0=    496 NMatT0=    0 NMatD0=    1 NMtDS0=    0 NMtDT0=    0
 Petite list used in FoFCou.
 Closed shell SCF:
 Using DIIS extrapolation, IDIIS=  1040.
 NGot=  8589934592 LenX=  8589895776 LenY=  8589894246
 Requested convergence on RMS density matrix=1.00D-08 within 100 cycles.
 Requested convergence on MAX density matrix=1.00D-06.
 Requested convergence on             energy=1.00D-06.
 No special actions if energy rises.
 Integral accuracy reduced to 1.0D-05 until final iterations.

 Cycle   1  Pass 0  IDiag  1:
 E= -100.355443541550    
 DIIS: error= 2.60D-02 at cycle   1 NSaved=   1.
 NSaved= 1 IEnMin= 1 EnMin= -100.355443541550     IErMin= 1 ErrMin= 2.60D-02
 ErrMax= 2.60D-02  0.00D+00 EMaxC= 1.00D-01 BMatC= 3.12D-02 BMatP= 3.12D-02
 IDIUse=3 WtCom= 7.40D-01 WtEn= 2.60D-01
 Coeff-Com:  0.100D+01
 Coeff-En:   0.100D+01
 Coeff:      0.100D+01
 Gap=     0.338 Goal=   None    Shift=    0.000
 GapD=    0.338 DampG=1.000 DampE=0.500 DampFc=0.5000 IDamp=-1.
 Damping current iteration by 5.00D-01
 RMSDP=7.96D-03 MaxDP=8.94D-02              OVMax= 1.12D-01

 Cycle   2  Pass 0  IDiag  1:
 E= -100.361154372396     Delta-E=       -0.005710830846 Rises=F Damp=T
 DIIS: error= 8.86D-03 at cycle   2 NSaved=   2.
 NSaved= 2 IEnMin= 2 EnMin= -100.361154372396     IErMin= 2 ErrMin= 8.86D-03
 ErrMax= 8.86D-03  0.00D+00 EMaxC= 1.00D-01 BMatC= 3.10D-03 BMatP= 3.12D-02
 IDIUse=3 WtCom= 9.11D-01 WtEn= 8.86D-02
 Coeff-Com:  0.228D+00 0.772D+00
 Coeff-En:   0.360D+00 0.640D+00
 Coeff:      0.239D+00 0.761D+00
 Gap=     0.423 Goal=   None    Shift=    0.000
 RMSDP=9.28D-04 MaxDP=1.04D-02 DE=-5.71D-03 OVMax= 6.21D-02

 Cycle   3  Pass 0  IDiag  1:
 E= -100.376729491457     Delta-E=       -0.015575119061 Rises=F Damp=F
 DIIS: error= 9.55D-04 at cycle   3 NSaved=   3.
 NSaved= 3 IEnMin= 3 EnMin= -100.376729491457     IErMin= 3 ErrMin= 9.55D-04
 ErrMax= 9.55D-04  0.00D+00 EMaxC= 1.00D-01 BMatC= 3.36D-05 BMatP= 3.10D-03
 IDIUse=3 WtCom= 9.90D-01 WtEn= 9.55D-03
 Coeff-Com:  0.458D-01 0.120D+00 0.834D+00
 Coeff-En:   0.000D+00 0.000D+00 0.100D+01
 Coeff:      0.454D-01 0.119D+00 0.836D+00
 Gap=     0.428 Goal=   None    Shift=    0.000
 RMSDP=1.68D-04 MaxDP=2.09D-03 DE=-1.56D-02 OVMax= 1.93D-03

 Cycle   4  Pass 0  IDiag  1:
 E= -100.376753574146     Delta-E=       -0.000024082689 Rises=F Damp=F
 DIIS: error= 1.49D-04 at cycle   4 NSaved=   4.
 NSaved= 4 IEnMin= 4 EnMin= -100.376753574146     IErMin= 4 ErrMin= 1.49D-04
 ErrMax= 1.49D-04  0.00D+00 EMaxC= 1.00D-01 BMatC= 1.13D-06 BMatP= 3.36D-05
 IDIUse=3 WtCom= 9.99D-01 WtEn= 1.49D-03
 Coeff-Com:  0.142D-02-0.313D-02 0.154D+00 0.847D+00
 Coeff-En:   0.000D+00 0.000D+00 0.000D+00 0.100D+01
 Coeff:      0.142D-02-0.312D-02 0.154D+00 0.848D+00
 Gap=     0.428 Goal=   None    Shift=    0.000
 RMSDP=1.69D-05 MaxDP=1.17D-04 DE=-2.41D-05 OVMax= 2.13D-04

 Cycle   5  Pass 0  IDiag  1:
 E= -100.376754195928     Delta-E=       -0.000000621782 Rises=F Damp=F
 DIIS: error= 1.04D-05 at cycle   5 NSaved=   5.
 NSaved= 5 IEnMin= 5 EnMin= -100.376754195928     IErMin= 5 ErrMin= 1.04D-05
 ErrMax= 1.04D-05  0.00D+00 EMaxC= 1.00D-01 BMatC= 3.63D-09 BMatP= 1.13D-06
 IDIUse=1 WtCom= 1.00D+00 WtEn= 0.00D+00
 Coeff-Com:  0.399D-04-0.104D-02 0.551D-02 0.185D-01 0.977D+00
 Coeff:      0.399D-04-0.104D-02 0.551D-02 0.185D-01 0.977D+00
 Gap=     0.428 Goal=   None    Shift=    0.000
 RMSDP=1.30D-06 MaxDP=1.50D-05 DE=-6.22D-07 OVMax= 1.78D-05

 Initial convergence to 1.0D-05 achieved.  Increase integral accuracy.
 Cycle   6  Pass 1  IDiag  1:
 E= -100.376754285296     Delta-E=       -0.000000089368 Rises=F Damp=F
 DIIS: error= 1.02D-06 at cycle   1 NSaved=   1.
 NSaved= 1 IEnMin= 1 EnMin= -100.376754285296     IErMin= 1 ErrMin= 1.02D-06
 ErrMax= 1.02D-06  0.00D+00 EMaxC= 1.00D-01 BMatC= 2.82D-11 BMatP= 2.82D-11
 IDIUse=1 WtCom= 1.00D+00 WtEn= 0.00D+00
 Coeff-Com:  0.100D+01
 Coeff:      0.100D+01
 Gap=     0.428 Goal=   None    Shift=    0.000
 RMSDP=1.30D-06 MaxDP=1.50D-05 DE=-8.94D-08 OVMax= 3.28D-06

 Cycle   7  Pass 1  IDiag  1:
 E= -100.376754285286     Delta-E=        0.000000000010 Rises=F Damp=F
 DIIS: error= 1.14D-06 at cycle   2 NSaved=   2.
 NSaved= 2 IEnMin= 1 EnMin= -100.376754285296     IErMin= 1 ErrMin= 1.02D-06
 ErrMax= 1.14D-06  0.00D+00 EMaxC= 1.00D-01 BMatC= 5.76D-11 BMatP= 2.82D-11
 IDIUse=1 WtCom= 1.00D+00 WtEn= 0.00D+00
 Coeff-Com:  0.594D+00 0.406D+00
 Coeff:      0.594D+00 0.406D+00
 Gap=     0.428 Goal=   None    Shift=    0.000
 RMSDP=1.30D-07 MaxDP=1.49D-06 DE= 1.03D-11 OVMax= 1.78D-06

 Cycle   8  Pass 1  IDiag  1:
 E= -100.376754285322     Delta-E=       -0.000000000036 Rises=F Damp=F
 DIIS: error= 4.45D-08 at cycle   3 NSaved=   3.
 NSaved= 3 IEnMin= 3 EnMin= -100.376754285322     IErMin= 3 ErrMin= 4.45D-08
 ErrMax= 4.45D-08  0.00D+00 EMaxC= 1.00D-01 BMatC= 7.57D-14 BMatP= 2.82D-11
 IDIUse=1 WtCom= 1.00D+00 WtEn= 0.00D+00
 Coeff-Com:  0.550D-02 0.220D-01 0.972D+00
 Coeff:      0.550D-02 0.220D-01 0.972D+00
 Gap=     0.428 Goal=   None    Shift=    0.000
 RMSDP=9.78D-09 MaxDP=8.47D-08 DE=-3.61D-11 OVMax= 1.51D-07

 SCF Done:  E(RB3LYP) =  -100.376754285     A.U. after    8 cycles
            NFock=  8  Conv=0.98D-08     -V/T= 2.0062
 KE= 9.976262366100D+01 PE=-2.500105047421D+02 EE= 4.468318839156D+01
 Leave Link  502 at Mon Mar 21 20:04:15 2022, MaxMem=  8589934592 cpu:               1.3 elap:               0.2
 (Enter /home/sabyasachi/g16/l801.exe)
 DoSCS=F DFT=T ScalE2(SS,OS)=  1.000000  1.000000
 ExpMin= 8.34D-02 ExpMax= 2.89D+03 ExpMxC= 4.35D+02 IAcc=3 IRadAn=         5 AccDes= 0.00D+00
 HarFok:  IExCor=  205 AccDes= 0.00D+00 IRadAn=         5 IDoV=-2 UseB2=F ITyADJ=14
 ICtDFT= 12500011 ScaDFX=  1.000000  1.000000  1.000000  1.000000
 Largest valence mixing into a core orbital is  2.57D-05
 Largest core mixing into a valence orbital is  7.77D-06
 Range of M.O.s used for correlation:     2    31
 NBasis=    31 NAE=     5 NBE=     5 NFC=     1 NFV=     0
 NROrb=     30 NOA=     4 NOB=     4 NVA=    26 NVB=    26
 Leave Link  801 at Mon Mar 21 20:04:15 2022, MaxMem=  8589934592 cpu:               0.3 elap:               0.1
 (Enter /home/sabyasachi/g16/l914.exe)
 RHF ground state
 Keep R1, R2, and R3 ints in memory in symmetry-blocked form, NReq=24002068.
 FoFCou: FMM=F IPFlag=           0 FMFlag=           0 FMFlg1=           0
         NFxFlg=           0 DoJE=F BraDBF=F KetDBF=F FulRan=T
         wScrn=  0.000000 ICntrl=       600 IOpCl=  0 I1Cent=           0 NGrid=           0
         NMat0=    1 NMatS0=    496 NMatT0=    0 NMatD0=    1 NMtDS0=    0 NMtDT0=    0
 Petite list used in FoFCou.
 MDV=  8589934592 DFT=T DoStab=F Mixed=T DoRPA=T DoScal=F NonHer=T
 Making orbital integer symmetry assigments:
 Orbital symmetries:
       Occupied  (SG) (SG) (SG) (PI) (PI)
       Virtual   (SG) (SG) (PI) (PI) (SG) (PI) (PI) (SG) (DLTA)
                 (DLTA) (SG) (PI) (PI) (SG) (PI) (PI) (SG) (PI)
                 (PI) (SG) (SG) (DLTA) (DLTA) (PI) (PI) (SG)
   104 initial guesses have been made.
 Convergence on wavefunction:    0.001000000000000
 Davidson Disk Diagonalization:  ConvIn= 1.00D-03 SkipCon=T Conv= 1.00D-03.
 Max sub-space:   624 roots to seek:   208 dimension of matrix:          208
 *** WARNING: Number of orthogonal guesses is          104
 Iteration     1 Dimension   104 NMult     0 NNew    104
 CISAX will form   104 AO SS matrices at one time.
 NMat=   104 NSing=   104 JSym2X=-1.
 New state      4 was old state      6
 New state      5 was old state      9
 New state      6 was old state      7
 New state      7 was old state      4
 New state      8 was old state      5
 New state      9 was old state      8
 New state     10 was old state     11
 New state     11 was old state     10
 New state     13 was old state     14
 New state     14 was old state     13
 New state     16 was old state     18
 New state     18 was old state     16
 New state     21 was old state     22
 New state     22 was old state     23
 New state     23 was old state     21
 New state     25 was old state     26
 New state     26 was old state     25
 New state     27 was old state     28
 New state     28 was old state     27
 New state     29 was old state     30
 New state     30 was old state     29
 New state     45 was old state     47
 New state     46 was old state     48
 New state     47 was old state     45
 New state     48 was old state     46
 New state     51 was old state     54
 New state     52 was old state     55
 New state     53 was old state     56
 New state     54 was old state     51
 New state     55 was old state     52
 New state     56 was old state     57
 New state     57 was old state     58
 New state     58 was old state     59
 New state     59 was old state     63
 New state     60 was old state     62
 New state     61 was old state     60
 New state     62 was old state     61
 New state     63 was old state     64
 New state     64 was old state     65
 New state     65 was old state     69
 New state     66 was old state     67
 New state     67 was old state     68
 New state     68 was old state     66
 New state     69 was old state     74
 New state     74 was old state     75
 New state     75 was old state     76
 New state     76 was old state     77
 New state     77 was old state     79
 New state     79 was old state     80
 New state     80 was old state     83
 No map to state     83
 New state     87 was old state     89
 New state     88 was old state     90
 New state     89 was old state     87
 New state     90 was old state     88
 New state     93 was old state     94
 New state     94 was old state     93
 New state     95 was old state     96
 New state     96 was old state     95
 Excitation Energies [eV] at current iteration:
 Root      1 :    10.009472694500650
 Root      2 :    10.009472694500810
 Root      3 :    13.899580901119500
 Root      4 :    13.997703012915430
 Root      5 :    14.016226112679380
 Root      6 :    14.016226130230570
 Root      7 :    14.093964406472050
 Root      8 :    14.093964406472060
 Root      9 :    15.678880900900800
 Root     10 :    15.945661742299460
 Root     11 :    15.945661742299530
 Root     12 :    16.758678199106650
 Root     13 :    16.758678214866530
 Root     14 :    16.870252641196260
 Root     15 :    16.985484231985430
 Root     16 :    17.730902045714460
 Root     17 :    17.730902045714500
 Root     18 :    18.321062211501000
 Root     19 :    19.199760311026410
 Root     20 :    19.199760311026550
 Root     21 :    20.514297538830260
 Root     22 :    20.514297538830270
 Root     23 :    20.590566201864270
 Root     24 :    23.627120321042590
 Root     25 :    24.561173167472460
 Root     26 :    24.561173167472460
 Root     27 :    25.660382944203930
 Root     28 :    25.660382944203930
 Root     29 :    27.264588253833260
 Root     30 :    27.264588253833320
 Root     31 :    28.416073749245640
 Root     32 :    28.416073782966800
 Root     33 :    29.187427878051560
 Root     34 :    29.187427899844920
 Root     35 :    29.306330521673140
 Root     36 :    29.801161687219870
 Root     37 :    31.400570423007690
 Root     38 :    32.412676823847870
 Root     39 :    33.462807281111300
 Root     40 :    33.462807281111440
 Root     41 :    35.164552184749670
 Root     42 :    35.236413575059880
 Root     43 :    35.236413575059930
 Root     44 :    36.990793917207170
 Root     45 :    37.347630136722930
 Root     46 :    37.347630136723050
 Root     47 :    37.704422809752130
 Root     48 :    37.704422809752150
 Root     49 :    40.447296565261550
 Root     50 :    41.683803585329250
 Root     51 :    44.473321892221170
 Root     52 :    44.591531601544490
 Root     53 :    44.591531770110760
 Root     54 :    45.767725489683330
 Root     55 :    45.767725520810930
 Root     56 :    48.135046353159090
 Root     57 :    48.433013655234930
 Root     58 :    48.433013655235000
 Root     59 :    50.183271720306770
 Root     60 :    50.183271720306800
 Root     61 :    50.434183837927260
 Root     62 :    50.434183837927430
 Root     63 :    51.096013868884300
 Root     64 :    57.829544944474310
 Root     65 :    58.870673683148820
 Root     66 :    58.870673791477590
 Root     67 :    59.060209416260260
 Root     68 :    59.230098334313340
 Root     69 :    60.336404101150830
 Root     70 :    61.818423805784260
 Root     71 :    61.818423805784290
 Root     72 :    63.091537040487050
 Root     73 :    63.091537040487220
 Root     74 :    66.191693118546850
 Root     75 :    66.191693118547020
 Root     76 :    66.515062013546720
 Root     77 :    72.925317156260800
 Root     78 :    72.925317156261070
 Root     79 :    73.200525303870320
 Root     80 :    77.923831965534590
 Root     81 :    79.868813618477400
 Root     82 :    79.868813618477500
 Root     83 :    85.109109706972080
 Root     84 :    94.499876415218780
 Root     85 :    97.213950573047070
 Root     86 :    97.213950573047190
 Root     87 :   101.299434218652600
 Root     88 :   101.299434223160700
 Root     89 :   101.727385968477800
 Root     90 :   101.727385968477900
 Root     91 :   102.127589533799500
 Root     92 :   102.127589574205100
 Root     93 :   102.275117127179600
 Root     94 :   108.078183118714800
 Root     95 :   110.529697093100400
 Root     96 :   110.529697093100500
 Root     97 :   119.884198503624000
 Root     98 :   119.884198537247200
 Root     99 :   124.659155029077000
 Root    100 :   124.659155029077600
 Root    101 :   128.272629568706500
 Root    102 :   128.272629568706900
 Root    103 :   133.478145417128200
 Root    104 :   149.027607936948700
 Convergence achieved for final wavefunctions.
 ***********************************************************************
 Excited states from <AA,BB:AA,BB> singles matrix:
 ***********************************************************************
 
 1PDM for each excited state written to RWF  633
 Ground to excited state transition densities written to RWF  633
 Ground to excited state transition electric dipole moments (Au):
       state          X           Y           Z        Dip. S.      Osc.
         1         0.2543      0.2504     -0.0000      0.1273      0.0312
         2        -0.2504      0.2543      0.0000      0.1273      0.0312
         3        -0.0000      0.0000      0.6309      0.3980      0.1355
         4        -0.0000      0.0000      0.0000      0.0000      0.0000
         5         0.0000     -0.0000      0.0000      0.0000      0.0000
         6         0.0000      0.0000      0.0000      0.0000      0.0000
         7         0.2260      0.1542      0.0000      0.0749      0.0259
         8        -0.1542      0.2260      0.0000      0.0749      0.0259
         9         0.0000      0.0000     -0.2087      0.0436      0.0167
        10         0.2811     -0.3195     -0.0000      0.1811      0.0708
        11        -0.3195     -0.2811      0.0000      0.1811      0.0708
        12        -0.0000     -0.0000     -0.0000      0.0000      0.0000
        13        -0.0000      0.0000     -0.0000      0.0000      0.0000
        14        -0.0000      0.0000      0.0000      0.0000      0.0000
        15        -0.0000     -0.0000     -0.6928      0.4800      0.1998
        16        -0.0136      0.0085      0.0000      0.0003      0.0001
        17        -0.0085     -0.0136     -0.0000      0.0003      0.0001
        18         0.0000      0.0000      0.2740      0.0751      0.0337
        19         0.1681     -0.0409     -0.0000      0.0299      0.0141
        20         0.0409      0.1681      0.0000      0.0299      0.0141
        21        -0.3835      0.0627     -0.0000      0.1510      0.0759
        22        -0.0627     -0.3835      0.0000      0.1510      0.0759
        23        -0.0000     -0.0000      0.4814      0.2317      0.1169
        24         0.0000      0.0000      0.3571      0.1275      0.0738
        25         0.0000      0.0000      0.0000      0.0000      0.0000
        26        -0.0000      0.0000     -0.0000      0.0000      0.0000
        27        -0.2239      0.7880      0.0000      0.6710      0.4219
        28         0.7880      0.2239     -0.0000      0.6710      0.4219
        29         0.3323      0.3968     -0.0000      0.2679      0.1789
        30         0.3968     -0.3323     -0.0000      0.2679      0.1789
        31        -0.0000     -0.0000     -0.0000      0.0000      0.0000
        32        -0.0000      0.0000      0.0000      0.0000      0.0000
        33         0.0000      0.0000      0.0000      0.0000      0.0000
        34        -0.0000     -0.0000      0.0000      0.0000      0.0000
        35        -0.0000     -0.0000      0.0000      0.0000      0.0000
        36         0.0000      0.0000      0.4216      0.1777      0.1297
        37         0.0000     -0.0000      0.4442      0.1973      0.1518
        38        -0.0000     -0.0000     -0.7858      0.6175      0.4903
        39         0.6057     -0.0339      0.0000      0.3680      0.3017
        40         0.0339      0.6057      0.0000      0.3680      0.3017
        41        -0.0000     -0.0000      0.0706      0.0050      0.0043
        42         0.0012      0.0323      0.0000      0.0010      0.0009
        43         0.0323     -0.0012      0.0000      0.0010      0.0009
        44         0.0000     -0.0000      0.1044      0.0109      0.0099
        45        -0.0617      0.0029     -0.0000      0.0038      0.0035
        46        -0.0029     -0.0617     -0.0000      0.0038      0.0035
        47        -0.0623     -0.0226     -0.0000      0.0044      0.0041
        48         0.0226     -0.0623     -0.0000      0.0044      0.0041
        49         0.0000      0.0000      0.1306      0.0171      0.0169
        50        -0.0000      0.0000     -0.0461      0.0021      0.0022
        51         0.0000      0.0000      0.0000      0.0000      0.0000
        52         0.0000     -0.0000     -0.0000      0.0000      0.0000
        53        -0.0000      0.0000     -0.0000      0.0000      0.0000
        54         0.0000     -0.0000     -0.0000      0.0000      0.0000
        55         0.0000     -0.0000     -0.0000      0.0000      0.0000
        56        -0.0000      0.0000     -0.0059      0.0000      0.0000
        57         0.0019      0.0014      0.0000      0.0000      0.0000
        58        -0.0014      0.0019     -0.0000      0.0000      0.0000
        59         0.1134      0.1283      0.0000      0.0293      0.0361
        60         0.1283     -0.1134      0.0000      0.0293      0.0361
        61         0.0888     -0.0674      0.0000      0.0124      0.0153
        62         0.0674      0.0888     -0.0000      0.0124      0.0153
        63        -0.0000     -0.0000      0.2575      0.0663      0.0830
        64        -0.0000      0.0000     -0.0894      0.0080      0.0113
        65        -0.0000      0.0000      0.0000      0.0000      0.0000
        66         0.0000      0.0000     -0.0000      0.0000      0.0000
        67         0.0000      0.0000     -0.0000      0.0000      0.0000
        68         0.0000     -0.0000     -0.2716      0.0738      0.1070
        69        -0.0000      0.0000     -0.1571      0.0247      0.0365
        70        -0.0467     -0.0336      0.0000      0.0033      0.0050
        71         0.0336     -0.0467     -0.0000      0.0033      0.0050
        72        -0.3152     -0.0678     -0.0000      0.1040      0.1607
        73         0.0678     -0.3152      0.0000      0.1040      0.1607
        74        -0.3438      0.0718     -0.0000      0.1233      0.2000
        75        -0.0718     -0.3438     -0.0000      0.1233      0.2000
        76        -0.0000      0.0000      0.1060      0.0112      0.0183
        77         0.0434     -0.0940      0.0000      0.0107      0.0192
        78        -0.0940     -0.0434     -0.0000      0.0107      0.0192
        79         0.0000     -0.0000     -0.2088      0.0436      0.0782
        80        -0.0000     -0.0000      0.1011      0.0102      0.0195
        81        -0.0267     -0.0046     -0.0000      0.0007      0.0014
        82         0.0046     -0.0267     -0.0000      0.0007      0.0014
        83         0.0000      0.0000     -0.1362      0.0185      0.0387
        84        -0.0000     -0.0000      0.0899      0.0081      0.0187
        85         0.0000     -0.0000     -0.0000      0.0000      0.0000
        86        -0.0000     -0.0000     -0.0000      0.0000      0.0000
        87        -0.0000     -0.0000     -0.0000      0.0000      0.0000
        88         0.0000     -0.0000     -0.0000      0.0000      0.0000
        89         0.1742     -0.2803      0.0000      0.1089      0.2715
        90         0.2803      0.1742      0.0000      0.1089      0.2715
        91        -0.0000      0.0000      0.0000      0.0000      0.0000
        92        -0.0000      0.0000      0.0000      0.0000      0.0000
        93         0.0000     -0.0000     -0.0000      0.0000      0.0000
        94        -0.0000     -0.0000      0.4585      0.2102      0.5566
        95         0.3901     -0.2975     -0.0000      0.2407      0.6518
        96         0.2975      0.3901     -0.0000      0.2407      0.6518
        97        -0.0000     -0.0000      0.0000      0.0000      0.0000
        98        -0.0000     -0.0000      0.0000      0.0000      0.0000
        99         0.0065      0.0533      0.0000      0.0029      0.0088
       100         0.0533     -0.0065     -0.0000      0.0029      0.0088
       101        -0.1885      0.0150     -0.0000      0.0358      0.1124
       102        -0.0150     -0.1885     -0.0000      0.0358      0.1124
       103         0.0000     -0.0000      0.2649      0.0702      0.2296
       104         0.0000     -0.0000     -0.0073      0.0001      0.0002
 Ground to excited state transition velocity dipole moments (Au):
       state          X           Y           Z        Dip. S.      Osc.
         1        -0.0933     -0.0919      0.0000      0.0171      0.0311
         2         0.0919     -0.0933     -0.0000      0.0171      0.0311
         3         0.0000     -0.0000     -0.3271      0.1070      0.1396
         4         0.0000     -0.0000     -0.0000      0.0000      0.0000
         5        -0.0000      0.0000      0.0000      0.0000      0.0000
         6        -0.0000     -0.0000     -0.0000      0.0000      0.0000
         7        -0.1230     -0.0839      0.0000      0.0222      0.0286
         8         0.0839     -0.1230     -0.0000      0.0222      0.0286
         9        -0.0000      0.0000      0.1211      0.0147      0.0170
        10        -0.1563      0.1776      0.0000      0.0560      0.0637
        11         0.1776      0.1563      0.0000      0.0560      0.0637
        12         0.0000     -0.0000      0.0000      0.0000      0.0000
        13         0.0000     -0.0000      0.0000      0.0000      0.0000
        14        -0.0000     -0.0000     -0.0000      0.0000      0.0000
        15        -0.0000      0.0000      0.4084      0.1668      0.1781
        16         0.0158     -0.0100     -0.0000      0.0003      0.0004
        17         0.0100      0.0158      0.0000      0.0003      0.0004
        18         0.0000     -0.0000     -0.1785      0.0318      0.0315
        19        -0.1306      0.0317      0.0000      0.0181      0.0171
        20        -0.0317     -0.1306     -0.0000      0.0181      0.0171
        21         0.2942     -0.0481      0.0000      0.0889      0.0786
        22         0.0481      0.2942     -0.0000      0.0889      0.0786
        23        -0.0000      0.0000     -0.3407      0.1160      0.1022
        24        -0.0000     -0.0000     -0.3257      0.1060      0.0814
        25        -0.0000     -0.0000     -0.0000      0.0000      0.0000
        26         0.0000     -0.0000      0.0000      0.0000      0.0000
        27         0.2105     -0.7409     -0.0000      0.5932      0.4194
        28        -0.7409     -0.2105      0.0000      0.5932      0.4194
        29        -0.3395     -0.4054      0.0000      0.2796      0.1860
        30        -0.4054      0.3395      0.0000      0.2796      0.1860
        31         0.0000      0.0000      0.0000      0.0000      0.0000
        32         0.0000     -0.0000     -0.0000      0.0000      0.0000
        33         0.0000     -0.0000     -0.0000      0.0000      0.0000
        34         0.0000     -0.0000     -0.0000      0.0000      0.0000
        35         0.0000      0.0000     -0.0000      0.0000      0.0000
        36         0.0000     -0.0000     -0.5127      0.2629      0.1600
        37         0.0000      0.0000     -0.5085      0.2585      0.1494
        38        -0.0000      0.0000      0.9598      0.9212      0.5156
        39        -0.7663      0.0429     -0.0000      0.5890      0.3193
        40        -0.0429     -0.7663     -0.0000      0.5890      0.3193
        41        -0.0000      0.0000     -0.0938      0.0088      0.0045
        42        -0.0027     -0.0708     -0.0000      0.0050      0.0026
        43        -0.0708      0.0027     -0.0000      0.0050      0.0026
        44         0.0000      0.0000     -0.1076      0.0116      0.0057
        45         0.0759     -0.0035      0.0000      0.0058      0.0028
        46         0.0035      0.0759      0.0000      0.0058      0.0028
        47         0.0981      0.0356      0.0000      0.0109      0.0052
        48        -0.0356      0.0981      0.0000      0.0109      0.0052
        49         0.0000     -0.0000     -0.1891      0.0358      0.0160
        50         0.0000     -0.0000      0.0572      0.0033      0.0014
        51        -0.0000     -0.0000      0.0000      0.0000      0.0000
        52        -0.0000      0.0000     -0.0000      0.0000      0.0000
        53        -0.0000     -0.0000      0.0000      0.0000      0.0000
        54        -0.0000      0.0000     -0.0000      0.0000      0.0000
        55        -0.0000      0.0000      0.0000      0.0000      0.0000
        56         0.0000      0.0000     -0.0089      0.0001      0.0000
        57        -0.0253     -0.0184     -0.0000      0.0010      0.0004
        58         0.0184     -0.0253      0.0000      0.0010      0.0004
        59        -0.2384     -0.2696     -0.0000      0.1295      0.0468
        60        -0.2696      0.2384     -0.0000      0.1295      0.0468
        61        -0.1845      0.1400     -0.0000      0.0536      0.0193
        62        -0.1400     -0.1845     -0.0000      0.0536      0.0193
        63         0.0000      0.0000     -0.5072      0.2573      0.0913
        64         0.0000     -0.0000      0.2509      0.0629      0.0197
        65         0.0000     -0.0000     -0.0000      0.0000      0.0000
        66        -0.0000     -0.0000      0.0000      0.0000      0.0000
        67        -0.0000     -0.0000     -0.0000      0.0000      0.0000
        68        -0.0000      0.0000      0.5459      0.2980      0.0913
        69         0.0000     -0.0000      0.2827      0.0799      0.0240
        70         0.1314      0.0946     -0.0000      0.0262      0.0077
        71        -0.0946      0.1314      0.0000      0.0262      0.0077
        72         0.6655      0.1432      0.0000      0.4634      0.1332
        73        -0.1432      0.6655      0.0000      0.4634      0.1332
        74         0.8927     -0.1866      0.0000      0.8317      0.2279
        75         0.1866      0.8927     -0.0000      0.8317      0.2279
        76         0.0000     -0.0000     -0.2564      0.0657      0.0179
        77        -0.0874      0.1893     -0.0000      0.0435      0.0108
        78         0.1893      0.0874      0.0000      0.0435      0.0108
        79        -0.0000      0.0000      0.5883      0.3461      0.0858
        80         0.0000     -0.0000     -0.2702      0.0730      0.0170
        81         0.0134      0.0023      0.0000      0.0002      0.0000
        82        -0.0023      0.0134      0.0000      0.0002      0.0000
        83        -0.0000     -0.0000      0.4185      0.1751      0.0373
        84         0.0000     -0.0000     -0.3595      0.1293      0.0248
        85        -0.0000      0.0000      0.0000      0.0000      0.0000
        86         0.0000      0.0000     -0.0000      0.0000      0.0000
        87         0.0000      0.0000      0.0000      0.0000      0.0000
        88        -0.0000      0.0000      0.0000      0.0000      0.0000
        89        -0.5728      0.9214      0.0000      1.1771      0.2099
        90        -0.9214     -0.5728     -0.0000      1.1771      0.2099
        91         0.0000     -0.0000     -0.0000      0.0000      0.0000
        92         0.0000     -0.0000     -0.0000      0.0000      0.0000
        93        -0.0000      0.0000     -0.0000      0.0000      0.0000
        94         0.0000     -0.0000     -1.6449      2.7058      0.4542
        95        -1.4045      1.0711      0.0000      3.1197      0.5120
        96        -1.0711     -1.4045      0.0000      3.1197      0.5120
        97         0.0000      0.0000     -0.0000      0.0000      0.0000
        98         0.0000      0.0000     -0.0000      0.0000      0.0000
        99        -0.0267     -0.2174     -0.0000      0.0480      0.0070
       100        -0.2174      0.0267      0.0000      0.0480      0.0070
       101         0.8310     -0.0659      0.0000      0.6948      0.0983
       102         0.0659      0.8310      0.0000      0.6948      0.0983
       103        -0.0000      0.0000     -1.2077      1.4586      0.1982
       104        -0.0000      0.0000      0.0055      0.0000      0.0000
 Ground to excited state transition magnetic dipole moments (Au):
       state          X           Y           Z
         1        -0.0843      0.0856      0.0000
         2        -0.0856     -0.0843     -0.0000
         3         0.0000      0.0000     -0.0000
         4        -0.0000     -0.0000      0.0000
         5         0.0000     -0.0000      0.0000
         6         0.0000      0.0000      0.0000
         7        -0.0095      0.0139     -0.0000
         8        -0.0139     -0.0095     -0.0000
         9        -0.0000     -0.0000      0.0000
        10        -0.1164     -0.1024     -0.0000
        11        -0.1024      0.1164      0.0000
        12         0.0000      0.0000      0.0000
        13        -0.0000      0.0000     -0.0000
        14        -0.0000     -0.0000      0.0000
        15         0.0000     -0.0000      0.0000
        16        -0.0327     -0.0518      0.0000
        17         0.0518     -0.0327      0.0000
        18        -0.0000      0.0000      0.0000
        19         0.0196      0.0808      0.0000
        20        -0.0808      0.0196     -0.0000
        21        -0.0295     -0.1807     -0.0000
        22         0.1807     -0.0295      0.0000
        23        -0.0000     -0.0000      0.0000
        24         0.0000      0.0000      0.0000
        25         0.0000     -0.0000      0.0000
        26         0.0000      0.0000     -0.0000
        27         0.0345      0.0098      0.0000
        28         0.0098     -0.0345     -0.0000
        29         0.1283     -0.1074      0.0000
        30        -0.1074     -0.1283     -0.0000
        31        -0.0000      0.0000      0.0000
        32         0.0000      0.0000     -0.0000
        33        -0.0000     -0.0000      0.0000
        34        -0.0000      0.0000     -0.0000
        35        -0.0000      0.0000     -0.0000
        36         0.0000      0.0000     -0.0000
        37        -0.0000     -0.0000     -0.0000
        38         0.0000     -0.0000      0.0000
        39         0.0045      0.0807     -0.0000
        40        -0.0807      0.0045      0.0000
        41        -0.0000     -0.0000      0.0000
        42        -0.0152      0.0006     -0.0000
        43         0.0006      0.0152      0.0000
        44        -0.0000      0.0000      0.0000
        45        -0.0034     -0.0725      0.0000
        46         0.0725     -0.0034     -0.0000
        47         0.0274     -0.0754      0.0000
        48         0.0754      0.0274      0.0000
        49         0.0000     -0.0000      0.0000
        50         0.0000      0.0000     -0.0000
        51        -0.0000     -0.0000      0.0000
        52        -0.0000      0.0000      0.0000
        53         0.0000      0.0000      0.0000
        54        -0.0000     -0.0000      0.0000
        55        -0.0000     -0.0000      0.0000
        56         0.0000     -0.0000      0.0000
        57         0.1033     -0.1419      0.0000
        58         0.1419      0.1033     -0.0000
        59         0.0651     -0.0576     -0.0000
        60        -0.0576     -0.0651      0.0000
        61         0.0343      0.0452      0.0000
        62        -0.0452      0.0343      0.0000
        63         0.0000      0.0000      0.0000
        64         0.0000     -0.0000      0.0000
        65         0.0000     -0.0000     -0.0000
        66         0.0000      0.0000     -0.0000
        67        -0.0000     -0.0000      0.0000
        68        -0.0000      0.0000      0.0000
        69         0.0000     -0.0000      0.0000
        70        -0.1127      0.1566      0.0000
        71        -0.1566     -0.1127     -0.0000
        72         0.0551     -0.2559     -0.0000
        73         0.2559      0.0551      0.0000
        74         0.0138      0.0659      0.0000
        75        -0.0659      0.0138      0.0000
        76         0.0000      0.0000     -0.0000
        77        -0.0974     -0.0450      0.0000
        78        -0.0450      0.0974      0.0000
        79         0.0000     -0.0000     -0.0000
        80         0.0000     -0.0000     -0.0000
        81         0.0354     -0.2039     -0.0000
        82         0.2039      0.0354      0.0000
        83         0.0000      0.0000      0.0000
        84         0.0000      0.0000      0.0000
        85        -0.0000     -0.0000     -0.0000
        86        -0.0000      0.0000     -0.0000
        87        -0.0000      0.0000     -0.0000
        88        -0.0000     -0.0000     -0.0000
        89        -0.1188     -0.0739      0.0000
        90         0.0739     -0.1188      0.0000
        91        -0.0000      0.0000      0.0000
        92         0.0000      0.0000     -0.0000
        93        -0.0000     -0.0000      0.0000
        94         0.0000      0.0000     -0.0000
        95        -0.1732     -0.2271     -0.0000
        96         0.2271     -0.1732     -0.0000
        97        -0.0000      0.0000     -0.0000
        98        -0.0000      0.0000     -0.0000
        99         0.0138     -0.0017     -0.0000
       100        -0.0017     -0.0138      0.0000
       101         0.0080      0.1011      0.0000
       102        -0.1011      0.0080      0.0000
       103        -0.0000     -0.0000      0.0000
       104        -0.0000     -0.0000     -0.0000
 Ground to excited state transition velocity quadrupole moments (Au):
       state          XX          YY          ZZ          XY          XZ          YZ
         1         0.0000      0.0000      0.0000      0.0000      0.0579      0.0570
         2         0.0000     -0.0000     -0.0000     -0.0000     -0.0570      0.0579
         3        -0.2831     -0.2831      0.4863     -0.0000      0.0000      0.0000
         4         0.0000     -0.0000      0.0000     -0.0000      0.0000     -0.0000
         5         0.0000     -0.0000      0.0000     -0.4616     -0.0000      0.0000
         6        -0.4616      0.4616      0.0000     -0.0000     -0.0000     -0.0000
         7         0.0000     -0.0000      0.0000      0.0000     -0.2460     -0.1679
         8        -0.0000      0.0000      0.0000     -0.0000      0.1679     -0.2460
         9        -0.7026     -0.7026     -0.2287      0.0000      0.0000      0.0000
        10        -0.0000      0.0000     -0.0000     -0.0000      0.0117     -0.0133
        11        -0.0000     -0.0000     -0.0000      0.0000     -0.0133     -0.0117
        12         0.0379     -0.0379     -0.0000     -0.0000      0.0000      0.0000
        13         0.0000     -0.0000     -0.0000      0.0379     -0.0000      0.0000
        14         0.0000     -0.0000      0.0000      0.0000     -0.0000      0.0000
        15         0.0039      0.0039     -0.2245      0.0000      0.0000     -0.0000
        16        -0.0000      0.0000      0.0000     -0.0000     -0.3184      0.2005
        17        -0.0000     -0.0000     -0.0000     -0.0000     -0.2005     -0.3184
        18        -0.4798     -0.4798     -0.7455     -0.0000      0.0000     -0.0000
        19         0.0000     -0.0000      0.0000      0.0000      0.1365     -0.0332
        20        -0.0000      0.0000      0.0000      0.0000      0.0332      0.1365
        21         0.0000     -0.0000     -0.0000      0.0000     -0.3172      0.0518
        22        -0.0000      0.0000      0.0000      0.0000     -0.0518     -0.3172
        23         0.2268      0.2268      0.8222      0.0000      0.0000      0.0000
        24         0.2779      0.2779      0.4015     -0.0000      0.0000      0.0000
        25         0.0000     -0.0000      0.0000      0.0000     -0.0000     -0.0000
        26         0.0000     -0.0000     -0.0000     -0.0000      0.0000     -0.0000
        27         0.0000     -0.0000      0.0000     -0.0000      0.0312     -0.1097
        28        -0.0000     -0.0000      0.0000     -0.0000     -0.1097     -0.0312
        29        -0.0000     -0.0000     -0.0000     -0.0000      0.0800      0.0955
        30        -0.0000      0.0000     -0.0000      0.0000      0.0955     -0.0800
        31        -0.0000      0.0000     -0.0000     -0.1865     -0.0000      0.0000
        32        -0.1865      0.1865      0.0000      0.0000      0.0000     -0.0000
        33         0.0197     -0.0197      0.0000     -0.0000      0.0000      0.0000
        34         0.0000     -0.0000     -0.0000      0.0197      0.0000     -0.0000
        35         0.0000     -0.0000      0.0000     -0.0000      0.0000      0.0000
        36         0.0933      0.0933     -0.0850     -0.0000     -0.0000     -0.0000
        37         0.2970      0.2970      0.5085     -0.0000     -0.0000      0.0000
        38         0.1330      0.1330      1.2144     -0.0000     -0.0000      0.0000
        39         0.0000     -0.0000     -0.0000     -0.0000     -0.4683      0.0262
        40        -0.0000      0.0000     -0.0000     -0.0000     -0.0262     -0.4683
        41         0.2370      0.2370      0.1850     -0.0000      0.0000      0.0000
        42        -0.0000      0.0000      0.0000      0.0000     -0.0089     -0.2359
        43         0.0000      0.0000      0.0000      0.0000     -0.2359      0.0089
        44        -0.4298     -0.4298      0.6939      0.0000      0.0000     -0.0000
        45         0.0000     -0.0000     -0.0000      0.0000      0.3431     -0.0160
        46        -0.0000      0.0000     -0.0000      0.0000      0.0160      0.3431
        47         0.0000     -0.0000     -0.0000      0.0000     -0.4759     -0.1727
        48         0.0000     -0.0000     -0.0000     -0.0000      0.1727     -0.4759
        49         0.3421      0.3421      0.2860     -0.0000      0.0000     -0.0000
        50         0.4734      0.4734     -1.1687     -0.0000      0.0000      0.0000
        51        -0.0000      0.0000     -0.0000     -0.0000      0.0000      0.0000
        52         0.0000     -0.0000     -0.0000     -0.5748      0.0000      0.0000
        53        -0.5748      0.5748     -0.0000     -0.0000      0.0000      0.0000
        54        -0.0000      0.0000      0.0000      0.8655     -0.0000     -0.0000
        55         0.8655     -0.8655     -0.0000      0.0000     -0.0000     -0.0000
        56         0.5779      0.5779     -0.7294      0.0000     -0.0000     -0.0000
        57        -0.0000      0.0000      0.0000     -0.0000     -0.3535     -0.2574
        58         0.0000     -0.0000      0.0000      0.0000      0.2574     -0.3535
        59        -0.0000      0.0000     -0.0000     -0.0000     -0.4763     -0.5385
        60        -0.0000      0.0000     -0.0000     -0.0000     -0.5385      0.4763
        61        -0.0000      0.0000     -0.0000     -0.0000      0.5279     -0.4005
        62         0.0000     -0.0000      0.0000      0.0000      0.4005      0.5279
        63         0.2488      0.2488      0.7961     -0.0000      0.0000     -0.0000
        64         0.3837      0.3837      1.2216     -0.0000     -0.0000      0.0000
        65         0.4001     -0.4001      0.0000      0.0000     -0.0000     -0.0000
        66        -0.0000      0.0000     -0.0000      0.4001      0.0000     -0.0000
        67        -0.0000      0.0000     -0.0000     -0.0000     -0.0000      0.0000
        68         0.0583      0.0583     -1.2380     -0.0000      0.0000     -0.0000
        69         1.0584      1.0584      0.0459     -0.0000     -0.0000      0.0000
        70         0.0000      0.0000      0.0000      0.0000      0.0255      0.0184
        71         0.0000      0.0000      0.0000      0.0000     -0.0184      0.0255
        72        -0.0000      0.0000     -0.0000      0.0000     -1.0556     -0.2271
        73         0.0000      0.0000      0.0000     -0.0000      0.2271     -1.0556
        74         0.0000      0.0000     -0.0000     -0.0000     -0.0888      0.0186
        75         0.0000     -0.0000     -0.0000      0.0000     -0.0186     -0.0888
        76        -0.6281     -0.6281      0.4109      0.0000     -0.0000     -0.0000
        77        -0.0000     -0.0000     -0.0000     -0.0000     -0.0252      0.0545
        78         0.0000      0.0000      0.0000      0.0000      0.0545      0.0252
        79         0.9075      0.9075      1.1997      0.0000      0.0000     -0.0000
        80         0.2288      0.2288     -0.4788     -0.0000     -0.0000     -0.0000
        81        -0.0000     -0.0000      0.0000      0.0000     -0.6418     -0.1115
        82        -0.0000     -0.0000      0.0000     -0.0000      0.1115     -0.6418
        83        -1.1937     -1.1937     -0.0905     -0.0000      0.0000     -0.0000
        84        -0.1046     -0.1046      0.3809     -0.0000      0.0000      0.0000
        85         0.0000     -0.0000      0.0000     -0.0000     -0.0000      0.0000
        86        -0.0000      0.0000     -0.0000     -0.0000      0.0000      0.0000
        87        -0.1941      0.1941     -0.0000     -0.0000     -0.0000     -0.0000
        88         0.0000     -0.0000      0.0000     -0.1941      0.0000     -0.0000
        89        -0.0000      0.0000     -0.0000      0.0000      0.0688     -0.1107
        90        -0.0000      0.0000     -0.0000      0.0000      0.1107      0.0688
        91        -0.0000      0.0000     -0.0000      0.0966     -0.0000      0.0000
        92        -0.0966      0.0966     -0.0000     -0.0000     -0.0000      0.0000
        93         0.0000     -0.0000     -0.0000     -0.0000      0.0000     -0.0000
        94         0.0932      0.0932     -0.8889     -0.0000      0.0000     -0.0000
        95        -0.0000      0.0000     -0.0000     -0.0000     -0.6059      0.4620
        96         0.0000     -0.0000      0.0000      0.0000     -0.4620     -0.6059
        97         0.8206     -0.8206     -0.0000      0.0000      0.0000      0.0000
        98        -0.0000      0.0000     -0.0000      0.8206      0.0000      0.0000
        99         0.0000     -0.0000     -0.0000      0.0000      0.0665      0.5409
       100        -0.0000      0.0000      0.0000     -0.0000      0.5409     -0.0665
       101        -0.0000      0.0000      0.0000     -0.0000      0.3856     -0.0306
       102        -0.0000      0.0000      0.0000     -0.0000      0.0306      0.3856
       103         0.1986      0.1986     -1.0694     -0.0000      0.0000     -0.0000
       104        -0.2147     -0.2147      0.3753      0.0000     -0.0000      0.0000
 <0|del|b> * <b|rxdel|0> + <0|del|b> * <b|delr+rdel|0>
 Rotatory Strengths (R) in cgs (10**-40 erg-esu-cm/Gauss)
       state          XX          YY          ZZ    R(velocity)    E-M Angle
         1        -2.4492      2.4492      0.0000      0.0000       90.00
         2         2.4492     -2.4492     -0.0000      0.0000       90.00
         3         0.0000     -0.0000     -0.0000      0.0000       90.00
         4         0.0000     -0.0000      0.0000     -0.0000       90.00
         5        -0.0000      0.0000     -0.0000     -0.0000       90.00
         6         0.0000     -0.0000     -0.0000     -0.0000       90.00
         7       -14.8968     14.8968     -0.0000      0.0000       90.00
         8        14.8968    -14.8968      0.0000     -0.0000       90.00
         9         0.0000     -0.0000      0.0000      0.0000       90.00
        10       -12.2274     12.2274     -0.0000     -0.0000       90.00
        11        12.2274    -12.2274      0.0000      0.0000       90.00
        12        -0.0000      0.0000     -0.0000      0.0000       90.00
        13         0.0000     -0.0000     -0.0000     -0.0000       90.00
        14        -0.0000     -0.0000      0.0000      0.0000       90.00
        15         0.0000     -0.0000     -0.0000     -0.0000       90.00
        16        -1.4404      1.4404     -0.0000     -0.0000       90.00
        17         1.4404     -1.4404      0.0000      0.0000       90.00
        18         0.0000     -0.0000     -0.0000     -0.0000       90.00
        19        -0.8862      0.8862     -0.0000     -0.0000       90.00
        20         0.8862     -0.8862     -0.0000     -0.0000       90.00
        21        -3.0799      3.0799      0.0000      0.0000       90.00
        22         3.0799     -3.0799     -0.0000     -0.0000       90.00
        23        -0.0000      0.0000      0.0000     -0.0000       90.00
        24         0.0000     -0.0000     -0.0000     -0.0000       90.00
        25        -0.0000      0.0000     -0.0000     -0.0000       90.00
        26         0.0000     -0.0000      0.0000      0.0000       90.00
        27         5.9372     -5.9372      0.0000     -0.0000       90.00
        28        -5.9372      5.9372     -0.0000      0.0000       90.00
        29        26.8102    -26.8102      0.0000      0.0000       90.00
        30       -26.8102     26.8102      0.0000     -0.0000       90.00
        31        -0.0000      0.0000     -0.0000      0.0000       90.00
        32        -0.0000      0.0000      0.0000      0.0000       90.00
        33         0.0000     -0.0000     -0.0000      0.0000       90.00
        34        -0.0000      0.0000      0.0000     -0.0000       90.00
        35        -0.0000      0.0000     -0.0000      0.0000       90.00
        36         0.0000     -0.0000      0.0000      0.0000       90.00
        37         0.0000     -0.0000     -0.0000     -0.0000       90.00
        38        -0.0000      0.0000     -0.0000      0.0000       90.00
        39         6.7729     -6.7729      0.0000      0.0000       90.00
        40        -6.7729      6.7729     -0.0000      0.0000       90.00
        41         0.0000     -0.0000      0.0000     -0.0000       90.00
        42        -0.1838      0.1838     -0.0000      0.0000       90.00
        43         0.1838     -0.1838      0.0000      0.0000       90.00
        44        -0.0000      0.0000      0.0000     -0.0000       90.00
        45         0.3776     -0.3776      0.0000     -0.0000       90.00
        46        -0.3776      0.3776     -0.0000     -0.0000       90.00
        47         3.6404     -3.6404      0.0000      0.0000       90.00
        48        -3.6404      3.6404     -0.0000     -0.0000       90.00
        49         0.0000     -0.0000     -0.0000     -0.0000       90.00
        50        -0.0000      0.0000     -0.0000     -0.0000       90.00
        51        -0.0000      0.0000      0.0000      0.0000       90.00
        52         0.0000     -0.0000      0.0000      0.0000       90.00
        53        -0.0000      0.0000     -0.0000     -0.0000       90.00
        54        -0.0000      0.0000     -0.0000     -0.0000       90.00
        55         0.0000     -0.0000     -0.0000     -0.0000       90.00
        56        -0.0000      0.0000      0.0000      0.0000       90.00
        57        -0.7740      0.7740     -0.0000     -0.0000       90.00
        58         0.7740     -0.7740     -0.0000     -0.0000       90.00
        59       -21.6411     21.6411      0.0000      0.0000       90.00
        60        21.6411    -21.6411     -0.0000     -0.0000       90.00
        61       -12.8883     12.8883     -0.0000     -0.0000       90.00
        62        12.8883    -12.8883      0.0000      0.0000       90.00
        63         0.0000     -0.0000      0.0000      0.0000       90.00
        64        -0.0000      0.0000      0.0000      0.0000       90.00
        65        -0.0000      0.0000      0.0000      0.0000       90.00
        66         0.0000     -0.0000     -0.0000     -0.0000       90.00
        67        -0.0000     -0.0000      0.0000      0.0000       90.00
        68        -0.0000      0.0000      0.0000      0.0000       90.00
        69        -0.0000      0.0000      0.0000      0.0000       90.00
        70         1.9293     -1.9293      0.0000      0.0000       90.00
        71        -1.9293      1.9293     -0.0000     -0.0000       90.00
        72        17.4628    -17.4628      0.0000      0.0000       90.00
        73       -17.4628     17.4628      0.0000      0.0000       90.00
        74        -4.1951      4.1951     -0.0000     -0.0000       90.00
        75         4.1951     -4.1951     -0.0000     -0.0000       90.00
        76        -0.0000      0.0000      0.0000      0.0000       90.00
        77        -0.4945      0.4945      0.0000      0.0000       90.00
        78         0.4945     -0.4945      0.0000      0.0000       90.00
        79         0.0000     -0.0000     -0.0000     -0.0000       90.00
        80         0.0000     -0.0000      0.0000      0.0000       90.00
        81         0.1229     -0.1229      0.0000      0.0000       90.00
        82        -0.1229      0.1229      0.0000      0.0000       90.00
        83        -0.0000      0.0000     -0.0000     -0.0000       90.00
        84         0.0000     -0.0000     -0.0000     -0.0000       90.00
        85        -0.0000      0.0000      0.0000      0.0000       90.00
        86         0.0000     -0.0000      0.0000      0.0000       90.00
        87        -0.0000      0.0000     -0.0000     -0.0000       90.00
        88        -0.0000      0.0000      0.0000      0.0000       90.00
        89       -12.4331     12.4331     -0.0000     -0.0000       90.00
        90        12.4331    -12.4331      0.0000      0.0000       90.00
        91        -0.0000      0.0000     -0.0000     -0.0000       90.00
        92         0.0000     -0.0000      0.0000      0.0000       90.00
        93        -0.0000      0.0000     -0.0000     -0.0000       90.00
        94         0.0000     -0.0000      0.0000      0.0000       90.00
        95        35.3117    -35.3117     -0.0000     -0.0000       90.00
        96       -35.3117     35.3117      0.0000      0.0000       90.00
        97        -0.0000      0.0000      0.0000      0.0000       90.00
        98        -0.0000      0.0000      0.0000      0.0000       90.00
        99         1.1441     -1.1441      0.0000      0.0000       90.00
       100        -1.1441      1.1441     -0.0000     -0.0000       90.00
       101         1.4072     -1.4072      0.0000     -0.0000       90.00
       102        -1.4072      1.4072      0.0000     -0.0000       90.00
       103         0.0000     -0.0000      0.0000     -0.0000       90.00
       104         0.0000     -0.0000      0.0000     -0.0000       90.00
 1/2[<0|r|b>*<b|rxdel|0> + (<0|rxdel|b>*<b|r|0>)*]
 Rotatory Strengths (R) in cgs (10**-40 erg-esu-cm/Gauss)
       state          XX          YY          ZZ     R(length)
         1        15.1550    -15.1550      0.0000      0.0000
         2       -15.1550     15.1550      0.0000      0.0000
         3         0.0000     -0.0000      0.0000      0.0000
         4        -0.0000      0.0000     -0.0000      0.0000
         5        -0.0000     -0.0000     -0.0000     -0.0000
         6        -0.0000     -0.0000     -0.0000     -0.0000
         7         1.5149     -1.5149      0.0000      0.0000
         8        -1.5149      1.5149      0.0000     -0.0000
         9         0.0000      0.0000      0.0000      0.0000
        10        23.1450    -23.1450     -0.0000     -0.0000
        11       -23.1450     23.1450     -0.0000      0.0000
        12         0.0000      0.0000      0.0000      0.0000
        13        -0.0000     -0.0000     -0.0000     -0.0000
        14        -0.0000      0.0000     -0.0000      0.0000
        15         0.0000     -0.0000      0.0000      0.0000
        16        -0.3129      0.3129     -0.0000     -0.0000
        17         0.3129     -0.3129      0.0000      0.0000
        18         0.0000     -0.0000     -0.0000     -0.0000
        19        -2.3338      2.3338      0.0000     -0.0000
        20         2.3338     -2.3338      0.0000     -0.0000
        21        -8.0065      8.0065     -0.0000      0.0000
        22         8.0065     -8.0065     -0.0000      0.0000
        23        -0.0000     -0.0000     -0.0000     -0.0000
        24        -0.0000     -0.0000     -0.0000     -0.0000
        25        -0.0000      0.0000     -0.0000     -0.0000
        26         0.0000     -0.0000     -0.0000      0.0000
        27         5.4659     -5.4659     -0.0000     -0.0000
        28        -5.4659      5.4659     -0.0000      0.0000
        29       -30.1451     30.1451      0.0000      0.0000
        30        30.1451    -30.1451     -0.0000     -0.0000
        31        -0.0000      0.0000      0.0000     -0.0000
        32         0.0000     -0.0000      0.0000      0.0000
        33         0.0000      0.0000     -0.0000      0.0000
        34        -0.0000      0.0000      0.0000     -0.0000
        35        -0.0000      0.0000      0.0000      0.0000
        36        -0.0000     -0.0000      0.0000     -0.0000
        37         0.0000     -0.0000      0.0000      0.0000
        38         0.0000     -0.0000      0.0000      0.0000
        39        -1.9356      1.9356      0.0000      0.0000
        40         1.9356     -1.9356     -0.0000      0.0000
        41        -0.0000     -0.0000     -0.0000     -0.0000
        42         0.0131     -0.0131      0.0000      0.0000
        43        -0.0131      0.0131     -0.0000     -0.0000
        44         0.0000      0.0000     -0.0000      0.0000
        45        -0.1472      0.1472      0.0000     -0.0000
        46         0.1472     -0.1472     -0.0000     -0.0000
        47         1.2052     -1.2052      0.0000     -0.0000
        48        -1.2052      1.2052      0.0000     -0.0000
        49        -0.0000      0.0000     -0.0000     -0.0000
        50         0.0000     -0.0000     -0.0000     -0.0000
        51         0.0000      0.0000     -0.0000      0.0000
        52         0.0000      0.0000      0.0000      0.0000
        53         0.0000     -0.0000      0.0000     -0.0000
        54         0.0000     -0.0000      0.0000     -0.0000
        55         0.0000     -0.0000      0.0000      0.0000
        56         0.0000      0.0000      0.0000      0.0000
        57        -0.1362      0.1362     -0.0000     -0.0000
        58         0.1362     -0.1362     -0.0000     -0.0000
        59        -5.2210      5.2210      0.0000      0.0000
        60         5.2210     -5.2210     -0.0000     -0.0000
        61        -2.1525      2.1525     -0.0000     -0.0000
        62         2.1525     -2.1525      0.0000      0.0000
        63         0.0000      0.0000     -0.0000      0.0000
        64         0.0000      0.0000      0.0000      0.0000
        65         0.0000      0.0000      0.0000      0.0000
        66        -0.0000     -0.0000     -0.0000     -0.0000
        67         0.0000      0.0000      0.0000      0.0000
        68         0.0000      0.0000      0.0000      0.0000
        69         0.0000      0.0000      0.0000      0.0000
        70        -3.7225      3.7225     -0.0000      0.0000
        71         3.7225     -3.7225     -0.0000     -0.0000
        72        12.2724    -12.2724     -0.0000      0.0000
        73       -12.2724     12.2724     -0.0000      0.0000
        74         3.3460     -3.3460      0.0000     -0.0000
        75        -3.3460      3.3460      0.0000     -0.0000
        76         0.0000     -0.0000      0.0000      0.0000
        77         2.9909     -2.9909     -0.0000     -0.0000
        78        -2.9909      2.9909      0.0000      0.0000
        79        -0.0000     -0.0000     -0.0000     -0.0000
        80         0.0000     -0.0000      0.0000      0.0000
        81         0.6687     -0.6687     -0.0000      0.0000
        82        -0.6687      0.6687      0.0000      0.0000
        83        -0.0000     -0.0000      0.0000     -0.0000
        84         0.0000      0.0000     -0.0000     -0.0000
        85         0.0000     -0.0000     -0.0000     -0.0000
        86        -0.0000      0.0000     -0.0000      0.0000
        87        -0.0000      0.0000     -0.0000     -0.0000
        88         0.0000     -0.0000     -0.0000      0.0000
        89        14.6428    -14.6428     -0.0000     -0.0000
        90       -14.6428     14.6428     -0.0000      0.0000
        91        -0.0000     -0.0000     -0.0000     -0.0000
        92         0.0000     -0.0000      0.0000      0.0000
        93         0.0000     -0.0000      0.0000     -0.0000
        94         0.0000      0.0000      0.0000      0.0000
        95        47.7838    -47.7838     -0.0000     -0.0000
        96       -47.7838     47.7838     -0.0000      0.0000
        97        -0.0000      0.0000      0.0000      0.0000
        98        -0.0000      0.0000      0.0000      0.0000
        99        -0.0640      0.0640      0.0000      0.0000
       100         0.0640     -0.0640      0.0000     -0.0000
       101         1.0701     -1.0701      0.0000      0.0000
       102        -1.0701      1.0701      0.0000     -0.0000
       103         0.0000     -0.0000     -0.0000     -0.0000
       104         0.0000     -0.0000     -0.0000     -0.0000
  1/2[<0|del|b>*<b|r|0> + (<0|r|b>*<b|del|0>)*] (Au)
       state          X           Y           Z        Dip. S.   Osc.(frdel)
         1        -0.0237     -0.0230     -0.0000      0.0467      0.0312
         2        -0.0230     -0.0237     -0.0000      0.0467      0.0312
         3        -0.0000     -0.0000     -0.2063      0.2063      0.1376
         4        -0.0000     -0.0000     -0.0000      0.0000      0.0000
         5        -0.0000     -0.0000      0.0000      0.0000      0.0000
         6        -0.0000     -0.0000     -0.0000      0.0000      0.0000
         7        -0.0278     -0.0129      0.0000      0.0408      0.0272
         8        -0.0129     -0.0278     -0.0000      0.0408      0.0272
         9        -0.0000      0.0000     -0.0253      0.0253      0.0168
        10        -0.0439     -0.0567     -0.0000      0.1007      0.0671
        11        -0.0567     -0.0439      0.0000      0.1007      0.0671
        12        -0.0000      0.0000     -0.0000      0.0000      0.0000
        13        -0.0000     -0.0000     -0.0000      0.0000      0.0000
        14         0.0000     -0.0000     -0.0000     -0.0000     -0.0000
        15         0.0000     -0.0000     -0.2830      0.2830      0.1886
        16        -0.0002     -0.0001     -0.0000      0.0003      0.0002
        17        -0.0001     -0.0002     -0.0000      0.0003      0.0002
        18         0.0000     -0.0000     -0.0489      0.0489      0.0326
        19        -0.0220     -0.0013     -0.0000      0.0232      0.0155
        20        -0.0013     -0.0220     -0.0000      0.0232      0.0155
        21        -0.1128     -0.0030     -0.0000      0.1158      0.0772
        22        -0.0030     -0.1128     -0.0000      0.1158      0.0772
        23         0.0000     -0.0000     -0.1640      0.1640      0.1093
        24        -0.0000     -0.0000     -0.1163      0.1163      0.0775
        25        -0.0000     -0.0000     -0.0000      0.0000      0.0000
        26        -0.0000     -0.0000     -0.0000      0.0000      0.0000
        27        -0.0471     -0.5838     -0.0000      0.6309      0.4206
        28        -0.5838     -0.0471     -0.0000      0.6309      0.4206
        29        -0.1128     -0.1609     -0.0000      0.2737      0.1825
        30        -0.1609     -0.1128     -0.0000      0.2737      0.1825
        31        -0.0000     -0.0000     -0.0000      0.0000      0.0000
        32        -0.0000     -0.0000     -0.0000      0.0000      0.0000
        33         0.0000     -0.0000     -0.0000      0.0000      0.0000
        34        -0.0000      0.0000     -0.0000      0.0000      0.0000
        35        -0.0000     -0.0000     -0.0000      0.0000      0.0000
        36         0.0000     -0.0000     -0.2161      0.2161      0.1441
        37         0.0000     -0.0000     -0.2259      0.2259      0.1506
        38         0.0000     -0.0000     -0.7542      0.7542      0.5028
        39        -0.4641     -0.0015     -0.0000      0.4655      0.3104
        40        -0.0015     -0.4641     -0.0000      0.4655      0.3104
        41         0.0000     -0.0000     -0.0066      0.0066      0.0044
        42        -0.0000     -0.0023     -0.0000      0.0023      0.0015
        43        -0.0023     -0.0000     -0.0000      0.0023      0.0015
        44         0.0000     -0.0000     -0.0112      0.0112      0.0075
        45        -0.0047     -0.0000     -0.0000      0.0047      0.0031
        46        -0.0000     -0.0047     -0.0000      0.0047      0.0031
        47        -0.0061     -0.0008     -0.0000      0.0069      0.0046
        48        -0.0008     -0.0061     -0.0000      0.0069      0.0046
        49         0.0000     -0.0000     -0.0247      0.0247      0.0165
        50        -0.0000     -0.0000     -0.0026      0.0026      0.0018
        51        -0.0000     -0.0000      0.0000      0.0000      0.0000
        52        -0.0000     -0.0000      0.0000      0.0000      0.0000
        53         0.0000     -0.0000     -0.0000      0.0000      0.0000
        54        -0.0000     -0.0000      0.0000      0.0000      0.0000
        55        -0.0000     -0.0000     -0.0000      0.0000      0.0000
        56        -0.0000      0.0000      0.0001     -0.0001     -0.0000
        57        -0.0000     -0.0000     -0.0000      0.0001      0.0000
        58        -0.0000     -0.0000     -0.0000      0.0001      0.0000
        59        -0.0271     -0.0346     -0.0000      0.0616      0.0411
        60        -0.0346     -0.0271     -0.0000      0.0616      0.0411
        61        -0.0164     -0.0094     -0.0000      0.0258      0.0172
        62        -0.0094     -0.0164      0.0000      0.0258      0.0172
        63        -0.0000     -0.0000     -0.1306      0.1306      0.0871
        64        -0.0000     -0.0000     -0.0224      0.0224      0.0150
        65        -0.0000     -0.0000     -0.0000      0.0000      0.0000
        66        -0.0000     -0.0000     -0.0000      0.0000      0.0000
        67        -0.0000     -0.0000      0.0000      0.0000      0.0000
        68        -0.0000     -0.0000     -0.1483      0.1483      0.0988
        69        -0.0000     -0.0000     -0.0444      0.0444      0.0296
        70        -0.0061     -0.0032     -0.0000      0.0093      0.0062
        71        -0.0032     -0.0061     -0.0000      0.0093      0.0062
        72        -0.2098     -0.0097     -0.0000      0.2195      0.1463
        73        -0.0097     -0.2098      0.0000      0.2195      0.1463
        74        -0.3069     -0.0134     -0.0000      0.3203      0.2135
        75        -0.0134     -0.3069      0.0000      0.3203      0.2135
        76        -0.0000     -0.0000     -0.0272      0.0272      0.0181
        77        -0.0038     -0.0178     -0.0000      0.0216      0.0144
        78        -0.0178     -0.0038     -0.0000      0.0216      0.0144
        79        -0.0000     -0.0000     -0.1228      0.1228      0.0819
        80        -0.0000      0.0000     -0.0273      0.0273      0.0182
        81        -0.0004     -0.0000     -0.0000      0.0004      0.0002
        82        -0.0000     -0.0004     -0.0000      0.0004      0.0002
        83        -0.0000     -0.0000     -0.0570      0.0570      0.0380
        84        -0.0000      0.0000     -0.0323      0.0323      0.0215
        85        -0.0000     -0.0000     -0.0000      0.0000      0.0000
        86        -0.0000     -0.0000      0.0000      0.0000      0.0000
        87        -0.0000     -0.0000     -0.0000      0.0000      0.0000
        88        -0.0000     -0.0000     -0.0000      0.0000      0.0000
        89        -0.0998     -0.2582      0.0000      0.3581      0.2387
        90        -0.2582     -0.0998     -0.0000      0.3581      0.2387
        91        -0.0000     -0.0000     -0.0000      0.0000      0.0000
        92        -0.0000     -0.0000     -0.0000      0.0000      0.0000
        93        -0.0000     -0.0000      0.0000      0.0000      0.0000
        94        -0.0000      0.0000     -0.7542      0.7542      0.5028
        95        -0.5479     -0.3186     -0.0000      0.8666      0.5777
        96        -0.3186     -0.5479     -0.0000      0.8666      0.5777
        97        -0.0000     -0.0000     -0.0000      0.0000      0.0000
        98        -0.0000     -0.0000     -0.0000      0.0000      0.0000
        99        -0.0002     -0.0116     -0.0000      0.0118      0.0078
       100        -0.0116     -0.0002     -0.0000      0.0118      0.0078
       101        -0.1566     -0.0010     -0.0000      0.1576      0.1051
       102        -0.0010     -0.1566     -0.0000      0.1576      0.1051
       103        -0.0000     -0.0000     -0.3200      0.3200      0.2133
       104        -0.0000     -0.0000     -0.0000      0.0000      0.0000

 Excitation energies and oscillator strengths:
 
 Excited state symmetry could not be determined.
 Excited State   1:      Singlet-?Sym   10.0095 eV  123.87 nm  f=0.0312  <S**2>=0.000
       4 ->  6         0.49503
       5 ->  6         0.50278
 This state for optimization and/or second-order correction.
 Total Energy, E(TD-HF/TD-DFT) =  -100.008912932    
 Copying the excited state density for this state as the 1-particle RhoCI density.
 
 Excited state symmetry could not be determined.
 Excited State   2:      Singlet-?Sym   10.0095 eV  123.87 nm  f=0.0312  <S**2>=0.000
       4 ->  6         0.50278
       5 ->  6        -0.49503
 
 Excited State   3:      Singlet-SG    13.8996 eV   89.20 nm  f=0.1355  <S**2>=0.000
       3 ->  6         0.63891
       4 ->  8         0.21019
       5 ->  9         0.21019
 
 Excited state symmetry could not be determined.
 Excited State   4:      Singlet-?Sym   13.9977 eV   88.57 nm  f=0.0000  <S**2>=0.000
       4 ->  9        -0.49931
       5 ->  8         0.49931
 
 Excited state symmetry could not be determined.
[...]
      9   0.000000D+00  0.000000D+00  0.000000D+00  0.000000D+00  0.000000D+00
     10   0.000000D+00  0.000000D+00  0.000000D+00  0.000000D+00  0.000000D+00
     11   0.000000D+00 -0.186467D+00  0.197258D-01  0.000000D+00  0.000000D+00
     12   0.000000D+00  0.186467D+00 -0.197258D-01  0.000000D+00  0.000000D+00
     13   0.000000D+00  0.000000D+00  0.000000D+00  0.000000D+00  0.000000D+00
     14  -0.186467D+00  0.000000D+00  0.000000D+00  0.197258D-01  0.000000D+00
     15   0.000000D+00  0.000000D+00  0.000000D+00  0.000000D+00  0.000000D+00
     16   0.000000D+00  0.000000D+00  0.000000D+00  0.000000D+00  0.000000D+00
                36            37            38            39            40 
      1  -0.992816D+02 -0.992228D+02 -0.991856D+02 -0.991470D+02 -0.991470D+02
      2   0.000000D+00  0.000000D+00  0.000000D+00  0.605656D+00  0.339096D-01
      3   0.000000D+00  0.000000D+00  0.000000D+00 -0.339096D-01  0.605656D+00
      4   0.421557D+00  0.444220D+00 -0.785800D+00  0.000000D+00  0.000000D+00
      5   0.000000D+00  0.000000D+00  0.000000D+00 -0.766265D+00 -0.429018D-01
      6   0.000000D+00  0.000000D+00  0.000000D+00  0.429018D-01 -0.766265D+00
      7  -0.512740D+00 -0.508458D+00  0.959767D+00  0.000000D+00  0.000000D+00
      8   0.000000D+00  0.000000D+00  0.000000D+00  0.451931D-02 -0.807190D-01
      9   0.000000D+00  0.000000D+00  0.000000D+00  0.807190D-01  0.451931D-02
     10   0.000000D+00  0.000000D+00  0.000000D+00  0.000000D+00  0.000000D+00
     11   0.933016D-01  0.297016D+00  0.133021D+00  0.000000D+00  0.000000D+00
     12   0.933016D-01  0.297016D+00  0.133021D+00  0.000000D+00  0.000000D+00
     13  -0.850396D-01  0.508451D+00  0.121436D+01  0.000000D+00  0.000000D+00
     14   0.000000D+00  0.000000D+00  0.000000D+00  0.000000D+00  0.000000D+00
     15   0.000000D+00  0.000000D+00  0.000000D+00 -0.468340D+00 -0.262215D-01
     16   0.000000D+00  0.000000D+00  0.000000D+00  0.262215D-01 -0.468340D+00
                41            42            43            44            45 
      1  -0.990845D+02 -0.990818D+02 -0.990818D+02 -0.990174D+02 -0.990043D+02
      2   0.000000D+00  0.122416D-02  0.323373D-01  0.000000D+00 -0.617468D-01
      3   0.000000D+00  0.323373D-01 -0.122416D-02  0.000000D+00  0.287061D-02
      4   0.706358D-01  0.000000D+00  0.000000D+00  0.104357D+00  0.000000D+00
      5   0.000000D+00 -0.268111D-02 -0.708239D-01  0.000000D+00  0.758619D-01
      6   0.000000D+00 -0.708239D-01  0.268111D-02  0.000000D+00 -0.352682D-02
      7  -0.938348D-01  0.000000D+00  0.000000D+00 -0.107642D+00  0.000000D+00
      8   0.000000D+00 -0.151607D-01  0.573922D-03  0.000000D+00 -0.337030D-02
      9   0.000000D+00  0.573922D-03  0.151607D-01  0.000000D+00 -0.724953D-01
     10   0.000000D+00  0.000000D+00  0.000000D+00  0.000000D+00  0.000000D+00
     11   0.237009D+00  0.000000D+00  0.000000D+00 -0.429754D+00  0.000000D+00
     12   0.237009D+00  0.000000D+00  0.000000D+00 -0.429754D+00  0.000000D+00
     13   0.184952D+00  0.000000D+00  0.000000D+00  0.693922D+00  0.000000D+00
     14   0.000000D+00  0.000000D+00  0.000000D+00  0.000000D+00  0.000000D+00
     15   0.000000D+00 -0.893074D-02 -0.235913D+00  0.000000D+00  0.343141D+00
     16   0.000000D+00 -0.235913D+00  0.893074D-02  0.000000D+00 -0.159526D-01
                46            47            48            49            50 
      1  -0.990043D+02 -0.989911D+02 -0.989911D+02 -0.988903D+02 -0.988449D+02
      2  -0.287061D-02 -0.622978D-01  0.226128D-01  0.000000D+00  0.000000D+00
      3  -0.617468D-01 -0.226128D-01 -0.622978D-01  0.000000D+00  0.000000D+00
      4   0.000000D+00  0.000000D+00  0.000000D+00  0.130626D+00 -0.460633D-01
      5   0.352682D-02  0.981196D-01 -0.356154D-01  0.000000D+00  0.000000D+00
      6   0.758619D-01  0.356154D-01  0.981196D-01  0.000000D+00  0.000000D+00
      7   0.000000D+00  0.000000D+00  0.000000D+00 -0.189135D+00  0.571872D-01
      8   0.724953D-01  0.273572D-01  0.753684D-01  0.000000D+00  0.000000D+00
      9  -0.337030D-02 -0.753684D-01  0.273572D-01  0.000000D+00  0.000000D+00
     10   0.000000D+00  0.000000D+00  0.000000D+00  0.000000D+00  0.000000D+00
     11   0.000000D+00  0.000000D+00  0.000000D+00  0.342108D+00  0.473419D+00
     12   0.000000D+00  0.000000D+00  0.000000D+00  0.342108D+00  0.473419D+00
     13   0.000000D+00  0.000000D+00  0.000000D+00  0.285994D+00 -0.116869D+01
     14   0.000000D+00  0.000000D+00  0.000000D+00  0.000000D+00  0.000000D+00
     15   0.159526D-01 -0.475921D+00  0.172749D+00  0.000000D+00  0.000000D+00
     16   0.343141D+00 -0.172749D+00 -0.475921D+00  0.000000D+00  0.000000D+00
                51            52            53            54            55 
      1  -0.987424D+02 -0.987380D+02 -0.987380D+02 -0.986948D+02 -0.986948D+02
      2   0.000000D+00  0.000000D+00  0.000000D+00  0.000000D+00  0.000000D+00
      3   0.000000D+00  0.000000D+00  0.000000D+00  0.000000D+00  0.000000D+00
      4   0.000000D+00  0.000000D+00  0.000000D+00  0.000000D+00  0.000000D+00
      5   0.000000D+00  0.000000D+00  0.000000D+00  0.000000D+00  0.000000D+00
      6   0.000000D+00  0.000000D+00  0.000000D+00  0.000000D+00  0.000000D+00
      7   0.000000D+00  0.000000D+00  0.000000D+00  0.000000D+00  0.000000D+00
      8   0.000000D+00  0.000000D+00  0.000000D+00  0.000000D+00  0.000000D+00
      9   0.000000D+00  0.000000D+00  0.000000D+00  0.000000D+00  0.000000D+00
     10   0.000000D+00  0.000000D+00  0.000000D+00  0.000000D+00  0.000000D+00
     11   0.000000D+00  0.000000D+00 -0.574807D+00  0.000000D+00  0.865483D+00
     12   0.000000D+00  0.000000D+00  0.574807D+00  0.000000D+00 -0.865483D+00
     13   0.000000D+00  0.000000D+00  0.000000D+00  0.000000D+00  0.000000D+00
     14   0.000000D+00 -0.574807D+00  0.000000D+00  0.865483D+00  0.000000D+00
     15   0.000000D+00  0.000000D+00  0.000000D+00  0.000000D+00  0.000000D+00
     16   0.000000D+00  0.000000D+00  0.000000D+00  0.000000D+00  0.000000D+00
                56            57            58            59            60 
      1  -0.986078D+02 -0.985969D+02 -0.985969D+02 -0.985326D+02 -0.985326D+02
      2   0.000000D+00  0.186330D-02 -0.135673D-02  0.113450D+00  0.128268D+00
      3   0.000000D+00  0.135673D-02  0.186330D-02  0.128268D+00 -0.113450D+00
      4  -0.594326D-02  0.000000D+00  0.000000D+00  0.000000D+00  0.000000D+00
      5   0.000000D+00 -0.252945D-01  0.184177D-01 -0.238435D+00 -0.269579D+00
      6   0.000000D+00 -0.184177D-01 -0.252945D-01 -0.269579D+00  0.238435D+00
      7  -0.890842D-02  0.000000D+00  0.000000D+00  0.000000D+00  0.000000D+00
      8   0.000000D+00  0.103346D+00  0.141934D+00  0.650775D-01 -0.575593D-01
      9   0.000000D+00 -0.141934D+00  0.103346D+00 -0.575593D-01 -0.650775D-01
     10   0.000000D+00  0.000000D+00  0.000000D+00  0.000000D+00  0.000000D+00
     11   0.577910D+00  0.000000D+00  0.000000D+00  0.000000D+00  0.000000D+00
     12   0.577910D+00  0.000000D+00  0.000000D+00  0.000000D+00  0.000000D+00
     13  -0.729366D+00  0.000000D+00  0.000000D+00  0.000000D+00  0.000000D+00
     14   0.000000D+00  0.000000D+00  0.000000D+00  0.000000D+00  0.000000D+00
     15   0.000000D+00 -0.353468D+00  0.257371D+00 -0.476267D+00 -0.538476D+00
     16   0.000000D+00 -0.257371D+00 -0.353468D+00 -0.538476D+00  0.476267D+00
                61            62            63            64            65 
      1  -0.985233D+02 -0.985233D+02 -0.984990D+02 -0.982516D+02 -0.982133D+02
      2   0.887894D-01  0.673632D-01  0.000000D+00  0.000000D+00  0.000000D+00
      3  -0.673632D-01  0.887894D-01  0.000000D+00  0.000000D+00  0.000000D+00
      4   0.000000D+00  0.000000D+00  0.257521D+00 -0.894116D-01  0.000000D+00
      5  -0.184483D+00 -0.139965D+00  0.000000D+00  0.000000D+00  0.000000D+00
      6   0.139965D+00 -0.184483D+00  0.000000D+00  0.000000D+00  0.000000D+00
      7   0.000000D+00  0.000000D+00 -0.507202D+00  0.250894D+00  0.000000D+00
      8   0.342815D-01 -0.451854D-01  0.000000D+00  0.000000D+00  0.000000D+00
      9   0.451854D-01  0.342815D-01  0.000000D+00  0.000000D+00  0.000000D+00
     10   0.000000D+00  0.000000D+00  0.000000D+00  0.000000D+00  0.000000D+00
     11   0.000000D+00  0.000000D+00  0.248812D+00  0.383660D+00  0.400069D+00
     12   0.000000D+00  0.000000D+00  0.248812D+00  0.383660D+00 -0.400069D+00
     13   0.000000D+00  0.000000D+00  0.796148D+00  0.122165D+01  0.000000D+00
     14   0.000000D+00  0.000000D+00  0.000000D+00  0.000000D+00  0.000000D+00
     15   0.527866D+00  0.400484D+00  0.000000D+00  0.000000D+00  0.000000D+00
     16  -0.400484D+00  0.527866D+00  0.000000D+00  0.000000D+00  0.000000D+00
                66            67            68            69            70 
      1  -0.982133D+02 -0.982063D+02 -0.982001D+02 -0.981594D+02 -0.981050D+02
      2   0.000000D+00  0.000000D+00  0.000000D+00  0.000000D+00 -0.466994D-01
      3   0.000000D+00  0.000000D+00  0.000000D+00  0.000000D+00 -0.336125D-01
      4   0.000000D+00  0.000000D+00 -0.271599D+00 -0.157126D+00  0.000000D+00
      5   0.000000D+00  0.000000D+00  0.000000D+00  0.000000D+00  0.131363D+00
      6   0.000000D+00  0.000000D+00  0.000000D+00  0.000000D+00  0.945500D-01
      7   0.000000D+00  0.000000D+00  0.545863D+00  0.282675D+00  0.000000D+00
      8   0.000000D+00  0.000000D+00  0.000000D+00  0.000000D+00 -0.112721D+00
      9   0.000000D+00  0.000000D+00  0.000000D+00  0.000000D+00  0.156608D+00
     10   0.000000D+00  0.000000D+00  0.000000D+00  0.000000D+00  0.000000D+00
     11   0.000000D+00  0.000000D+00  0.583234D-01  0.105841D+01  0.000000D+00
     12   0.000000D+00  0.000000D+00  0.583234D-01  0.105841D+01  0.000000D+00
     13   0.000000D+00  0.000000D+00 -0.123802D+01  0.458741D-01  0.000000D+00
     14   0.400069D+00  0.000000D+00  0.000000D+00  0.000000D+00  0.000000D+00
     15   0.000000D+00  0.000000D+00  0.000000D+00  0.000000D+00  0.255058D-01
     16   0.000000D+00  0.000000D+00  0.000000D+00  0.000000D+00  0.183581D-01
                71            72            73            74            75 
      1  -0.981050D+02 -0.980582D+02 -0.980582D+02 -0.979443D+02 -0.979443D+02
      2   0.336125D-01 -0.315210D+00  0.678216D-01 -0.343771D+00 -0.718439D-01
      3  -0.466994D-01 -0.678216D-01 -0.315210D+00  0.718439D-01 -0.343771D+00
      4   0.000000D+00  0.000000D+00  0.000000D+00  0.000000D+00  0.000000D+00
      5  -0.945500D-01  0.665479D+00 -0.143186D+00  0.892706D+00  0.186564D+00
      6   0.131363D+00  0.143186D+00  0.665479D+00 -0.186564D+00  0.892706D+00
      7   0.000000D+00  0.000000D+00  0.000000D+00  0.000000D+00  0.000000D+00
      8  -0.156608D+00  0.550564D-01  0.255882D+00  0.137635D-01 -0.658581D-01
      9  -0.112721D+00 -0.255882D+00  0.550564D-01  0.658581D-01  0.137635D-01
     10   0.000000D+00  0.000000D+00  0.000000D+00  0.000000D+00  0.000000D+00
     11   0.000000D+00  0.000000D+00  0.000000D+00  0.000000D+00  0.000000D+00
     12   0.000000D+00  0.000000D+00  0.000000D+00  0.000000D+00  0.000000D+00
     13   0.000000D+00  0.000000D+00  0.000000D+00  0.000000D+00  0.000000D+00
     14   0.000000D+00  0.000000D+00  0.000000D+00  0.000000D+00  0.000000D+00
     15  -0.183581D-01 -0.105561D+01  0.227128D+00 -0.888369D-01 -0.185658D-01
     16   0.255058D-01 -0.227128D+00 -0.105561D+01  0.185658D-01 -0.888369D-01
                76            77            78            79            80 
      1  -0.979324D+02 -0.976968D+02 -0.976968D+02 -0.976867D+02 -0.975131D+02
      2   0.000000D+00  0.434158D-01 -0.940372D-01  0.000000D+00  0.000000D+00
      3   0.000000D+00 -0.940372D-01 -0.434158D-01  0.000000D+00  0.000000D+00
      4   0.105997D+00  0.000000D+00  0.000000D+00 -0.208768D+00  0.101144D+00
      5   0.000000D+00 -0.873902D-01  0.189285D+00  0.000000D+00  0.000000D+00
      6   0.000000D+00  0.189285D+00  0.873902D-01  0.000000D+00  0.000000D+00
      7  -0.256355D+00  0.000000D+00  0.000000D+00  0.588307D+00 -0.270153D+00
      8   0.000000D+00 -0.974163D-01 -0.449759D-01  0.000000D+00  0.000000D+00
      9   0.000000D+00 -0.449759D-01  0.974163D-01  0.000000D+00  0.000000D+00
     10   0.000000D+00  0.000000D+00  0.000000D+00  0.000000D+00  0.000000D+00
     11  -0.628071D+00  0.000000D+00  0.000000D+00  0.907521D+00  0.228829D+00
     12  -0.628071D+00  0.000000D+00  0.000000D+00  0.907521D+00  0.228829D+00
     13   0.410923D+00  0.000000D+00  0.000000D+00  0.119966D+01 -0.478783D+00
     14   0.000000D+00  0.000000D+00  0.000000D+00  0.000000D+00  0.000000D+00
     15   0.000000D+00 -0.251744D-01  0.545269D-01  0.000000D+00  0.000000D+00
     16   0.000000D+00  0.545269D-01  0.251744D-01  0.000000D+00  0.000000D+00
                81            82            83            84            85 
      1  -0.974416D+02 -0.974416D+02 -0.972491D+02 -0.969039D+02 -0.968042D+02
      2  -0.266965D-01  0.463874D-02  0.000000D+00  0.000000D+00  0.000000D+00
      3  -0.463874D-02 -0.266965D-01  0.000000D+00  0.000000D+00  0.000000D+00
      4   0.000000D+00  0.000000D+00 -0.136161D+00  0.898670D-01  0.000000D+00
      5   0.134124D-01 -0.233052D-02  0.000000D+00  0.000000D+00  0.000000D+00
      6   0.233052D-02  0.134124D-01  0.000000D+00  0.000000D+00  0.000000D+00
      7   0.000000D+00  0.000000D+00  0.418457D+00 -0.359515D+00  0.000000D+00
      8   0.354209D-01  0.203851D+00  0.000000D+00  0.000000D+00  0.000000D+00
      9  -0.203851D+00  0.354209D-01  0.000000D+00  0.000000D+00  0.000000D+00
     10   0.000000D+00  0.000000D+00  0.000000D+00  0.000000D+00  0.000000D+00
     11   0.000000D+00  0.000000D+00 -0.119374D+01 -0.104619D+00  0.000000D+00
     12   0.000000D+00  0.000000D+00 -0.119374D+01 -0.104619D+00  0.000000D+00
     13   0.000000D+00  0.000000D+00 -0.904826D-01  0.380873D+00  0.000000D+00
     14   0.000000D+00  0.000000D+00  0.000000D+00  0.000000D+00  0.000000D+00
     15  -0.641780D+00  0.111515D+00  0.000000D+00  0.000000D+00  0.000000D+00
     16  -0.111515D+00 -0.641780D+00  0.000000D+00  0.000000D+00  0.000000D+00
                86            87            88            89            90 
      1  -0.968042D+02 -0.966541D+02 -0.966541D+02 -0.966383D+02 -0.966383D+02
      2   0.000000D+00  0.000000D+00  0.000000D+00  0.174247D+00  0.280277D+00
      3   0.000000D+00  0.000000D+00  0.000000D+00 -0.280277D+00  0.174247D+00
      4   0.000000D+00  0.000000D+00  0.000000D+00  0.000000D+00  0.000000D+00
      5   0.000000D+00  0.000000D+00  0.000000D+00 -0.572827D+00 -0.921396D+00
      6   0.000000D+00  0.000000D+00  0.000000D+00  0.921396D+00 -0.572827D+00
      7   0.000000D+00  0.000000D+00  0.000000D+00  0.000000D+00  0.000000D+00
      8   0.000000D+00  0.000000D+00  0.000000D+00 -0.118833D+00  0.738779D-01
      9   0.000000D+00  0.000000D+00  0.000000D+00 -0.738779D-01 -0.118833D+00
     10   0.000000D+00  0.000000D+00  0.000000D+00  0.000000D+00  0.000000D+00
     11   0.000000D+00 -0.194139D+00  0.000000D+00  0.000000D+00  0.000000D+00
     12   0.000000D+00  0.194139D+00  0.000000D+00  0.000000D+00  0.000000D+00
     13   0.000000D+00  0.000000D+00  0.000000D+00  0.000000D+00  0.000000D+00
     14   0.000000D+00  0.000000D+00 -0.194139D+00  0.000000D+00  0.000000D+00
     15   0.000000D+00  0.000000D+00  0.000000D+00  0.687913D-01  0.110651D+00
     16   0.000000D+00  0.000000D+00  0.000000D+00 -0.110651D+00  0.687913D-01
                91            92            93            94            95 
      1  -0.966236D+02 -0.966236D+02 -0.966182D+02 -0.964050D+02 -0.963149D+02
      2   0.000000D+00  0.000000D+00  0.000000D+00  0.000000D+00  0.390118D+00
      3   0.000000D+00  0.000000D+00  0.000000D+00  0.000000D+00 -0.297505D+00
      4   0.000000D+00  0.000000D+00  0.000000D+00  0.458475D+00  0.000000D+00
      5   0.000000D+00  0.000000D+00  0.000000D+00  0.000000D+00 -0.140448D+01
      6   0.000000D+00  0.000000D+00  0.000000D+00  0.000000D+00  0.107106D+01
      7   0.000000D+00  0.000000D+00  0.000000D+00 -0.164494D+01  0.000000D+00
      8   0.000000D+00  0.000000D+00  0.000000D+00  0.000000D+00 -0.173206D+00
      9   0.000000D+00  0.000000D+00  0.000000D+00  0.000000D+00 -0.227125D+00
     10   0.000000D+00  0.000000D+00  0.000000D+00  0.000000D+00  0.000000D+00
     11   0.000000D+00 -0.965717D-01  0.000000D+00  0.932497D-01  0.000000D+00
     12   0.000000D+00  0.965717D-01  0.000000D+00  0.932497D-01  0.000000D+00
     13   0.000000D+00  0.000000D+00  0.000000D+00 -0.888857D+00  0.000000D+00
     14   0.965718D-01  0.000000D+00  0.000000D+00  0.000000D+00  0.000000D+00
     15   0.000000D+00  0.000000D+00  0.000000D+00  0.000000D+00 -0.605867D+00
     16   0.000000D+00  0.000000D+00  0.000000D+00  0.000000D+00  0.462036D+00
                96            97            98            99           100 
      1  -0.963149D+02 -0.959711D+02 -0.959711D+02 -0.957956D+02 -0.957956D+02
      2   0.297505D+00  0.000000D+00  0.000000D+00  0.654810D-02  0.532742D-01
      3   0.390118D+00  0.000000D+00  0.000000D+00  0.532742D-01 -0.654810D-02
      4   0.000000D+00  0.000000D+00  0.000000D+00  0.000000D+00  0.000000D+00
      5  -0.107106D+01  0.000000D+00  0.000000D+00 -0.267214D-01 -0.217400D+00
      6  -0.140448D+01  0.000000D+00  0.000000D+00 -0.217400D+00  0.267214D-01
      7   0.000000D+00  0.000000D+00  0.000000D+00  0.000000D+00  0.000000D+00
      8   0.227125D+00  0.000000D+00  0.000000D+00  0.138203D-01 -0.169870D-02
      9  -0.173206D+00  0.000000D+00  0.000000D+00 -0.169870D-02 -0.138203D-01
     10   0.000000D+00  0.000000D+00  0.000000D+00  0.000000D+00  0.000000D+00
     11   0.000000D+00  0.820596D+00  0.000000D+00  0.000000D+00  0.000000D+00
     12   0.000000D+00 -0.820596D+00  0.000000D+00  0.000000D+00  0.000000D+00
     13   0.000000D+00  0.000000D+00  0.000000D+00  0.000000D+00  0.000000D+00
     14   0.000000D+00  0.000000D+00  0.820596D+00  0.000000D+00  0.000000D+00
     15  -0.462036D+00  0.000000D+00  0.000000D+00  0.664881D-01  0.540935D+00
     16  -0.605867D+00  0.000000D+00  0.000000D+00  0.540935D+00 -0.664881D-01
               101           102           103           104 
      1  -0.956628D+02 -0.956628D+02 -0.954715D+02 -0.949001D+02
      2  -0.188510D+00 -0.149612D-01  0.000000D+00  0.000000D+00
      3   0.149612D-01 -0.188510D+00  0.000000D+00  0.000000D+00
      4   0.000000D+00  0.000000D+00  0.264947D+00 -0.725889D-02
      5   0.830953D+00  0.659490D-01  0.000000D+00  0.000000D+00
      6  -0.659490D-01  0.830953D+00  0.000000D+00  0.000000D+00
      7   0.000000D+00  0.000000D+00 -0.120770D+01  0.545775D-02
      8   0.802721D-02 -0.101142D+00  0.000000D+00  0.000000D+00
      9   0.101142D+00  0.802721D-02  0.000000D+00  0.000000D+00
     10   0.000000D+00  0.000000D+00  0.000000D+00  0.000000D+00
     11   0.000000D+00  0.000000D+00  0.198588D+00 -0.214701D+00
     12   0.000000D+00  0.000000D+00  0.198588D+00 -0.214701D+00
     13   0.000000D+00  0.000000D+00 -0.106941D+01  0.375342D+00
     14   0.000000D+00  0.000000D+00  0.000000D+00  0.000000D+00
     15   0.385623D+00  0.306052D-01  0.000000D+00  0.000000D+00
     16  -0.306052D-01  0.385623D+00  0.000000D+00  0.000000D+00
 Unable to Open any file for archive entry.
 1\1\GINC-HEL11\SP\RB3LYP TD-FC\Gen\F1H1\SABYASACHI\21-Mar-2022\0\\#P T
 D(Nstates=10000) b3lyp/Gen SCF(maxcycles=100) Int(Grid=ultrafine)\\xGD
 B7_00001_tier4.com\\0,1\F,0,0.,0.,0.091801\H,0,0.,0.,-0.826212\\Versio
 n=EM64L-G16RevC.01\State=1-SG\HF=-100.3767543\RMSD=9.784e-09\PG=C*V [C
 *(H1F1)]\\@
 The archive entry for this job was punched.


 Sometimes the fool who rushes in gets the job done.
                                    -- Al Bernstein
 Job cpu time:       0 days  0 hours  0 minutes 11.7 seconds.
 Elapsed time:       0 days  0 hours  0 minutes  1.7 seconds.
 File lengths (MBytes):  RWF=     17 Int=      0 D2E=      0 Chk=      4 Scr=      1
 Normal termination of Gaussian 16 at Mon Mar 21 20:04:16 2022.
