 Entering Gaussian System, Link 0=g16
 Input=000032.com
 Output=000032.log
 Initial command:
 /home/sabyasachi/g16/l1.exe "/scratch/sabyasachi/PBS_7976034.helios/Gau-105338.inp" -scrdir="/scratch/sabyasachi/PBS_7976034.helios/"
 Entering Link 1 = /home/sabyasachi/g16/l1.exe PID=    105343.
  
 Copyright (c) 1988-2019, Gaussian, Inc.  All Rights Reserved.
  
 This is part of the Gaussian(R) 16 program.  It is based on
 the Gaussian(R) 09 system (copyright 2009, Gaussian, Inc.),
 the Gaussian(R) 03 system (copyright 2003, Gaussian, Inc.),
 the Gaussian(R) 98 system (copyright 1998, Gaussian, Inc.),
 the Gaussian(R) 94 system (copyright 1995, Gaussian, Inc.),
 the Gaussian 92(TM) system (copyright 1992, Gaussian, Inc.),
 the Gaussian 90(TM) system (copyright 1990, Gaussian, Inc.),
 the Gaussian 88(TM) system (copyright 1988, Gaussian, Inc.),
 the Gaussian 86(TM) system (copyright 1986, Carnegie Mellon
 University), and the Gaussian 82(TM) system (copyright 1983,
 Carnegie Mellon University). Gaussian is a federally registered
 trademark of Gaussian, Inc.
  
 This software contains proprietary and confidential information,
 including trade secrets, belonging to Gaussian, Inc.
  
 This software is provided under written license and may be
 used, copied, transmitted, or stored only in accord with that
 written license.
  
 The following legend is applicable only to US Government
 contracts under FAR:
  
                    RESTRICTED RIGHTS LEGEND
  
 Use, reproduction and disclosure by the US Government is
 subject to restrictions as set forth in subparagraphs (a)
 and (c) of the Commercial Computer Software - Restricted
 Rights clause in FAR 52.227-19.
  
 Gaussian, Inc.
 340 Quinnipiac St., Bldg. 40, Wallingford CT 06492
  
  
 ---------------------------------------------------------------
 Warning -- This program may not be used in any manner that
 competes with the business of Gaussian, Inc. or will provide
 assistance to any competitor of Gaussian, Inc.  The licensee
 of this program is prohibited from giving any competitor of
 Gaussian, Inc. access to this program.  By using this program,
 the user acknowledges that Gaussian, Inc. is engaged in the
 business of creating and licensing software in the field of
 computational chemistry and represents and warrants to the
 licensee that it is not a competitor of Gaussian, Inc. and that
 it will not use this program in any manner prohibited above.
 ---------------------------------------------------------------
  

 Cite this work as:
 Gaussian 16, Revision C.01,
 M. J. Frisch, G. W. Trucks, H. B. Schlegel, G. E. Scuseria, 
 M. A. Robb, J. R. Cheeseman, G. Scalmani, V. Barone, 
 G. A. Petersson, H. Nakatsuji, X. Li, M. Caricato, A. V. Marenich, 
 J. Bloino, B. G. Janesko, R. Gomperts, B. Mennucci, H. P. Hratchian, 
 J. V. Ortiz, A. F. Izmaylov, J. L. Sonnenberg, D. Williams-Young, 
 F. Ding, F. Lipparini, F. Egidi, J. Goings, B. Peng, A. Petrone, 
 T. Henderson, D. Ranasinghe, V. G. Zakrzewski, J. Gao, N. Rega, 
 G. Zheng, W. Liang, M. Hada, M. Ehara, K. Toyota, R. Fukuda, 
 J. Hasegawa, M. Ishida, T. Nakajima, Y. Honda, O. Kitao, H. Nakai, 
 T. Vreven, K. Throssell, J. A. Montgomery, Jr., J. E. Peralta, 
 F. Ogliaro, M. J. Bearpark, J. J. Heyd, E. N. Brothers, K. N. Kudin, 
 V. N. Staroverov, T. A. Keith, R. Kobayashi, J. Normand, 
 K. Raghavachari, A. P. Rendell, J. C. Burant, S. S. Iyengar, 
 J. Tomasi, M. Cossi, J. M. Millam, M. Klene, C. Adamo, R. Cammi, 
 J. W. Ochterski, R. L. Martin, K. Morokuma, O. Farkas, 
 J. B. Foresman, and D. J. Fox, Gaussian, Inc., Wallingford CT, 2019.
 
 ******************************************
 Gaussian 16:  EM64L-G16RevC.01  3-Jul-2019
                21-Mar-2022 
 ******************************************
 %mem=64gb
 %nproc=8
 Will use up to    8 processors via shared memory.
 ---------------------------------------------------------------------
 #P TD(Nstates=10000) b3lyp/Gen SCF(maxcycles=100) Int(Grid=ultrafine)
 ---------------------------------------------------------------------
 1/38=1,172=1/1;
 2/12=2,17=6,18=5,40=1/2;
 3/5=7,11=9,25=1,30=1,74=-5,75=-5/1,2,3,8;
 4//1;
 5/5=2,7=100,38=5/2;
 8/6=1,10=1,108=10000/1;
 9/41=10000,42=1,70=2/14;
 6/7=2,8=2,9=2,10=2/1;
 99/5=1,9=1/99;
 Leave Link    1 at Mon Mar 21 04:02:03 2022, MaxMem=  8589934592 cpu:               0.3 elap:               0.0
 (Enter /home/sabyasachi/g16/l101.exe)
 ---------------------
 xGDB7_00001_tier4.com
 ---------------------
 Symbolic Z-matrix:
 Charge =  0 Multiplicity = 1
 6                     0.73852  -0.39489   0.02374 
 6                    -0.73852  -0.39489   0.02374 
 7                     0.        0.84955  -0.17205 
 1                     1.27687  -0.74725  -0.84737 
 1                     1.24492  -0.55689   0.96857 
 1                    -1.24492  -0.55689   0.96857 
 1                    -1.27687  -0.74725  -0.84737 
 1                     0.        1.40008   0.67709 
 
 ITRead=  0  0  0  0  0  0  0  0
 MicOpt= -1 -1 -1 -1 -1 -1 -1 -1
 NAtoms=      8 NQM=        8 NQMF=       0 NMMI=      0 NMMIF=      0
                NMic=       0 NMicF=      0.
                    Isotopes and Nuclear Properties:
 (Nuclear quadrupole moments (NQMom) in fm**2, nuclear magnetic moments (NMagM)
  in nuclear magnetons)

  Atom         1           2           3           4           5           6           7           8
 IAtWgt=          12          12          14           1           1           1           1           1
 AtmWgt=  12.0000000  12.0000000  14.0030740   1.0078250   1.0078250   1.0078250   1.0078250   1.0078250
 NucSpn=           0           0           2           1           1           1           1           1
 AtZEff=  -0.0000000  -0.0000000  -0.0000000  -0.0000000  -0.0000000  -0.0000000  -0.0000000  -0.0000000
 NQMom=    0.0000000   0.0000000   2.0440000   0.0000000   0.0000000   0.0000000   0.0000000   0.0000000
 NMagM=    0.0000000   0.0000000   0.4037610   2.7928460   2.7928460   2.7928460   2.7928460   2.7928460
 AtZNuc=   6.0000000   6.0000000   7.0000000   1.0000000   1.0000000   1.0000000   1.0000000   1.0000000
 Leave Link  101 at Mon Mar 21 04:02:03 2022, MaxMem=  8589934592 cpu:               0.6 elap:               0.1
 (Enter /home/sabyasachi/g16/l202.exe)
                          Input orientation:                          
 ---------------------------------------------------------------------
 Center     Atomic      Atomic             Coordinates (Angstroms)
 Number     Number       Type             X           Y           Z
 ---------------------------------------------------------------------
      1          6           0        0.738519   -0.394885    0.023737
      2          6           0       -0.738519   -0.394885    0.023737
      3          7           0        0.000000    0.849548   -0.172046
      4          1           0        1.276872   -0.747254   -0.847373
      5          1           0        1.244917   -0.556892    0.968566
      6          1           0       -1.244917   -0.556892    0.968566
      7          1           0       -1.276872   -0.747254   -0.847373
      8          1           0        0.000000    1.400076    0.677088
 ---------------------------------------------------------------------
                    Distance matrix (angstroms):
                    1          2          3          4          5
     1  C    0.000000
     2  C    1.477038   0.000000
     3  N    1.460258   1.460258   0.000000
     4  H    1.082968   2.223690   2.153194   0.000000
     5  H    1.084153   2.202945   2.197473   1.826169   0.000000
     6  H    2.202945   1.084153   2.197473   3.113405   2.489834
     7  H    2.223690   1.082968   2.153194   2.553744   3.113405
     8  H    2.047966   2.047966   1.011983   2.926672   2.337627
                    6          7          8
     6  H    0.000000
     7  H    1.826169   0.000000
     8  H    2.337627   2.926672   0.000000
 Stoichiometry    C2H5N
 Framework group  CS[SG(HN),X(C2H4)]
 Deg. of freedom    10
 Full point group                 CS      NOp   2
 Largest Abelian subgroup         CS      NOp   2
 Largest concise Abelian subgroup CS      NOp   2
                         Standard orientation:                         
 ---------------------------------------------------------------------
 Center     Atomic      Atomic             Coordinates (Angstroms)
 Number     Number       Type             X           Y           Z
 ---------------------------------------------------------------------
      1          6           0        0.037922   -0.393776    0.738519
      2          6           0        0.037922   -0.393776   -0.738519
      3          7           0        0.037922    0.865964    0.000000
      4          1           0        0.953211   -0.606479    1.276872
      5          1           0       -0.870248   -0.700655    1.244917
      6          1           0       -0.870248   -0.700655   -1.244917
      7          1           0        0.953211   -0.606479   -1.276872
      8          1           0       -0.886454    1.277834    0.000000
 ---------------------------------------------------------------------
 Rotational constants (GHZ):          23.2353256          21.3975311          13.6103322
 Leave Link  202 at Mon Mar 21 04:02:03 2022, MaxMem=  8589934592 cpu:               0.1 elap:               0.0
 (Enter /home/sabyasachi/g16/l301.exe)
 General basis read from cards:  (5D, 7F)
 Centers:       4      5      6      7      8
 S 3 1.00
     Exponent=  1.3010701000D+01 Coefficients=  1.9682158000D-02
     Exponent=  1.9622572000D+00 Coefficients=  1.3796524000D-01
     Exponent=  4.4453796000D-01 Coefficients=  4.7831935000D-01
 S 1 1.00
     Exponent=  1.2194962000D-01 Coefficients=  1.0000000000D+00
 P 1 1.00
     Exponent=  8.0000000000D-01 Coefficients=  1.0000000000D+00
 P 1 1.00
     Exponent=  1.1704099050D-01 Coefficients=  1.0000000000D+00
 ****
 Centers:       1      2
 S 5 1.00
     Exponent=  1.2384016938D+03 Coefficients=  5.4568832082D-03
     Exponent=  1.8629004992D+02 Coefficients=  4.0638409211D-02
     Exponent=  4.2251176346D+01 Coefficients=  1.8025593888D-01
     Exponent=  1.1676557932D+01 Coefficients=  4.6315121755D-01
     Exponent=  3.5930506482D+00 Coefficients=  4.4087173314D-01
 S 1 1.00
     Exponent=  4.0245147363D-01 Coefficients=  1.0000000000D+00
 S 1 1.00
     Exponent=  1.3090182668D-01 Coefficients=  1.0000000000D+00
 S 1 1.00
     Exponent=  6.7053540256D-02 Coefficients=  1.0000000000D+00
 P 3 1.00
     Exponent=  9.4680970621D+00 Coefficients=  3.8387871728D-02
     Exponent=  2.0103545142D+00 Coefficients=  2.1117025112D-01
     Exponent=  5.4771004707D-01 Coefficients=  5.1328172114D-01
 P 1 1.00
     Exponent=  1.5268613795D-01 Coefficients=  1.0000000000D+00
 D 1 1.00
     Exponent=  8.0000000000D-01 Coefficients=  1.0000000000D+00
 D 1 1.00
     Exponent=  1.1713185140D-01 Coefficients=  1.0000000000D+00
 ****
 Centers:       3
 S 5 1.00
     Exponent=  1.7128415853D+03 Coefficients= -5.3934125305D-03
     Exponent=  2.5764812677D+02 Coefficients= -4.0221581118D-02
     Exponent=  5.8458245853D+01 Coefficients= -1.7931144990D-01
     Exponent=  1.6198367905D+01 Coefficients= -4.6376317823D-01
     Exponent=  5.0052600809D+00 Coefficients= -4.4171422662D-01
 S 1 1.00
     Exponent=  5.8731856571D-01 Coefficients=  1.0000000000D+00
 S 1 1.00
     Exponent=  1.8764592253D-01 Coefficients=  1.0000000000D+00
 S 1 1.00
     Exponent=  9.6171241529D-02 Coefficients=  1.0000000000D+00
 P 3 1.00
     Exponent=  1.3571470233D+01 Coefficients= -4.0072398852D-02
     Exponent=  2.9257372874D+00 Coefficients= -2.1807045028D-01
     Exponent=  7.9927750754D-01 Coefficients= -5.1294466049D-01
 P 1 1.00
     Exponent=  2.1954348034D-01 Coefficients=  1.0000000000D+00
 D 1 1.00
     Exponent=  1.0000000000D+00 Coefficients=  1.0000000000D+00
 D 1 1.00
     Exponent=  1.6697708112D-01 Coefficients=  1.0000000000D+00
 ****
 Ernie: Thresh=  0.10000D-02 Tol=  0.10000D-05 Strict=F.
 There are    60 symmetry adapted cartesian basis functions of A'  symmetry.
 There are    46 symmetry adapted cartesian basis functions of A"  symmetry.
 There are    56 symmetry adapted basis functions of A'  symmetry.
 There are    44 symmetry adapted basis functions of A"  symmetry.
   100 basis functions,   146 primitive gaussians,   106 cartesian basis functions
    12 alpha electrons       12 beta electrons
       nuclear repulsion energy        76.5239446347 Hartrees.
 IExCor=  402 DFT=T Ex+Corr=B3LYP ExCW=0 ScaHFX=  0.200000
 ScaDFX=  0.800000  0.720000  1.000000  0.810000 ScalE2=  1.000000  1.000000
 IRadAn=      5 IRanWt=     -1 IRanGd=            0 ICorTp=0 IEmpDi=  4
 NAtoms=    8 NActive=    8 NUniq=    5 SFac= 2.56D+00 NAtFMM=   60 NAOKFM=F Big=F
 Integral buffers will be    131072 words long.
 Regular integral format.
 Two-electron integral symmetry is turned on.
 Leave Link  301 at Mon Mar 21 04:02:03 2022, MaxMem=  8589934592 cpu:               0.5 elap:               0.1
 (Enter /home/sabyasachi/g16/l302.exe)
 NPDir=0 NMtPBC=     1 NCelOv=     1 NCel=       1 NClECP=     1 NCelD=      1
         NCelK=      1 NCelE2=     1 NClLst=     1 CellRange=     0.0.
 One-electron integrals computed using PRISM.
 One-electron integral symmetry used in STVInt
 NBasis=   100 RedAO= T EigKep=  1.39D-04  NBF=    56    44
 NBsUse=   100 1.00D-06 EigRej= -1.00D+00 NBFU=    56    44
 Precomputing XC quadrature grid using
 IXCGrd= 4 IRadAn=           5 IRanWt=          -1 IRanGd=           0 AccXCQ= 0.00D+00.
 Generated NRdTot=       0 NPtTot=           0 NUsed=           0 NTot=          32
 NSgBfM=   106   106   106   106   106 MxSgAt=     8 MxSgA2=     8.
 Leave Link  302 at Mon Mar 21 04:02:03 2022, MaxMem=  8589934592 cpu:               1.0 elap:               0.1
 (Enter /home/sabyasachi/g16/l303.exe)
 DipDrv:  MaxL=1.
 Leave Link  303 at Mon Mar 21 04:02:03 2022, MaxMem=  8589934592 cpu:               0.2 elap:               0.0
 (Enter /home/sabyasachi/g16/l308.exe)
 Leave Link  308 at Mon Mar 21 04:02:03 2022, MaxMem=  8589934592 cpu:               0.2 elap:               0.0
 (Enter /home/sabyasachi/g16/l401.exe)
 ExpMin= 6.71D-02 ExpMax= 1.71D+03 ExpMxC= 2.58D+02 IAcc=3 IRadAn=         5 AccDes= 0.00D+00
 Harris functional with IExCor=  402 and IRadAn=       5 diagonalized for initial guess.
 HarFok:  IExCor=  402 AccDes= 0.00D+00 IRadAn=         5 IDoV= 1 UseB2=F ITyADJ=14
 ICtDFT=  3500011 ScaDFX=  1.000000  1.000000  1.000000  1.000000
 FoFCou: FMM=F IPFlag=           0 FMFlag=      100000 FMFlg1=           0
         NFxFlg=           0 DoJE=T BraDBF=F KetDBF=T FulRan=T
         wScrn=  0.000000 ICntrl=       500 IOpCl=  0 I1Cent=   200000004 NGrid=           0
         NMat0=    1 NMatS0=      1 NMatT0=    0 NMatD0=    1 NMtDS0=    0 NMtDT0=    0
 Petite list used in FoFCou.
 Harris En= -133.834502690340    
 JPrj=0 DoOrth=F DoCkMO=F.
 Initial guess orbital symmetries:
       Occupied  (A') (A') (A") (A') (A') (A") (A') (A') (A") (A")
                 (A') (A')
       Virtual   (A') (A") (A') (A") (A') (A') (A") (A') (A") (A")
                 (A') (A') (A') (A') (A") (A") (A') (A') (A") (A')
                 (A') (A") (A") (A') (A") (A") (A') (A') (A") (A')
                 (A') (A") (A') (A") (A") (A') (A') (A') (A") (A")
                 (A') (A") (A") (A') (A") (A') (A") (A') (A') (A")
                 (A') (A') (A") (A') (A") (A') (A") (A') (A") (A')
                 (A') (A') (A') (A") (A') (A") (A") (A') (A") (A')
                 (A") (A') (A") (A') (A') (A') (A") (A") (A') (A")
                 (A") (A') (A') (A") (A') (A") (A") (A')
 The electronic state of the initial guess is 1-A'.
 Leave Link  401 at Mon Mar 21 04:02:03 2022, MaxMem=  8589934592 cpu:               2.0 elap:               0.3
 (Enter /home/sabyasachi/g16/l502.exe)
 Keep R1 ints in memory in symmetry-blocked form, NReq=20212953.
 FoFCou: FMM=F IPFlag=           0 FMFlag=           0 FMFlg1=           0
         NFxFlg=           0 DoJE=F BraDBF=F KetDBF=F FulRan=T
         wScrn=  0.000000 ICntrl=       600 IOpCl=  0 I1Cent=           0 NGrid=           0
         NMat0=    1 NMatS0=   5050 NMatT0=    0 NMatD0=    1 NMtDS0=    0 NMtDT0=    0
 Petite list used in FoFCou.
 Closed shell SCF:
 Using DIIS extrapolation, IDIIS=  1040.
 NGot=  8589934592 LenX=  8583516801 LenY=  8583505124
 Requested convergence on RMS density matrix=1.00D-08 within 100 cycles.
 Requested convergence on MAX density matrix=1.00D-06.
 Requested convergence on             energy=1.00D-06.
 No special actions if energy rises.
 Integral accuracy reduced to 1.0D-05 until final iterations.

 Cycle   1  Pass 0  IDiag  1:
 E= -133.758946789873    
 DIIS: error= 2.32D-02 at cycle   1 NSaved=   1.
 NSaved= 1 IEnMin= 1 EnMin= -133.758946789873     IErMin= 1 ErrMin= 2.32D-02
 ErrMax= 2.32D-02  0.00D+00 EMaxC= 1.00D-01 BMatC= 6.91D-02 BMatP= 6.91D-02
 IDIUse=3 WtCom= 7.68D-01 WtEn= 2.32D-01
 Coeff-Com:  0.100D+01
 Coeff-En:   0.100D+01
 Coeff:      0.100D+01
 Gap=     0.200 Goal=   None    Shift=    0.000
 GapD=    0.200 DampG=1.000 DampE=0.500 DampFc=0.5000 IDamp=-1.
 Damping current iteration by 5.00D-01
 RMSDP=1.23D-02 MaxDP=5.16D-01              OVMax= 1.52D-01

 Cycle   2  Pass 0  IDiag  1:
 E= -133.789351541148     Delta-E=       -0.030404751276 Rises=F Damp=T
 DIIS: error= 5.70D-03 at cycle   2 NSaved=   2.
 NSaved= 2 IEnMin= 2 EnMin= -133.789351541148     IErMin= 2 ErrMin= 5.70D-03
 ErrMax= 5.70D-03  0.00D+00 EMaxC= 1.00D-01 BMatC= 5.05D-03 BMatP= 6.91D-02
 IDIUse=3 WtCom= 9.43D-01 WtEn= 5.70D-02
 Coeff-Com:  0.117D+00 0.883D+00
 Coeff-En:   0.190D+00 0.810D+00
 Coeff:      0.121D+00 0.879D+00
 Gap=     0.282 Goal=   None    Shift=    0.000
 RMSDP=2.72D-03 MaxDP=6.90D-02 DE=-3.04D-02 OVMax= 9.54D-02

 Cycle   3  Pass 0  IDiag  1:
 E= -133.833596124029     Delta-E=       -0.044244582880 Rises=F Damp=F
 DIIS: error= 3.18D-03 at cycle   3 NSaved=   3.
 NSaved= 3 IEnMin= 3 EnMin= -133.833596124029     IErMin= 3 ErrMin= 3.18D-03
 ErrMax= 3.18D-03  0.00D+00 EMaxC= 1.00D-01 BMatC= 1.69D-03 BMatP= 5.05D-03
 IDIUse=3 WtCom= 9.68D-01 WtEn= 3.18D-02
 Coeff-Com:  0.349D-02 0.345D+00 0.652D+00
 Coeff-En:   0.000D+00 0.000D+00 0.100D+01
 Coeff:      0.338D-02 0.334D+00 0.663D+00
 Gap=     0.276 Goal=   None    Shift=    0.000
 RMSDP=8.78D-04 MaxDP=2.63D-02 DE=-4.42D-02 OVMax= 1.87D-02

 Cycle   4  Pass 0  IDiag  1:
 E= -133.834571335265     Delta-E=       -0.000975211237 Rises=F Damp=F
 DIIS: error= 1.92D-03 at cycle   4 NSaved=   4.
 NSaved= 4 IEnMin= 4 EnMin= -133.834571335265     IErMin= 4 ErrMin= 1.92D-03
 ErrMax= 1.92D-03  0.00D+00 EMaxC= 1.00D-01 BMatC= 5.54D-04 BMatP= 1.69D-03
 IDIUse=3 WtCom= 9.81D-01 WtEn= 1.92D-02
 Coeff-Com: -0.862D-02 0.114D+00 0.388D+00 0.507D+00
 Coeff-En:   0.000D+00 0.000D+00 0.250D+00 0.750D+00
 Coeff:     -0.846D-02 0.112D+00 0.385D+00 0.511D+00
 Gap=     0.279 Goal=   None    Shift=    0.000
 RMSDP=3.91D-04 MaxDP=1.58D-02 DE=-9.75D-04 OVMax= 8.27D-03

 Cycle   5  Pass 0  IDiag  1:
 E= -133.835053159901     Delta-E=       -0.000481824635 Rises=F Damp=F
 DIIS: error= 2.70D-04 at cycle   5 NSaved=   5.
 NSaved= 5 IEnMin= 5 EnMin= -133.835053159901     IErMin= 5 ErrMin= 2.70D-04
 ErrMax= 2.70D-04  0.00D+00 EMaxC= 1.00D-01 BMatC= 1.14D-05 BMatP= 5.54D-04
 IDIUse=3 WtCom= 9.97D-01 WtEn= 2.70D-03
 Coeff-Com: -0.379D-02 0.523D-02 0.599D-01 0.172D+00 0.767D+00
 Coeff-En:   0.000D+00 0.000D+00 0.000D+00 0.000D+00 0.100D+01
 Coeff:     -0.378D-02 0.522D-02 0.597D-01 0.171D+00 0.768D+00
 Gap=     0.279 Goal=   None    Shift=    0.000
 RMSDP=7.26D-05 MaxDP=2.87D-03 DE=-4.82D-04 OVMax= 9.45D-04

 Cycle   6  Pass 0  IDiag  1:
 E= -133.835062767715     Delta-E=       -0.000009607815 Rises=F Damp=F
 DIIS: error= 6.23D-06 at cycle   6 NSaved=   6.
 NSaved= 6 IEnMin= 6 EnMin= -133.835062767715     IErMin= 6 ErrMin= 6.23D-06
 ErrMax= 6.23D-06  0.00D+00 EMaxC= 1.00D-01 BMatC= 7.40D-09 BMatP= 1.14D-05
 IDIUse=1 WtCom= 1.00D+00 WtEn= 0.00D+00
 Coeff-Com: -0.202D-03-0.385D-03 0.148D-02 0.100D-01 0.574D-01 0.932D+00
 Coeff:     -0.202D-03-0.385D-03 0.148D-02 0.100D-01 0.574D-01 0.932D+00
 Gap=     0.279 Goal=   None    Shift=    0.000
 RMSDP=3.67D-06 MaxDP=8.89D-05 DE=-9.61D-06 OVMax= 2.89D-05

 Initial convergence to 1.0D-05 achieved.  Increase integral accuracy.
 Cycle   7  Pass 1  IDiag  1:
 E= -133.835056917902     Delta-E=        0.000005849813 Rises=F Damp=F
 DIIS: error= 3.15D-06 at cycle   1 NSaved=   1.
 NSaved= 1 IEnMin= 1 EnMin= -133.835056917902     IErMin= 1 ErrMin= 3.15D-06
 ErrMax= 3.15D-06  0.00D+00 EMaxC= 1.00D-01 BMatC= 1.61D-09 BMatP= 1.61D-09
 IDIUse=1 WtCom= 1.00D+00 WtEn= 0.00D+00
 Coeff-Com:  0.100D+01
 Coeff:      0.100D+01
 Gap=     0.279 Goal=   None    Shift=    0.000
 RMSDP=3.67D-06 MaxDP=8.89D-05 DE= 5.85D-06 OVMax= 2.26D-05

 Cycle   8  Pass 1  IDiag  1:
 E= -133.835056919847     Delta-E=       -0.000000001945 Rises=F Damp=F
 DIIS: error= 2.11D-06 at cycle   2 NSaved=   2.
 NSaved= 2 IEnMin= 2 EnMin= -133.835056919847     IErMin= 2 ErrMin= 2.11D-06
 ErrMax= 2.11D-06  0.00D+00 EMaxC= 1.00D-01 BMatC= 5.24D-10 BMatP= 1.61D-09
 IDIUse=1 WtCom= 1.00D+00 WtEn= 0.00D+00
 Coeff-Com:  0.330D+00 0.670D+00
 Coeff:      0.330D+00 0.670D+00
 Gap=     0.279 Goal=   None    Shift=    0.000
 RMSDP=6.29D-07 MaxDP=2.00D-05 DE=-1.94D-09 OVMax= 9.82D-06

 Cycle   9  Pass 1  IDiag  1:
 E= -133.835056920218     Delta-E=       -0.000000000371 Rises=F Damp=F
 DIIS: error= 9.95D-07 at cycle   3 NSaved=   3.
 NSaved= 3 IEnMin= 3 EnMin= -133.835056920218     IErMin= 3 ErrMin= 9.95D-07
 ErrMax= 9.95D-07  0.00D+00 EMaxC= 1.00D-01 BMatC= 1.66D-10 BMatP= 5.24D-10
 IDIUse=1 WtCom= 1.00D+00 WtEn= 0.00D+00
 Coeff-Com:  0.698D-01 0.364D+00 0.567D+00
 Coeff:      0.698D-01 0.364D+00 0.567D+00
 Gap=     0.279 Goal=   None    Shift=    0.000
 RMSDP=2.61D-07 MaxDP=1.09D-05 DE=-3.71D-10 OVMax= 4.67D-06

 Cycle  10  Pass 1  IDiag  1:
 E= -133.835056920343     Delta-E=       -0.000000000125 Rises=F Damp=F
 DIIS: error= 3.43D-07 at cycle   4 NSaved=   4.
 NSaved= 4 IEnMin= 4 EnMin= -133.835056920343     IErMin= 4 ErrMin= 3.43D-07
 ErrMax= 3.43D-07  0.00D+00 EMaxC= 1.00D-01 BMatC= 1.61D-11 BMatP= 1.66D-10
 IDIUse=1 WtCom= 1.00D+00 WtEn= 0.00D+00
 Coeff-Com: -0.148D-01 0.912D-01 0.291D+00 0.633D+00
 Coeff:     -0.148D-01 0.912D-01 0.291D+00 0.633D+00
 Gap=     0.279 Goal=   None    Shift=    0.000
 RMSDP=7.73D-08 MaxDP=2.39D-06 DE=-1.25D-10 OVMax= 1.46D-06

 Cycle  11  Pass 1  IDiag  1:
 E= -133.835056920357     Delta-E=       -0.000000000015 Rises=F Damp=F
 DIIS: error= 5.25D-08 at cycle   5 NSaved=   5.
 NSaved= 5 IEnMin= 5 EnMin= -133.835056920357     IErMin= 5 ErrMin= 5.25D-08
 ErrMax= 5.25D-08  0.00D+00 EMaxC= 1.00D-01 BMatC= 3.13D-13 BMatP= 1.61D-11
 IDIUse=1 WtCom= 1.00D+00 WtEn= 0.00D+00
 Coeff-Com: -0.746D-02 0.321D-01 0.111D+00 0.281D+00 0.583D+00
 Coeff:     -0.746D-02 0.321D-01 0.111D+00 0.281D+00 0.583D+00
 Gap=     0.279 Goal=   None    Shift=    0.000
 RMSDP=1.25D-08 MaxDP=4.60D-07 DE=-1.47D-11 OVMax= 1.65D-07

 Cycle  12  Pass 1  IDiag  1:
 E= -133.835056920358     Delta-E=       -0.000000000000 Rises=F Damp=F
 DIIS: error= 1.31D-08 at cycle   6 NSaved=   6.
 NSaved= 6 IEnMin= 6 EnMin= -133.835056920358     IErMin= 6 ErrMin= 1.31D-08
 ErrMax= 1.31D-08  0.00D+00 EMaxC= 1.00D-01 BMatC= 2.20D-14 BMatP= 3.13D-13
 IDIUse=1 WtCom= 1.00D+00 WtEn= 0.00D+00
 Coeff-Com: -0.148D-02 0.284D-02 0.123D-01 0.509D-01 0.236D+00 0.700D+00
 Coeff:     -0.148D-02 0.284D-02 0.123D-01 0.509D-01 0.236D+00 0.700D+00
 Gap=     0.279 Goal=   None    Shift=    0.000
 RMSDP=2.82D-09 MaxDP=3.53D-08 DE=-2.84D-13 OVMax= 4.61D-08

 SCF Done:  E(RB3LYP) =  -133.835056920     A.U. after   12 cycles
            NFock= 12  Conv=0.28D-08     -V/T= 2.0111
 KE= 1.323631266776D+02 PE=-4.630303584689D+02 EE= 1.203082302362D+02
 Leave Link  502 at Mon Mar 21 04:02:05 2022, MaxMem=  8589934592 cpu:              11.7 elap:               1.5
 (Enter /home/sabyasachi/g16/l801.exe)
 DoSCS=F DFT=T ScalE2(SS,OS)=  1.000000  1.000000
 ExpMin= 6.71D-02 ExpMax= 1.71D+03 ExpMxC= 2.58D+02 IAcc=3 IRadAn=         5 AccDes= 0.00D+00
 HarFok:  IExCor=  205 AccDes= 0.00D+00 IRadAn=         5 IDoV=-2 UseB2=F ITyADJ=14
 ICtDFT= 12500011 ScaDFX=  1.000000  1.000000  1.000000  1.000000
 Largest valence mixing into a core orbital is  7.37D-05
 Largest core mixing into a valence orbital is  1.73D-05
 Range of M.O.s used for correlation:     4   100
 NBasis=   100 NAE=    12 NBE=    12 NFC=     3 NFV=     0
 NROrb=     97 NOA=     9 NOB=     9 NVA=    88 NVB=    88

 **** Warning!!: The largest alpha MO coefficient is  0.31776531D+02

 Leave Link  801 at Mon Mar 21 04:02:05 2022, MaxMem=  8589934592 cpu:               0.5 elap:               0.1
 (Enter /home/sabyasachi/g16/l914.exe)
 RHF ground state
 Keep R1, R2, and R3 ints in memory in symmetry-blocked form, NReq=743852803.
 FoFCou: FMM=F IPFlag=           0 FMFlag=           0 FMFlg1=           0
         NFxFlg=           0 DoJE=F BraDBF=F KetDBF=F FulRan=T
         wScrn=  0.000000 ICntrl=       600 IOpCl=  0 I1Cent=           0 NGrid=           0
         NMat0=    1 NMatS0=   5050 NMatT0=    0 NMatD0=    1 NMtDS0=    0 NMtDT0=    0
 Petite list used in FoFCou.
 MDV=  8589934592 DFT=T DoStab=F Mixed=T DoRPA=T DoScal=F NonHer=T
 Making orbital integer symmetry assigments:
 Orbital symmetries:
       Occupied  (A') (A') (A") (A') (A') (A") (A') (A') (A") (A")
                 (A') (A')
       Virtual   (A') (A") (A') (A') (A") (A') (A") (A') (A") (A")
                 (A') (A') (A') (A") (A') (A') (A") (A') (A") (A')
                 (A') (A") (A") (A") (A') (A') (A') (A") (A") (A")
                 (A') (A') (A') (A") (A") (A') (A') (A") (A') (A")
                 (A') (A") (A") (A') (A") (A') (A") (A') (A') (A")
                 (A') (A') (A") (A') (A") (A') (A") (A') (A") (A')
                 (A') (A') (A') (A") (A') (A") (A") (A') (A") (A')
                 (A") (A') (A") (A') (A') (A') (A") (A") (A') (A")
                 (A") (A') (A') (A") (A') (A") (A") (A')
   792 initial guesses have been made.
 Convergence on wavefunction:    0.001000000000000
 Davidson Disk Diagonalization:  ConvIn= 1.00D-03 SkipCon=T Conv= 1.00D-03.
 Max sub-space:  4752 roots to seek:  1584 dimension of matrix:         1584
 *** WARNING: Number of orthogonal guesses is          792
 Iteration     1 Dimension   792 NMult     0 NNew    792
 CISAX will form   792 AO SS matrices at one time.
 NMat=   792 NSing=   792 JSym2X=-1.
 New state      2 was old state      3
 New state      3 was old state      2
 New state      5 was old state      6
 New state      6 was old state      5
 New state      7 was old state      8
 New state      8 was old state      7
 New state      9 was old state     10
 New state     10 was old state      9
 New state     12 was old state     13
 New state     13 was old state     14
 New state     14 was old state     15
 New state     15 was old state     12
 New state     17 was old state     19
 New state     18 was old state     20
 New state     19 was old state     17
 New state     20 was old state     18
 New state     24 was old state     26
 New state     26 was old state     24
 New state     27 was old state     28
 New state     28 was old state     31
 New state     29 was old state     30
 New state     30 was old state     27
 New state     31 was old state     29
 New state     33 was old state     34
 New state     34 was old state     37
 New state     37 was old state     33
 New state     39 was old state     40
 New state     40 was old state     39
 New state     44 was old state     47
 New state     45 was old state     44
 New state     46 was old state     45
 New state     47 was old state     46
 New state     50 was old state     51
 New state     51 was old state     50
 New state     53 was old state     54
 New state     54 was old state     55
 New state     55 was old state     56
 New state     56 was old state     59
 New state     57 was old state     58
 New state     58 was old state     65
 New state     59 was old state     53
 New state     60 was old state     57
 New state     62 was old state     60
 New state     64 was old state     62
 New state     65 was old state     66
 New state     66 was old state     69
 New state     67 was old state     64
 New state     69 was old state     67
 New state     70 was old state     73
 New state     71 was old state     70
 New state     72 was old state     71
 New state     73 was old state     72
 New state     76 was old state     77
 New state     77 was old state     83
 New state     78 was old state     76
 New state     79 was old state     78
 New state     81 was old state     79
 New state     82 was old state     81
 New state     83 was old state     82
 New state     85 was old state     87
 New state     87 was old state     88
 New state     88 was old state     89
 New state     89 was old state     85
 New state     92 was old state     93
 New state     93 was old state     95
 New state     94 was old state     97
 New state     95 was old state     94
 New state     96 was old state     99
 New state     97 was old state     96
 New state     99 was old state     92
 New state    100 was old state    101
 New state    101 was old state    108
 New state    102 was old state    107
 New state    104 was old state    102
 New state    105 was old state    100
 New state    106 was old state    104
 New state    107 was old state    106
 New state    108 was old state    110
 New state    110 was old state    112
 New state    112 was old state    113
 New state    113 was old state    105
 New state    114 was old state    117
 New state    115 was old state    118
 New state    116 was old state    119
 New state    117 was old state    115
 New state    118 was old state    114
 New state    119 was old state    120
 New state    120 was old state    116
 New state    121 was old state    123
 New state    122 was old state    125
 New state    123 was old state    121
 New state    124 was old state    126
 New state    125 was old state    124
 New state    126 was old state    127
 New state    127 was old state    122
 New state    128 was old state    129
 New state    129 was old state    130
 New state    130 was old state    131
 New state    131 was old state    132
 New state    132 was old state    128
 New state    134 was old state    135
 New state    135 was old state    136
 New state    136 was old state    134
 New state    138 was old state    139
 New state    139 was old state    138
 New state    140 was old state    142
 New state    141 was old state    140
 New state    142 was old state    146
 New state    143 was old state    141
 New state    144 was old state    145
 New state    145 was old state    148
 New state    146 was old state    143
 New state    148 was old state    149
 New state    149 was old state    152
 New state    150 was old state    151
 New state    151 was old state    158
 New state    152 was old state    156
 New state    154 was old state    155
 New state    155 was old state    160
 New state    156 was old state    154
 New state    158 was old state    150
 New state    160 was old state    161
 New state    161 was old state    184
 New state    162 was old state    163
 New state    163 was old state    162
 New state    164 was old state    166
 New state    165 was old state    168
 New state    166 was old state    165
 New state    167 was old state    164
 New state    168 was old state    172
 New state    169 was old state    173
 New state    170 was old state    171
 New state    171 was old state    175
 New state    172 was old state    167
 New state    173 was old state    170
 New state    175 was old state    178
 New state    176 was old state    177
 New state    177 was old state    176
 New state    178 was old state    180
 New state    180 was old state    182
 New state    181 was old state    183
 New state    182 was old state    186
 New state    183 was old state    181
 New state    184 was old state    187
 New state    186 was old state    191
 New state    187 was old state    188
 New state    188 was old state    189
 New state    189 was old state    194
 New state    190 was old state    196
 New state    191 was old state    193
 New state    193 was old state    190
 New state    194 was old state    197
 New state    196 was old state    207
 New state    197 was old state    198
 New state    198 was old state    200
 New state    199 was old state    202
 New state    200 was old state    215
 New state    201 was old state    199
 New state    202 was old state    201
 New state    204 was old state    210
 New state    205 was old state    204
 New state    206 was old state    208
 New state    207 was old state    206
 New state    208 was old state    205
 New state    209 was old state    213
 New state    210 was old state    209
 New state    213 was old state    224
 New state    215 was old state    216
 New state    216 was old state    219
 New state    217 was old state    218
 New state    218 was old state    217
 New state    219 was old state    221
 New state    220 was old state    225
 New state    221 was old state    223
 New state    223 was old state    226
 New state    224 was old state    227
 New state    225 was old state    220
 New state    226 was old state    231
 New state    227 was old state    240
 New state    228 was old state    229
 New state    229 was old state    228
 New state    231 was old state    232
 New state    232 was old state    234
 New state    233 was old state    237
 New state    234 was old state    235
 New state    235 was old state    236
 New state    236 was old state    238
 New state    237 was old state    233
 New state    238 was old state    239
 New state    239 was old state    242
 New state    240 was old state    241
 New state    241 was old state    246
 New state    242 was old state    253
 New state    244 was old state    247
 New state    245 was old state    248
 New state    246 was old state    254
 New state    247 was old state    244
 New state    248 was old state    249
 New state    249 was old state    252
 New state    250 was old state    251
 New state    251 was old state    250
 New state    252 was old state    258
 New state    253 was old state    257
 New state    254 was old state    261
 New state    257 was old state    263
 New state    258 was old state    259
 New state    259 was old state    262
 New state    261 was old state    264
 New state    262 was old state    265
 New state    263 was old state    266
 New state    264 was old state    275
 New state    265 was old state    269
 New state    266 was old state    268
 New state    267 was old state    270
 New state    268 was old state    267
 New state    269 was old state    271
 New state    270 was old state    274
 New state    271 was old state    273
 New state    273 was old state    277
 New state    274 was old state    278
 New state    275 was old state    276
 New state    276 was old state    290
 New state    277 was old state    279
 New state    278 was old state    281
 New state    279 was old state    283
 New state    280 was old state    286
 New state    281 was old state    280
 New state    282 was old state    285
 New state    283 was old state    282
 No map to state    284
 New state    285 was old state    287
 New state    286 was old state    284
 New state    287 was old state    291
 No map to state    290
 New state    291 was old state    292
 New state    292 was old state    293
 New state    293 was old state    294
 New state    294 was old state    295
 New state    295 was old state    298
 New state    296 was old state    299
 New state    298 was old state    296
 New state    299 was old state    304
 New state    300 was old state    301
 New state    301 was old state    300
 New state    304 was old state    305
 New state    305 was old state    309
 New state    306 was old state    307
 New state    307 was old state    306
 New state    309 was old state    319
 New state    310 was old state    311
 New state    311 was old state    310
 New state    312 was old state    315
 New state    313 was old state    312
 New state    315 was old state    316
 New state    316 was old state    317
 New state    317 was old state    318
 New state    318 was old state    313
 New state    319 was old state    324
 New state    320 was old state    321
 New state    321 was old state    320
 New state    324 was old state    326
 New state    326 was old state    329
 New state    328 was old state    330
 New state    329 was old state    328
 New state    330 was old state    335
 New state    335 was old state    340
 New state    336 was old state    338
 New state    337 was old state    341
 New state    338 was old state    336
 New state    339 was old state    337
 New state    340 was old state    339
 New state    341 was old state    342
 New state    342 was old state    343
 New state    343 was old state    347
 New state    344 was old state    345
 New state    345 was old state    344
 New state    346 was old state    349
 New state    347 was old state    351
 New state    348 was old state    346
 New state    349 was old state    350
 New state    350 was old state    355
 New state    351 was old state    352
 New state    352 was old state    353
 New state    353 was old state    357
 New state    354 was old state    348
 New state    355 was old state    362
 New state    357 was old state    354
 New state    360 was old state    367
 New state    362 was old state    360
 New state    363 was old state    365
 New state    364 was old state    363
 New state    365 was old state    364
 New state    367 was old state    374
 New state    368 was old state    370
 New state    370 was old state    368
 New state    372 was old state    378
 New state    373 was old state    376
 New state    374 was old state    373
 New state    376 was old state    377
 New state    377 was old state    380
 New state    378 was old state    372
 New state    379 was old state    383
 New state    380 was old state    379
 New state    381 was old state    382
 New state    382 was old state    385
 New state    383 was old state    381
 New state    384 was old state    386
 New state    385 was old state    387
 New state    386 was old state    384
 New state    387 was old state    388
 New state    388 was old state    390
 New state    390 was old state    396
 New state    393 was old state    395
 New state    394 was old state    393
 New state    395 was old state    398
 New state    396 was old state    415
 New state    398 was old state    399
 New state    399 was old state    411
 New state    400 was old state    401
 New state    401 was old state    403
 New state    402 was old state    400
 New state    403 was old state    405
 New state    404 was old state    402
 New state    405 was old state    407
 New state    406 was old state    404
 New state    407 was old state    412
 New state    408 was old state    409
 New state    409 was old state    406
 New state    411 was old state    408
 New state    412 was old state    417
 New state    415 was old state    416
 New state    416 was old state    421
 New state    417 was old state    420
 New state    420 was old state    424
 New state    421 was old state    422
 New state    422 was old state    423
 New state    423 was old state    433
 New state    424 was old state    428
 New state    426 was old state    427
 New state    427 was old state    426
 New state    428 was old state    429
 New state    429 was old state    432
 New state    430 was old state    431
 New state    431 was old state    430
 New state    432 was old state    434
 New state    433 was old state    435
 New state    434 was old state    437
 New state    435 was old state    436
 New state    436 was old state    438
 New state    437 was old state    439
 New state    438 was old state    441
 No map to state    439
 New state    441 was old state    447
 New state    442 was old state    448
 New state    443 was old state    444
 New state    444 was old state    443
 New state    445 was old state    442
 New state    446 was old state    445
 New state    447 was old state    446
 New state    448 was old state    455
 New state    450 was old state    452
 New state    451 was old state    450
 New state    452 was old state    453
 New state    453 was old state    451
 New state    454 was old state    456
 New state    455 was old state    457
 New state    456 was old state    454
 New state    457 was old state    458
 New state    458 was old state    461
 New state    459 was old state    460
 New state    460 was old state    462
 New state    461 was old state    459
 New state    462 was old state    464
 New state    464 was old state    469
 New state    469 was old state    470
 New state    470 was old state    485
 New state    471 was old state    472
 New state    472 was old state    471
 New state    473 was old state    475
 New state    474 was old state    473
 New state    475 was old state    474
 New state    477 was old state    478
 New state    478 was old state    477
 New state    480 was old state    482
 New state    482 was old state    480
 New state    484 was old state    486
 New state    485 was old state    484
 New state    486 was old state    490
 New state    488 was old state    489
 New state    489 was old state    494
 New state    490 was old state    488
 New state    491 was old state    492
 New state    492 was old state    491
 New state    493 was old state    496
 New state    494 was old state    493
 New state    496 was old state    497
 New state    497 was old state    498
 New state    498 was old state    500
 New state    500 was old state    506
 New state    506 was old state    507
 New state    507 was old state    510
 New state    509 was old state    512
 New state    510 was old state    509
 New state    512 was old state    514
 New state    514 was old state    517
 New state    517 was old state    518
 New state    518 was old state    519
 New state    519 was old state    520
 New state    520 was old state    522
 No map to state    521
 New state    522 was old state    524
 New state    523 was old state    521
 New state    524 was old state    525
 New state    525 was old state    523
 New state    530 was old state    532
 New state    531 was old state    530
 New state    532 was old state    534
 New state    534 was old state    531
 New state    536 was old state    537
 New state    537 was old state    536
 New state    538 was old state    541
 New state    540 was old state    538
 New state    541 was old state    542
 New state    542 was old state    540
 New state    543 was old state    544
 New state    544 was old state    543
 New state    545 was old state    546
 New state    546 was old state    545
 New state    547 was old state    548
 New state    548 was old state    547
 New state    551 was old state    552
 New state    552 was old state    551
 New state    560 was old state    561
 New state    561 was old state    560
 New state    562 was old state    564
 New state    563 was old state    562
 New state    564 was old state    563
 New state    567 was old state    568
 New state    568 was old state    567
 New state    576 was old state    577
 New state    577 was old state    576
 New state    578 was old state    579
 New state    579 was old state    578
 New state    584 was old state    585
 New state    585 was old state    584
 New state    595 was old state    596
 New state    596 was old state    595
 New state    598 was old state    599
 New state    599 was old state    600
 New state    600 was old state    598
 New state    602 was old state    605
 New state    603 was old state    602
 New state    604 was old state    603
 New state    605 was old state    606
 New state    606 was old state    604
 New state    607 was old state    608
 New state    608 was old state    607
 New state    610 was old state    612
 New state    611 was old state    610
 New state    612 was old state    611
 New state    614 was old state    615
 New state    615 was old state    616
 New state    616 was old state    614
 New state    617 was old state    618
 New state    618 was old state    617
 New state    622 was old state    623
 New state    623 was old state    624
 New state    624 was old state    625
 New state    625 was old state    622
 New state    626 was old state    627
 New state    627 was old state    626
 New state    630 was old state    631
 New state    631 was old state    630
 New state    637 was old state    639
 New state    638 was old state    637
 New state    639 was old state    638
 New state    645 was old state    646
 New state    646 was old state    645
 New state    651 was old state    652
 New state    652 was old state    651
 New state    661 was old state    662
 New state    662 was old state    661
 New state    666 was old state    667
 New state    667 was old state    666
 New state    668 was old state    669
 New state    669 was old state    668
 New state    680 was old state    681
 New state    681 was old state    680
 New state    682 was old state    683
 New state    683 was old state    682
 New state    684 was old state    685
 New state    685 was old state    684
 New state    694 was old state    695
 New state    695 was old state    694
 New state    697 was old state    698
 New state    698 was old state    697
 New state    699 was old state    700
 New state    700 was old state    699
 New state    737 was old state    739
 New state    738 was old state    737
 New state    739 was old state    740
 New state    740 was old state    743
 New state    741 was old state    742
 New state    742 was old state    738
 New state    743 was old state    741
 New state    747 was old state    748
 New state    748 was old state    747
 New state    756 was old state    758
 New state    757 was old state    756
 New state    758 was old state    757
 New state    768 was old state    769
 New state    769 was old state    768
 New state    773 was old state    774
 New state    774 was old state    775
 New state    775 was old state    773
 New state    777 was old state    778
 New state    778 was old state    777
 New state    788 was old state    789
 New state    789 was old state    788
 Excitation Energies [eV] at current iteration:
 Root      1 :     6.480399639157153
 Root      2 :     7.261192556368749
 Root      3 :     7.297299020485637
 Root      4 :     8.028889636380487
 Root      5 :     8.686370518711547
 Root      6 :     8.784224779895954
 Root      7 :     9.103411663785872
 Root      8 :     9.111003595881300
 Root      9 :     9.579751574611176
 Root     10 :     9.585829279291008
 Root     11 :     9.710242866482979
 Root     12 :     9.837774110976854
 Root     13 :     9.884513231095305
 Root     14 :     9.930841165891946
 Root     15 :     9.961316891497479
 Root     16 :    10.282200606820930
 Root     17 :    10.532958215444510
 Root     18 :    10.605412693273920
 Root     19 :    10.637973809508600
 Root     20 :    10.689290268480240
 Root     21 :    11.023661675937060
 Root     22 :    11.113440697372650
 Root     23 :    11.258357158743030
 Root     24 :    11.318216412779410
 Root     25 :    11.460814263755840
 Root     26 :    11.485604500264320
 Root     27 :    11.709472047495410
 Root     28 :    11.784493268701880
 Root     29 :    11.870220251301600
 Root     30 :    11.898820245412130
 Root     31 :    11.944362867907080
 Root     32 :    12.293907939014230
 Root     33 :    12.455735860789200
 Root     34 :    12.491487329517790
 Root     35 :    12.508472339785460
 Root     36 :    12.522856523834530
 Root     37 :    12.533712942023730
 Root     38 :    12.873172198110230
 Root     39 :    12.973683719486850
 Root     40 :    13.132327782376250
 Root     41 :    13.218351976818020
 Root     42 :    13.259149259965180
 Root     43 :    13.291585954492250
 Root     44 :    13.360524255181820
 Root     45 :    13.379627108570430
 Root     46 :    13.392212696672800
 Root     47 :    13.543468478339840
 Root     48 :    13.626165761348680
 Root     49 :    13.646798827458600
 Root     50 :    13.716262604060320
 Root     51 :    13.770783059504510
 Root     52 :    13.999377350690530
 Root     53 :    14.007952853411410
 Root     54 :    14.122559169544560
 Root     55 :    14.319759786887080
 Root     56 :    14.347004672267260
 Root     57 :    14.377581309520240
 Root     58 :    14.411148431999170
 Root     59 :    14.425472748820390
 Root     60 :    14.522385124297130
 Root     61 :    14.625948877853360
 Root     62 :    14.651998098473980
 Root     63 :    14.721850936722020
 Root     64 :    14.726743443436640
 Root     65 :    14.792920697573400
 Root     66 :    14.935738447197030
 Root     67 :    14.958023655711080
 Root     68 :    14.991436429173670
 Root     69 :    15.147347068987280
 Root     70 :    15.186926220493060
 Root     71 :    15.329194003166320
 Root     72 :    15.375325163221780
 Root     73 :    15.549112424273420
 Root     74 :    15.613089441400610
 Root     75 :    15.665123860808850
 Root     76 :    15.672033105424700
 Root     77 :    15.681004729081150
 Root     78 :    15.836487245394470
 Root     79 :    15.902047284543290
 Root     80 :    15.921577414596650
 Root     81 :    15.957651823861060
 Root     82 :    16.033597140064070
 Root     83 :    16.164170199689890
 Root     84 :    16.354803415902560
 Root     85 :    16.431963176369600
 Root     86 :    16.545010392339040
 Root     87 :    16.568686119139050
 Root     88 :    16.621064862999910
 Root     89 :    16.631635142842470
 Root     90 :    16.699524041949170
 Root     91 :    16.756783508404910
 Root     92 :    16.757908967215520
 Root     93 :    16.915108884605920
 Root     94 :    16.968855017446600
 Root     95 :    16.996993281037460
 Root     96 :    17.039484327786020
 Root     97 :    17.044437508566690
 Root     98 :    17.049771176770300
 Root     99 :    17.136234853389820
 Root    100 :    17.140615691589560
 Root    101 :    17.242345455638200
 Root    102 :    17.264947192303110
 Root    103 :    17.276415150288040
 Root    104 :    17.310679017748630
 Root    105 :    17.319836007211780
 Root    106 :    17.395201126986570
 Root    107 :    17.403861746038190
 Root    108 :    17.551415738856900
 Root    109 :    17.666160843862760
 Root    110 :    17.769905248547400
 Root    111 :    17.781829702089020
 Root    112 :    17.823010613334470
 Root    113 :    17.893166241546880
 Root    114 :    17.973031668838810
 Root    115 :    18.064087306550740
 Root    116 :    18.075692685028250
 Root    117 :    18.144439922557860
 Root    118 :    18.223593433433820
 Root    119 :    18.251692602805740
 Root    120 :    18.274083901824750
 Root    121 :    18.321263259248760
 Root    122 :    18.386257596316130
 Root    123 :    18.391215868577750
 Root    124 :    18.403805088122710
 Root    125 :    18.439511249703940
 Root    126 :    18.457285857937100
 Root    127 :    18.476554898602820
 Root    128 :    18.629793110157880
 Root    129 :    18.674582421872520
 Root    130 :    18.760982207533420
 Root    131 :    18.798794133562230
 Root    132 :    18.815968063291240
 Root    133 :    18.853046357197610
 Root    134 :    18.953533353264690
 Root    135 :    18.957870655435690
 Root    136 :    18.992004698374960
 Root    137 :    19.081607884847500
 Root    138 :    19.131354578457990
 Root    139 :    19.145988039061560
 Root    140 :    19.247328182184710
 Root    141 :    19.298003899517240
 Root    142 :    19.305455226426640
 Root    143 :    19.336748213549400
 Root    144 :    19.426012265917450
 Root    145 :    19.427078985529300
 Root    146 :    19.468749530881130
 Root    147 :    19.585170460056640
 Root    148 :    19.615295611458270
 Root    149 :    19.658444624366840
 Root    150 :    19.689473206860820
 Root    151 :    19.731566762586810
 Root    152 :    19.768879517018250
 Root    153 :    19.770789558162850
 Root    154 :    19.890982514818310
 Root    155 :    19.920477014045410
 Root    156 :    19.941987032970650
 Root    157 :    20.021899331521680
 Root    158 :    20.027602078925870
 Root    159 :    20.055428618263230
 Root    160 :    20.228710639417100
 Root    161 :    20.232957035038310
 Root    162 :    20.308065140523360
 Root    163 :    20.349398589987140
 Root    164 :    20.441787795605220
 Root    165 :    20.544694865402020
 Root    166 :    20.551816180622950
 Root    167 :    20.581446853055780
 Root    168 :    20.656930698521120
 Root    169 :    20.664844937317070
 Root    170 :    20.689457312822560
 Root    171 :    20.706182474745280
 Root    172 :    20.741674015108340
 Root    173 :    20.775823761618740
 Root    174 :    20.854180332401260
 Root    175 :    20.865848638151850
 Root    176 :    20.902964329237950
 Root    177 :    20.945768961673830
 Root    178 :    20.982074219114120
 Root    179 :    21.013090801932720
 Root    180 :    21.066342944232550
 Root    181 :    21.091430812120570
 Root    182 :    21.138389572366570
 Root    183 :    21.207456744793300
 Root    184 :    21.216236927148460
 Root    185 :    21.253814516995210
 Root    186 :    21.528072725669900
 Root    187 :    21.541336625129550
 Root    188 :    21.561877427078290
 Root    189 :    21.671116543475500
 Root    190 :    21.682825609552120
 Root    191 :    21.685297441315640
 Root    192 :    21.708740812510580
 Root    193 :    21.748512107262740
 Root    194 :    21.775249443193690
 Root    195 :    21.884546097584220
 Root    196 :    21.921389878357490
 Root    197 :    21.943976575319760
 Root    198 :    21.949082040788900
 Root    199 :    22.069352690762110
 Root    200 :    22.121033874498430
 Root    201 :    22.170261376224490
 Root    202 :    22.245077822192810
 Root    203 :    22.287569362522740
 Root    204 :    22.350323569993280
 Root    205 :    22.425359157965660
 Root    206 :    22.436959576295000
 Root    207 :    22.493729137030980
 Root    208 :    22.582374414640170
 Root    209 :    22.612067828711520
 Root    210 :    22.638422225221450
 Root    211 :    22.761100749113890
 Root    212 :    22.841892580379700
 Root    213 :    22.875839371346090
 Root    214 :    22.889783438307290
 Root    215 :    22.960966989708570
 Root    216 :    23.047887498183850
 Root    217 :    23.150944014613890
 Root    218 :    23.194405330671750
 Root    219 :    23.268483382302860
 Root    220 :    23.325472860694480
 Root    221 :    23.329209024889260
 Root    222 :    23.451734884316870
 Root    223 :    23.476786118922370
 Root    224 :    23.575147826768100
 Root    225 :    23.587940048736120
 Root    226 :    23.706090460541970
 Root    227 :    23.817515864735000
 Root    228 :    23.823070643018810
 Root    229 :    23.923682849639170
 Root    230 :    23.925359110238480
 Root    231 :    23.975875088185840
 Root    232 :    23.989099969751170
 Root    233 :    24.095351794755480
 Root    234 :    24.192791630355220
 Root    235 :    24.299842563527180
 Root    236 :    24.302164393506650
 Root    237 :    24.370017999508400
 Root    238 :    24.403256918189730
 Root    239 :    24.440920804893530
 Root    240 :    24.475655439703050
 Root    241 :    24.528375675424100
 Root    242 :    24.566927970851790
 Root    243 :    24.627616518902660
 Root    244 :    24.753392557603990
 Root    245 :    24.778854691473700
 Root    246 :    24.803725922551380
 Root    247 :    24.861937042140660
 Root    248 :    24.989208904636670
 Root    249 :    25.086321036887330
 Root    250 :    25.141588774670710
 Root    251 :    25.241973663340860
 Root    252 :    25.363732223863080
 Root    253 :    25.407135275747550
 Root    254 :    25.426139060868650
 Root    255 :    25.469579717475480
 Root    256 :    25.547350864986940
 Root    257 :    25.590275140657680
 Root    258 :    25.609009871251810
 Root    259 :    25.658145272613530
 Root    260 :    25.804790612153020
 Root    261 :    25.872458989693760
 Root    262 :    25.925698431726020
 Root    263 :    25.981528732973030
 Root    264 :    26.059159419258120
 Root    265 :    26.077875441104060
 Root    266 :    26.095625472990330
 Root    267 :    26.227084912578360
 Root    268 :    26.330323255058310
 Root    269 :    26.377187004108250
 Root    270 :    26.413622004585760
 Root    271 :    26.441384372968390
 Root    272 :    26.478023452766190
 Root    273 :    26.491292352049180
 Root    274 :    26.577210633552360
 Root    275 :    26.594154092887450
 Root    276 :    26.644315592314540
 Root    277 :    26.749586115967760
 Root    278 :    26.783126598369220
 Root    279 :    26.797490739889800
 Root    280 :    26.898064794134000
 Root    281 :    26.992035533290450
 Root    282 :    27.012132802240770
 Root    283 :    27.033976203665710
 Root    284 :    27.127171091870920
 Root    285 :    27.288947374061980
 Root    286 :    27.356015352755300
 Root    287 :    27.415633480288850
 Root    288 :    27.493241921445980
 Root    289 :    27.592389766612410
 Root    290 :    27.604409714694490
 Root    291 :    27.856834257011100
 Root    292 :    27.894281429271640
 Root    293 :    27.971550658552990
 Root    294 :    28.110943664002920
 Root    295 :    28.122194602437220
 Root    296 :    28.140774265946160
 Root    297 :    28.162538357508010
 Root    298 :    28.185882746577830
 Root    299 :    28.199044710879280
 Root    300 :    28.424153203047060
 Root    301 :    28.427537902364590
 Root    302 :    28.492122189843660
 Root    303 :    28.759673921212960
 Root    304 :    28.796856415942550
 Root    305 :    28.807164258627130
 Root    306 :    28.867697144078600
 Root    307 :    28.885049771262450
 Root    308 :    29.027668138063550
 Root    309 :    29.105005726728280
 Root    310 :    29.161916406471590
 Root    311 :    29.187702873778820
 Root    312 :    29.240030223635330
 Root    313 :    29.323360948373310
 Root    314 :    29.358904229664200
 Root    315 :    29.509088836527340
 Root    316 :    29.546235507043850
 Root    317 :    29.562550852948910
 Root    318 :    29.635323465737510
 Root    319 :    29.708034944581320
 Root    320 :    29.796188886904360
 Root    321 :    29.872827767111780
 Root    322 :    29.958978868524290
 Root    323 :    30.042061088659420
 Root    324 :    30.068346694953330
 Root    325 :    30.118104591503360
 Root    326 :    30.185089480559650
 Root    327 :    30.316630139443370
 Root    328 :    30.382171339770100
 Root    329 :    30.469935371122420
 Root    330 :    30.554456930529320
 Root    331 :    30.683052588860580
 Root    332 :    30.858366669997260
 Root    333 :    30.891278484313500
 Root    334 :    30.972072671038600
 Root    335 :    31.017832392720670
 Root    336 :    31.105362940240130
 Root    337 :    31.235423813134450
 Root    338 :    31.337471359671710
 Root    339 :    31.440314797314690
 Root    340 :    31.548039461753220
 Root    341 :    31.575151905225060
 Root    342 :    31.620821445311290
 Root    343 :    31.796438876895980
 Root    344 :    31.900226358929480
 Root    345 :    31.922809499990320
 Root    346 :    32.027126564162650
 Root    347 :    32.220820661372780
 Root    348 :    32.326561151513490
 Root    349 :    32.346745590083420
 Root    350 :    32.454089615822430
 Root    351 :    32.575406734408130
 Root    352 :    32.641429658540100
 Root    353 :    32.647669523525640
 Root    354 :    32.687579878919560
 Root    355 :    32.792662468326400
 Root    356 :    32.899153419951990
 Root    357 :    32.967941971166620
 Root    358 :    33.081261339362580
 Root    359 :    33.187792556670080
 Root    360 :    33.333430629386520
 Root    361 :    33.367799794719050
 Root    362 :    33.399916584989490
 Root    363 :    33.421024006494870
 Root    364 :    33.546079000810890
 Root    365 :    33.772388692761110
 Root    366 :    33.866675635689990
 Root    367 :    34.044146206093870
 Root    368 :    34.108668528286000
 Root    369 :    34.304961758898210
 Root    370 :    34.435183813433240
 Root    371 :    34.486380415832620
 Root    372 :    34.488994736361570
 Root    373 :    34.535748738107440
 Root    374 :    34.598490977709580
 Root    375 :    34.818824866908720
 Root    376 :    34.867851682197310
 Root    377 :    34.950019695794440
 Root    378 :    34.963761060570400
 Root    379 :    35.010802007305420
 Root    380 :    35.100035851965330
 Root    381 :    35.196172916142330
 Root    382 :    35.285552995241690
 Root    383 :    35.481801723932100
 Root    384 :    35.601607606331820
 Root    385 :    35.625048838198160
 Root    386 :    35.727705617554110
 Root    387 :    35.857168250065490
 Root    388 :    35.926128145688460
 Root    389 :    36.030183587068490
 Root    390 :    36.132073004977440
 Root    391 :    36.239875890769070
 Root    392 :    36.253703484612560
 Root    393 :    36.298645717804850
 Root    394 :    36.316532493548690
 Root    395 :    36.375603411125400
 Root    396 :    36.594290735919900
 Root    397 :    36.686366572349210
 Root    398 :    36.775881177970840
 Root    399 :    36.833131433566050
 Root    400 :    37.140954025066590
 Root    401 :    37.146935441493040
 Root    402 :    37.347412105645450
 Root    403 :    37.372879589886820
 Root    404 :    37.450059603427870
 Root    405 :    37.471903993780860
 Root    406 :    37.577076632239120
 Root    407 :    37.649697728245830
 Root    408 :    37.689417778798160
 Root    409 :    37.740867216563360
 Root    410 :    37.761703957885200
 Root    411 :    37.821449318592010
 Root    412 :    38.148467446401350
 Root    413 :    38.208243955860120
 Root    414 :    38.348933922698760
 Root    415 :    38.461149963373120
 Root    416 :    38.542728313287110
 Root    417 :    38.781062876319860
 Root    418 :    38.787409428824690
 Root    419 :    38.854202377803200
 Root    420 :    38.908520079798750
 Root    421 :    38.956131673457900
 Root    422 :    39.089531382827360
 Root    423 :    39.240367152354490
 Root    424 :    39.419817922189810
 Root    425 :    39.586625374023530
 Root    426 :    39.784531809095910
 Root    427 :    39.819026295720260
 Root    428 :    39.874401035212950
 Root    429 :    39.993655302032660
 Root    430 :    40.046026467215140
 Root    431 :    40.048651416845080
 Root    432 :    40.286308274674450
 Root    433 :    40.411244655949180
 Root    434 :    40.412685130203980
 Root    435 :    40.620542061066910
 Root    436 :    40.683925565258790
 Root    437 :    40.877405735846660
 Root    438 :    40.928401494556290
 Root    439 :    40.942675618219880
 Root    440 :    41.420227786352360
 Root    441 :    41.486570134910070
 Root    442 :    41.502224110418050
 Root    443 :    41.587788552065140
 Root    444 :    41.625453528915730
 Root    445 :    41.643915216750500
 Root    446 :    41.728985785006100
 Root    447 :    41.922438552373980
 Root    448 :    42.156040956034050
 Root    449 :    42.263064321927790
 Root    450 :    42.572477060822190
 Root    451 :    42.636947740073200
 Root    452 :    42.677822804252360
 Root    453 :    42.709795250668530
 Root    454 :    42.932256127558470
 Root    455 :    43.069167061278480
 Root    456 :    43.492408386040850
 Root    457 :    43.779156828992100
 Root    458 :    43.812533958436140
 Root    459 :    43.849135189979460
 Root    460 :    43.910132094762460
 Root    461 :    44.109211424769900
 Root    462 :    44.453201432758720
 Root    463 :    44.647667785754510
 Root    464 :    44.906012204286450
 Root    465 :    44.933522123379430
 Root    466 :    45.093872607476940
 Root    467 :    45.231211740639740
 Root    468 :    45.259016995713050
 Root    469 :    45.521029665521490
 Root    470 :    45.635078818042710
 Root    471 :    45.887901435718300
 Root    472 :    45.982438399988990
 Root    473 :    46.289875360660280
 Root    474 :    46.370644820035640
 Root    475 :    46.433083488967320
 Root    476 :    46.698597032526980
 Root    477 :    46.960205853604310
 Root    478 :    47.216686104367030
 Root    479 :    47.383747727094760
 Root    480 :    47.425565542247290
 Root    481 :    47.637619506154840
 Root    482 :    47.693804551920180
 Root    483 :    47.773712301676990
 Root    484 :    48.044083995121120
 Root    485 :    48.079218570769290
 Root    486 :    48.621621932034220
 Root    487 :    48.704817935972950
 Root    488 :    48.830794393816840
 Root    489 :    48.848530274543300
 Root    490 :    48.861772199639500
 Root    491 :    48.932860466073390
 Root    492 :    49.054515705011890
 Root    493 :    49.197075851514350
 Root    494 :    49.215491989777680
 Root    495 :    49.407814068975720
 Root    496 :    49.827288758233590
 Root    497 :    49.934864177162010
 Root    498 :    50.236050282497210
 Root    499 :    50.516106857614550
 Root    500 :    50.741874418366520
 Root    501 :    50.828969938267870
 Root    502 :    50.985016760766490
 Root    503 :    51.196496783768960
 Root    504 :    51.345095755171730
 Root    505 :    51.487233668173940
 Root    506 :    51.741561613654180
 Root    507 :    51.836202874496590
 Root    508 :    51.895958036233520
 Root    509 :    51.999841831952660
 Root    510 :    52.079330368140600
 Root    511 :    52.204258493872630
 Root    512 :    52.317289550519760
 Root    513 :    52.390383377623640
 Root    514 :    52.416209714411860
 Root    515 :    52.573383125913240
 Root    516 :    52.812365257303910
 Root    517 :    53.121853623464840
 Root    518 :    53.437429364990190
 Root    519 :    53.579657203817160
 Root    520 :    53.695676792845110
 Root    521 :    53.842345369865210
 Root    522 :    54.056416926574320
 Root    523 :    54.084703057418540
 Root    524 :    54.193747696816480
 Root    525 :    54.308293284224060
 Root    526 :    54.399179892757570
 Root    527 :    54.588563741937610
 Root    528 :    55.014579647938860
 Root    529 :    55.091619574534770
 Root    530 :    55.301204044448910
 Root    531 :    55.368386453364380
 Root    532 :    55.473426439650090
 Root    533 :    55.505337589050670
 Root    534 :    55.592984817583840
 Root    535 :    55.887942550621570
 Root    536 :    55.977947179216410
 Root    537 :    56.042452553587640
 Root    538 :    56.258270218044790
 Root    539 :    56.278040017505450
 Root    540 :    56.319694407476990
 Root    541 :    56.414265892504670
 Root    542 :    56.571435523133790
 Root    543 :    56.754592090037920
 Root    544 :    56.874566969282150
 Root    545 :    57.073020832553790
 Root    546 :    57.099290068080620
 Root    547 :    57.540622481098430
 Root    548 :    57.584261584178700
 Root    549 :    57.749106084327900
 Root    550 :    57.908661913451170
 Root    551 :    57.964211041696760
 Root    552 :    57.980134374059890
 Root    553 :    58.094051292905360
 Root    554 :    58.532542920723500
 Root    555 :    58.575457056739610
 Root    556 :    58.723466544645360
 Root    557 :    58.828853111054610
 Root    558 :    59.091042298084520
 Root    559 :    59.112911629104430
 Root    560 :    59.246416944537170
 Root    561 :    59.527214287498250
 Root    562 :    59.608251999293720
 Root    563 :    59.638810779788500
 Root    564 :    59.707559730783360
 Root    565 :    59.961911753248820
 Root    566 :    60.086316576779570
 Root    567 :    60.251256629739070
 Root    568 :    60.344244802930630
 Root    569 :    60.495346688688480
 Root    570 :    60.968179123190420
 Root    571 :    61.034583776176130
 Root    572 :    61.231166759148450
 Root    573 :    61.314459548753360
 Root    574 :    61.457928999782640
 Root    575 :    61.558509354812840
 Root    576 :    61.747494221239220
 Root    577 :    61.779576495569640
 Root    578 :    61.813339760619190
 Root    579 :    61.936937932996540
 Root    580 :    62.115879590414030
 Root    581 :    62.300888817901340
 Root    582 :    62.376591663893930
 Root    583 :    62.598547924816770
 Root    584 :    62.803706476797300
 Root    585 :    62.910117796493030
 Root    586 :    63.006644425937530
 Root    587 :    63.056192108156760
 Root    588 :    63.168146877338450
 Root    589 :    63.292497601844530
 Root    590 :    63.547435505154340
 Root    591 :    63.815252678806960
 Root    592 :    63.982423252209910
 Root    593 :    64.013962634194630
 Root    594 :    64.527154273677840
 Root    595 :    64.550528257109330
 Root    596 :    64.579464406092370
 Root    597 :    64.897937281166490
 Root    598 :    64.984140201256490
 Root    599 :    65.053397280027810
 Root    600 :    65.108817712987290
 Root    601 :    65.162974500896450
 Root    602 :    65.311186263952040
 Root    603 :    65.374406785667230
 Root    604 :    65.481967825750690
 Root    605 :    65.608708715636280
 Root    606 :    65.757389044320890
 Root    607 :    65.934642953531960
 Root    608 :    65.937646707531390
 Root    609 :    66.140454609899050
 Root    610 :    66.286597757588960
 Root    611 :    66.288228220690800
 Root    612 :    66.437193882754230
 Root    613 :    66.605170908346240
 Root    614 :    66.803571765127400
 Root    615 :    67.030438595045100
 Root    616 :    67.036655056050360
 Root    617 :    67.100224382632790
 Root    618 :    67.352600230478560
 Root    619 :    67.497264940995010
 Root    620 :    67.697057034334070
 Root    621 :    67.763006167157270
 Root    622 :    67.826193468096280
 Root    623 :    67.939096083019880
 Root    624 :    68.030505948591180
 Root    625 :    68.171791333318890
 Root    626 :    68.288141583319200
 Root    627 :    68.404366073181350
 Root    628 :    68.832349126817210
 Root    629 :    68.847009310873460
 Root    630 :    68.938803926803790
 Root    631 :    69.078346765164680
 Root    632 :    69.225822942324130
 Root    633 :    69.403974726334510
 Root    634 :    69.551209200441140
 Root    635 :    70.001369389082360
 Root    636 :    70.238641935742760
 Root    637 :    70.254732352420500
 Root    638 :    70.401396532545720
 Root    639 :    70.417121153960710
 Root    640 :    70.503641964032850
 Root    641 :    70.756196628251230
 Root    642 :    70.824676531493990
 Root    643 :    70.960636036447970
 Root    644 :    71.042140820649340
 Root    645 :    71.406038358397130
 Root    646 :    71.461997082406950
 Root    647 :    72.038936605310080
 Root    648 :    72.062362471687610
 Root    649 :    72.562981737115720
 Root    650 :    72.672221595089570
 Root    651 :    72.833954231643930
 Root    652 :    72.895873632528280
 Root    653 :    72.957778285784680
 Root    654 :    73.148738827979730
 Root    655 :    73.268679515556810
 Root    656 :    73.415995710591030
 Root    657 :    73.546132263002760
 Root    658 :    73.637393432080510
 Root    659 :    73.930794157963230
 Root    660 :    73.992489382477810
 Root    661 :    74.102807300401120
 Root    662 :    74.208637614393670
 Root    663 :    74.495620986175040
 Root    664 :    74.515276769667950
 Root    665 :    75.030734160767850
 Root    666 :    75.082181478849760
 Root    667 :    75.264400540228680
 Root    668 :    75.343345740473270
 Root    669 :    75.466031276957760
 Root    670 :    75.565231691723710
 Root    671 :    75.601896528907100
 Root    672 :    75.693094433012890
 Root    673 :    75.928805282019370
 Root    674 :    75.994552475328720
 Root    675 :    76.400297494777730
 Root    676 :    76.642198232567440
 Root    677 :    76.929439591136560
 Root    678 :    77.517552083487470
 Root    679 :    77.771000784139800
 Root    680 :    78.180902663076130
 Root    681 :    78.225509008523260
 Root    682 :    78.551377214768560
 Root    683 :    78.617216684862850
 Root    684 :    78.862185009595510
 Root    685 :    79.107232909940960
 Root    686 :    79.172304162941780
 Root    687 :    79.685303108500490
 Root    688 :    80.031596801322110
 Root    689 :    80.478599189877980
 Root    690 :    80.575424937478740
 Root    691 :    80.916293151002280
 Root    692 :    81.231661327861690
 Root    693 :    81.611571351252960
 Root    694 :    81.637178417626260
 Root    695 :    81.772497540752140
 Root    696 :    81.890385135850270
 Root    697 :    82.080262948225130
 Root    698 :    82.262476189278700
 Root    699 :    82.375940857938080
 Root    700 :    82.545638441328860
 Root    701 :    82.924686562243590
 Root    702 :    83.116471315759800
 Root    703 :    83.289486083881130
 Root    704 :    83.563421926235630
 Root    705 :    83.668515262539800
 Root    706 :    83.991568218034570
 Root    707 :    84.113336311825440
 Root    708 :    84.153105838286440
 Root    709 :    84.244998543698670
 Root    710 :    84.442484882367740
 Root    711 :    84.769878097999150
 Root    712 :    85.062056302265890
 Root    713 :    85.533485311279050
 Root    714 :    85.584466559188730
 Root    715 :    85.942356977745530
 Root    716 :    86.384960493171350
 Root    717 :    86.760910481562520
 Root    718 :    86.858902761779630
 Root    719 :    87.046821973719390
 Root    720 :    87.478256472315370
 Root    721 :    87.533796742669150
 Root    722 :    87.705596867820050
 Root    723 :    87.892983382374060
 Root    724 :    88.250083332251560
 Root    725 :    88.411241015147580
 Root    726 :    88.762127655323990
 Root    727 :    89.009525133246020
 Root    728 :    89.282998973474560
 Root    729 :    89.490059071640590
 Root    730 :    89.645634703333560
 Root    731 :    89.906469741580100
 Root    732 :    90.097490157526640
 Root    733 :    90.283154442336030
 Root    734 :    90.499054326875370
 Root    735 :    90.744638466639150
 Root    736 :    90.920873803132320
 Root    737 :    91.143096925188590
 Root    738 :    91.359923863008320
 Root    739 :    91.465135813123140
 Root    740 :    91.694811438271900
 Root    741 :    91.726605386118250
 Root    742 :    91.762169052598280
 Root    743 :    91.768820798824480
 Root    744 :    92.167191523701900
 Root    745 :    92.471381265819030
 Root    746 :    92.765958817535240
 Root    747 :    92.879391880171550
 Root    748 :    92.954192501745420
 Root    749 :    93.461377768593810
 Root    750 :    93.501215166945120
 Root    751 :    93.850104093352730
 Root    752 :    94.087384295437150
 Root    753 :    94.358210558916870
 Root    754 :    95.026560093536290
 Root    755 :    95.132202581300260
 Root    756 :    95.438967749362790
 Root    757 :    95.468627393677010
 Root    758 :    95.583199452394910
 Root    759 :    95.958792161565410
 Root    760 :    96.328539361152080
 Root    761 :    96.611467495454280
 Root    762 :    96.845665224450220
 Root    763 :    96.994983386665060
 Root    764 :    97.582882496588270
 Root    765 :    97.837577333958480
 Root    766 :    98.133023516236900
 Root    767 :    98.451381564299810
 Root    768 :    98.997300803120480
 Root    769 :    99.020491485999230
 Root    770 :    99.433746335562330
 Root    771 :    99.690410656449530
 Root    772 :   100.346979042593700
 Root    773 :   100.379632505988200
 Root    774 :   100.651536425969300
 Root    775 :   100.670041583597100
 Root    776 :   101.635772016761800
 Root    777 :   101.991714786349700
 Root    778 :   102.377170917770900
 Root    779 :   102.885021239489800
 Root    780 :   103.090584744697600
 Root    781 :   103.662224285734700
 Root    782 :   104.213799965814800
 Root    783 :   104.301049166214400
 Root    784 :   105.940191175001800
 Root    785 :   106.974047266484900
 Root    786 :   107.398817737916200
 Root    787 :   108.139211781102600
 Root    788 :   109.390105047522700
 Root    789 :   109.896060795565500
 Root    790 :   110.595940983759500
 Root    791 :   112.115164814884300
 Root    792 :   118.402551074548400
 Convergence achieved for final wavefunctions.
 ***********************************************************************
 Excited states from <AA,BB:AA,BB> singles matrix:
 ***********************************************************************
 
 1PDM for each excited state written to RWF  633
 Ground to excited state transition densities written to RWF  633
 Ground to excited state transition electric dipole moments (Au):
       state          X           Y           Z        Dip. S.      Osc.
         1        -0.0376      0.0918     -0.0000      0.0098      0.0016
         2        -0.3724     -0.1856      0.0000      0.1731      0.0308
         3         0.0000      0.0000      0.1567      0.0246      0.0044
         4        -0.1028     -0.6082      0.0000      0.3805      0.0748
         5         0.0000      0.0000     -0.4361      0.1901      0.0405
         6         0.0733      0.2047      0.0000      0.0473      0.0102
         7         0.0000     -0.0000     -0.0542      0.0029      0.0007
         8         0.1487      0.0595      0.0000      0.0256      0.0057
         9        -0.2490      0.3627     -0.0000      0.1936      0.0454
        10         0.0000      0.0000     -0.4301      0.1850      0.0434
        11         0.0000      0.0000     -0.2761      0.0762      0.0181
        12         0.0000      0.0000     -0.2224      0.0495      0.0119
        13        -0.0000      0.0000      0.5696      0.3244      0.0786
        14        -0.0390     -0.1317      0.0000      0.0189      0.0046
        15        -0.1872      0.3452     -0.0000      0.1542      0.0376
        16        -0.2298     -0.2147      0.0000      0.0989      0.0249
        17         0.0000      0.0000     -0.1534      0.0235      0.0061
        18         0.0000      0.0000      0.0967      0.0093      0.0024
        19        -0.5653     -0.0868      0.0000      0.3271      0.0852
        20        -0.0000     -0.0000     -0.2347      0.0551      0.0144
        21        -0.0000      0.0000     -0.1934      0.0374      0.0101
        22         0.0290     -0.2203     -0.0000      0.0494      0.0134
        23         0.0000     -0.0000      0.8584      0.7369      0.2032
        24         0.0606     -0.4103     -0.0000      0.1720      0.0477
        25         0.2049      0.0696     -0.0000      0.0468      0.0131
        26        -0.0000     -0.0000     -0.4215      0.1777      0.0500
        27         0.0000     -0.0000      0.1372      0.0188      0.0054
        28        -0.1561      0.1036     -0.0000      0.0351      0.0101
        29        -0.1261     -0.1413     -0.0000      0.0359      0.0104
        30         0.0298     -0.2762      0.0000      0.0772      0.0225
        31         0.0000     -0.0000     -0.1465      0.0215      0.0063
        32         0.2397     -0.0014      0.0000      0.0575      0.0173
        33         0.0000      0.0000     -0.0127      0.0002      0.0000
        34         0.0000      0.0000      0.2195      0.0482      0.0147
        35        -0.3511     -0.1272      0.0000      0.1395      0.0427
        36         0.0000      0.0000      0.3560      0.1267      0.0389
        37        -0.1257      0.0689      0.0000      0.0206      0.0063
        38         0.0499     -0.5371     -0.0000      0.2909      0.0918
        39        -0.0000      0.0000     -0.1865      0.0348      0.0111
        40        -0.0541     -0.2089     -0.0000      0.0466      0.0150
        41         0.0000     -0.0000     -0.3098      0.0960      0.0311
        42         0.3984     -0.6121      0.0000      0.5334      0.1733
        43         0.0000      0.0000     -0.5280      0.2788      0.0908
        44        -0.1885     -0.4223     -0.0000      0.2139      0.0700
        45         0.0000      0.0000     -0.1626      0.0264      0.0087
        46        -0.3696      0.0817     -0.0000      0.1432      0.0470
        47         0.0010     -0.1172     -0.0000      0.0137      0.0046
[...]
      5   0.235100D+00  0.000000D+00 -0.308977D-01  0.165026D+00  0.758550D-02
      6   0.000000D+00 -0.104570D+00  0.000000D+00  0.000000D+00  0.000000D+00
      7   0.000000D+00 -0.164576D-01  0.000000D+00  0.000000D+00  0.000000D+00
      8   0.000000D+00 -0.945638D-01  0.000000D+00  0.000000D+00  0.000000D+00
      9  -0.110231D+00  0.000000D+00  0.185680D+00 -0.443598D-01  0.160684D+00
     10   0.168846D+00  0.000000D+00  0.570198D+00  0.794044D-02 -0.868625D-01
     11   0.000000D+00 -0.501851D+00  0.000000D+00  0.000000D+00  0.000000D+00
     12   0.000000D+00  0.870961D+00  0.000000D+00  0.000000D+00  0.000000D+00
     13   0.000000D+00 -0.749445D-01  0.000000D+00  0.000000D+00  0.000000D+00
     14  -0.221990D+00  0.000000D+00 -0.495259D+00  0.348913D+00 -0.259812D-01
     15   0.251002D+00  0.000000D+00 -0.713555D-03  0.173470D+00 -0.150639D-02
     16   0.000000D+00 -0.343891D+00  0.000000D+00  0.000000D+00  0.000000D+00
               726           727           728           729           730 
      1  -0.130573D+03 -0.130564D+03 -0.130554D+03 -0.130546D+03 -0.130541D+03
      2   0.103305D-01 -0.110817D+00  0.000000D+00  0.000000D+00  0.000000D+00
      3   0.000000D+00  0.000000D+00 -0.100346D-02  0.950028D-02 -0.541169D-01
      4   0.000000D+00  0.000000D+00 -0.529117D-02 -0.106510D-01 -0.116652D+00
      5  -0.326851D-01  0.323226D+00  0.000000D+00  0.000000D+00  0.000000D+00
      6   0.000000D+00  0.000000D+00 -0.711437D-02 -0.168072D-01  0.151546D+00
      7   0.000000D+00  0.000000D+00  0.352941D-01  0.229573D-01  0.352187D+00
      8   0.000000D+00  0.000000D+00  0.204697D+00 -0.129558D+00  0.533545D+00
      9   0.158429D+00  0.544451D-01  0.000000D+00  0.000000D+00  0.000000D+00
     10  -0.134512D-02 -0.854435D-01  0.000000D+00  0.000000D+00  0.000000D+00
     11   0.000000D+00  0.000000D+00 -0.118141D+00  0.820190D-01 -0.179905D+00
     12   0.000000D+00  0.000000D+00 -0.571094D-02 -0.101477D+00  0.327828D+00
     13   0.000000D+00  0.000000D+00  0.621216D-01  0.201448D+00 -0.672439D+00
     14  -0.970698D-01  0.125248D+00  0.000000D+00  0.000000D+00  0.000000D+00
     15  -0.201978D-01 -0.320661D+00  0.000000D+00  0.000000D+00  0.000000D+00
     16   0.000000D+00  0.000000D+00  0.194411D+00 -0.508675D-01  0.762413D+00
               731           732           733           734           735 
      1  -0.130531D+03 -0.130524D+03 -0.130517D+03 -0.130509D+03 -0.130500D+03
      2   0.000000D+00  0.000000D+00  0.364056D-01 -0.210311D-01  0.000000D+00
      3   0.505420D-02 -0.433029D-01  0.000000D+00  0.000000D+00  0.270801D-01
      4  -0.430027D-01  0.787086D-01  0.000000D+00  0.000000D+00 -0.285223D-01
      5   0.000000D+00  0.000000D+00 -0.123385D+00  0.737012D-01  0.000000D+00
      6  -0.475722D-01  0.128187D+00  0.000000D+00  0.000000D+00 -0.911907D-01
      7   0.129501D+00 -0.217273D+00  0.000000D+00  0.000000D+00  0.799975D-01
      8   0.675154D-01 -0.775766D-01  0.000000D+00  0.000000D+00 -0.752315D-01
      9   0.000000D+00  0.000000D+00 -0.831654D-01 -0.443359D-02  0.000000D+00
     10   0.000000D+00  0.000000D+00 -0.498638D+00 -0.117257D-01  0.000000D+00
     11  -0.413746D+00 -0.372021D+00  0.000000D+00  0.000000D+00  0.396656D+00
     12  -0.205294D+00 -0.804883D-01  0.000000D+00  0.000000D+00 -0.310842D+00
     13   0.189572D-02  0.538079D-02  0.000000D+00  0.000000D+00 -0.120742D+00
     14   0.000000D+00  0.000000D+00  0.444731D-01  0.261276D-01  0.000000D+00
     15   0.000000D+00  0.000000D+00  0.156004D+00 -0.258243D-01  0.000000D+00
     16   0.240908D+00 -0.868518D-01  0.000000D+00  0.000000D+00 -0.962783D-01
               736           737           738           739           740 
      1  -0.130494D+03 -0.130486D+03 -0.130478D+03 -0.130474D+03 -0.130465D+03
      2  -0.174580D+00  0.000000D+00  0.000000D+00  0.000000D+00 -0.743736D-02
      3   0.000000D+00  0.584476D-01 -0.341829D-02 -0.139254D-01  0.000000D+00
      4   0.000000D+00  0.108905D+00 -0.189870D-01 -0.959751D-01  0.000000D+00
      5   0.522092D+00  0.000000D+00  0.000000D+00  0.000000D+00 -0.463104D-02
      6   0.000000D+00 -0.169496D+00  0.137099D-01  0.399899D-01  0.000000D+00
      7   0.000000D+00 -0.296536D+00  0.515925D-01  0.275290D+00  0.000000D+00
      8   0.000000D+00  0.271285D+00  0.464486D-01  0.670687D-01  0.000000D+00
      9  -0.503492D-01  0.000000D+00  0.000000D+00  0.000000D+00  0.177920D+00
     10  -0.458192D+00  0.000000D+00  0.000000D+00  0.000000D+00 -0.304048D-01
     11   0.000000D+00  0.228137D+00  0.369993D+00  0.362030D+00  0.000000D+00
     12   0.000000D+00 -0.426684D-01 -0.369371D-01  0.131106D+00  0.000000D+00
     13   0.000000D+00 -0.186079D-01  0.118733D-01 -0.212333D-02  0.000000D+00
     14   0.686592D+00  0.000000D+00  0.000000D+00  0.000000D+00 -0.673191D-02
     15  -0.144444D+00  0.000000D+00  0.000000D+00  0.000000D+00 -0.179130D+00
     16   0.000000D+00  0.302721D+00  0.181675D+00  0.937207D-01  0.000000D+00
               741           742           743           744           745 
      1  -0.130464D+03 -0.130463D+03 -0.130463D+03 -0.130448D+03 -0.130437D+03
      2   0.000000D+00  0.000000D+00  0.520540D-01  0.293946D-01 -0.132394D-01
      3  -0.393767D-01  0.306249D-01  0.000000D+00  0.000000D+00  0.000000D+00
      4  -0.320455D-01 -0.157408D-03  0.000000D+00  0.000000D+00  0.000000D+00
      5   0.000000D+00  0.000000D+00 -0.166491D+00 -0.980578D-01  0.794377D-01
      6   0.108216D+00 -0.101730D+00  0.000000D+00  0.000000D+00  0.000000D+00
      7   0.837847D-01  0.191978D-01  0.000000D+00  0.000000D+00  0.000000D+00
      8   0.132479D-02  0.101330D+00  0.000000D+00  0.000000D+00  0.000000D+00
      9   0.000000D+00  0.000000D+00 -0.111021D+00  0.845305D-01  0.250655D-01
     10   0.000000D+00  0.000000D+00  0.205147D+00  0.176379D+00 -0.355006D+00
     11   0.137435D+00  0.253215D-01  0.000000D+00  0.000000D+00  0.000000D+00
     12  -0.106929D+00 -0.795239D+00  0.000000D+00  0.000000D+00  0.000000D+00
     13  -0.384819D-01 -0.203088D+00  0.000000D+00  0.000000D+00  0.000000D+00
     14   0.000000D+00  0.000000D+00 -0.626025D+00 -0.287702D+00  0.121542D+00
     15   0.000000D+00  0.000000D+00  0.220955D+00 -0.266717D-01 -0.151013D+00
     16  -0.596081D-01  0.278879D+00  0.000000D+00  0.000000D+00  0.000000D+00
               746           747           748           749           750 
      1  -0.130426D+03 -0.130422D+03 -0.130419D+03 -0.130400D+03 -0.130399D+03
      2   0.000000D+00  0.823282D-01 -0.448407D-01 -0.505008D-01  0.000000D+00
      3  -0.167502D-01  0.000000D+00  0.000000D+00  0.000000D+00  0.177760D+00
      4  -0.183221D-01  0.000000D+00  0.000000D+00  0.000000D+00 -0.354224D-01
      5   0.000000D+00 -0.259316D+00  0.138440D+00  0.146903D+00  0.000000D+00
      6   0.518704D-01  0.000000D+00  0.000000D+00  0.000000D+00 -0.573230D+00
      7   0.413999D-01  0.000000D+00  0.000000D+00  0.000000D+00  0.970766D-01
      8   0.146082D-01  0.000000D+00  0.000000D+00  0.000000D+00  0.199750D+00
      9   0.000000D+00  0.182469D+00  0.123052D+00  0.411781D-01  0.000000D+00
     10   0.000000D+00  0.105350D+00 -0.257382D-01 -0.132899D+00  0.000000D+00
     11  -0.130184D+00  0.000000D+00  0.000000D+00  0.000000D+00  0.166006D+00
     12  -0.363847D+00  0.000000D+00  0.000000D+00  0.000000D+00 -0.975716D+00
     13  -0.137687D-01  0.000000D+00  0.000000D+00  0.000000D+00 -0.769860D-01
     14   0.000000D+00 -0.182504D-01 -0.329690D+00  0.577945D-01  0.000000D+00
     15   0.000000D+00 -0.108097D+00 -0.979851D-01 -0.933640D-01  0.000000D+00
     16   0.634633D-01  0.000000D+00  0.000000D+00  0.000000D+00  0.482335D+00
               751           752           753           754           755 
      1  -0.130386D+03 -0.130377D+03 -0.130367D+03 -0.130343D+03 -0.130339D+03
      2   0.101312D+00 -0.231569D-01  0.000000D+00  0.000000D+00 -0.300764D-02
      3   0.000000D+00  0.000000D+00 -0.246568D-01 -0.258650D-01  0.000000D+00
      4   0.000000D+00  0.000000D+00 -0.435486D-01 -0.112318D-01  0.000000D+00
      5  -0.296461D+00  0.516043D-01  0.000000D+00  0.000000D+00  0.119510D-01
      6   0.000000D+00  0.000000D+00  0.755307D-01  0.830456D-01  0.000000D+00
      7   0.000000D+00  0.000000D+00  0.137641D+00  0.255598D-01  0.000000D+00
      8   0.000000D+00  0.000000D+00 -0.120437D+00 -0.123414D+00  0.000000D+00
      9   0.227394D+00  0.584143D-01  0.000000D+00  0.000000D+00 -0.872645D-01
     10   0.130883D+00 -0.346048D+00  0.000000D+00  0.000000D+00 -0.391252D+00
     11   0.000000D+00  0.000000D+00  0.196787D+00  0.130490D+00  0.000000D+00
     12   0.000000D+00  0.000000D+00  0.198715D+00  0.845754D+00  0.000000D+00
     13   0.000000D+00  0.000000D+00  0.743537D-01  0.583972D-02  0.000000D+00
     14   0.410506D-01 -0.154105D-01  0.000000D+00  0.000000D+00 -0.658573D-02
     15  -0.117053D+00 -0.319419D+00  0.000000D+00  0.000000D+00 -0.518435D-01
     16   0.000000D+00  0.000000D+00 -0.343463D+00 -0.194401D+00  0.000000D+00
               756           757           758           759           760 
      1  -0.130328D+03 -0.130327D+03 -0.130322D+03 -0.130309D+03 -0.130295D+03
      2   0.169769D-01  0.000000D+00 -0.870880D-04  0.000000D+00  0.000000D+00
      3   0.000000D+00 -0.236016D-01  0.000000D+00  0.555131D-01  0.186114D-01
      4   0.000000D+00  0.443622D-01  0.000000D+00 -0.514190D-01  0.411179D-02
      5  -0.560321D-01  0.000000D+00 -0.378556D-03  0.000000D+00  0.000000D+00
      6   0.000000D+00  0.754140D-01  0.000000D+00 -0.185873D+00 -0.444670D-01
      7   0.000000D+00 -0.120103D+00  0.000000D+00  0.164270D+00 -0.186140D-01
      8   0.000000D+00  0.345359D+00  0.000000D+00 -0.256616D+00  0.182419D+00
      9  -0.787633D-01  0.000000D+00 -0.353953D+00  0.000000D+00  0.000000D+00
     10   0.170242D+00  0.000000D+00 -0.874582D-01  0.000000D+00  0.000000D+00
     11   0.000000D+00  0.298121D+00  0.000000D+00  0.361897D-01  0.105730D+00
     12   0.000000D+00  0.543777D+00  0.000000D+00 -0.375045D+00 -0.595584D-01
     13   0.000000D+00 -0.595828D-01  0.000000D+00  0.106916D+00 -0.215270D+00
     14  -0.186340D+00  0.000000D+00  0.904746D-02  0.000000D+00  0.000000D+00
     15   0.192965D+00  0.000000D+00  0.518708D+00  0.000000D+00  0.000000D+00
     16   0.000000D+00  0.294255D+00  0.000000D+00 -0.346547D+00  0.154685D+00
               761           762           763           764           765 
      1  -0.130285D+03 -0.130276D+03 -0.130271D+03 -0.130249D+03 -0.130240D+03
      2   0.000000D+00 -0.865391D-01  0.000000D+00  0.000000D+00  0.000000D+00
      3  -0.105910D+00  0.000000D+00 -0.443086D-01 -0.246874D-01 -0.605579D-03
      4   0.140205D-01  0.000000D+00  0.199019D-01  0.109070D+00  0.136542D-01
      5   0.000000D+00  0.277971D+00  0.000000D+00  0.000000D+00  0.000000D+00
      6   0.358899D+00  0.000000D+00  0.152606D+00  0.942777D-01  0.247116D-01
      7  -0.458732D-01  0.000000D+00 -0.675011D-01 -0.326785D+00 -0.469512D-01
      8   0.703642D-01  0.000000D+00  0.171118D-01 -0.650573D-01  0.105249D-01
      9   0.000000D+00 -0.110033D+00  0.000000D+00  0.000000D+00  0.000000D+00
     10   0.000000D+00 -0.567227D+00  0.000000D+00  0.000000D+00  0.000000D+00
     11  -0.705008D+00  0.000000D+00  0.181449D+00  0.115819D+00 -0.809352D+00
     12   0.642127D-02  0.000000D+00  0.300280D+00  0.215587D+00  0.203388D+00
     13   0.124001D-01  0.000000D+00  0.101962D+00 -0.258796D-02  0.605369D-01
     14   0.000000D+00  0.312956D+00  0.000000D+00  0.000000D+00  0.000000D+00
     15   0.000000D+00 -0.143643D+00  0.000000D+00  0.000000D+00  0.000000D+00
     16  -0.122674D+00  0.000000D+00 -0.908242D-01 -0.117608D+00 -0.104081D-01
               766           767           768           769           770 
      1  -0.130229D+03 -0.130217D+03 -0.130197D+03 -0.130196D+03 -0.130181D+03
      2  -0.326914D-01  0.308337D-01  0.378603D-01 -0.302613D-01  0.497505D-01
      3   0.000000D+00  0.000000D+00  0.000000D+00  0.000000D+00  0.000000D+00
      4   0.000000D+00  0.000000D+00  0.000000D+00  0.000000D+00  0.000000D+00
      5   0.115720D+00 -0.107682D+00 -0.908750D-01  0.817120D-01 -0.153005D+00
      6   0.000000D+00  0.000000D+00  0.000000D+00  0.000000D+00  0.000000D+00
      7   0.000000D+00  0.000000D+00  0.000000D+00  0.000000D+00  0.000000D+00
      8   0.000000D+00  0.000000D+00  0.000000D+00  0.000000D+00  0.000000D+00
      9   0.111820D+00  0.116581D-01  0.166532D+00  0.680170D-01 -0.370908D+00
     10  -0.523979D+00  0.110998D+00  0.245353D+00  0.158543D+00  0.318827D-01
     11   0.000000D+00  0.000000D+00  0.000000D+00  0.000000D+00  0.000000D+00
     12   0.000000D+00  0.000000D+00  0.000000D+00  0.000000D+00  0.000000D+00
     13   0.000000D+00  0.000000D+00  0.000000D+00  0.000000D+00  0.000000D+00
     14   0.165392D+00 -0.311040D-01 -0.984664D-01 -0.474241D-02  0.340671D+00
     15  -0.286770D+00 -0.438392D-01 -0.185555D+00 -0.906713D-01  0.344544D+00
     16   0.000000D+00  0.000000D+00  0.000000D+00  0.000000D+00  0.000000D+00
               771           772           773           774           775 
      1  -0.130172D+03 -0.130147D+03 -0.130146D+03 -0.130136D+03 -0.130136D+03
      2   0.000000D+00  0.000000D+00  0.740742D-02 -0.755764D-01  0.000000D+00
      3  -0.146929D+00 -0.941423D-01  0.000000D+00  0.000000D+00 -0.595098D-02
      4  -0.747963D-01  0.325527D-01  0.000000D+00  0.000000D+00 -0.477166D-02
      5   0.000000D+00  0.000000D+00 -0.307474D-01  0.254155D+00  0.000000D+00
      6   0.487227D+00  0.297004D+00  0.000000D+00  0.000000D+00  0.918868D-01
      7   0.223656D+00 -0.101168D+00  0.000000D+00  0.000000D+00  0.176497D-02
      8   0.334821D+00  0.202614D+00  0.000000D+00  0.000000D+00  0.276974D-01
      9   0.000000D+00  0.000000D+00 -0.566606D-01 -0.224607D+00  0.000000D+00
     10   0.000000D+00  0.000000D+00 -0.813664D-01 -0.128994D+00  0.000000D+00
     11   0.441531D-01  0.103394D+00  0.000000D+00  0.000000D+00 -0.497967D-01
     12   0.125932D+01  0.830941D+00  0.000000D+00  0.000000D+00  0.136251D+01
     13  -0.153430D+00  0.714572D-02  0.000000D+00  0.000000D+00  0.541734D-02
     14   0.000000D+00  0.000000D+00  0.913790D-01  0.505206D-01  0.000000D+00
     15   0.000000D+00  0.000000D+00  0.712398D-01  0.158744D+00  0.000000D+00
     16  -0.569598D-02 -0.766014D-01  0.000000D+00  0.000000D+00 -0.238490D+00
               776           777           778           779           780 
      1  -0.130100D+03 -0.130087D+03 -0.130073D+03 -0.130054D+03 -0.130047D+03
      2   0.432714D-02  0.878533D-01  0.000000D+00  0.000000D+00  0.000000D+00
      3   0.000000D+00  0.000000D+00 -0.380392D-01  0.216918D-01  0.555883D-02
      4   0.000000D+00  0.000000D+00 -0.113520D+00  0.720229D-01  0.625247D-01
      5  -0.372603D-01 -0.317231D+00  0.000000D+00  0.000000D+00  0.000000D+00
      6   0.000000D+00  0.000000D+00  0.124610D+00 -0.631064D-01 -0.584759D-01
      7   0.000000D+00  0.000000D+00  0.388338D+00 -0.213519D+00 -0.195268D+00
      8   0.000000D+00  0.000000D+00  0.521284D+00  0.620162D-01 -0.105180D+00
      9   0.111258D+00  0.409202D-01  0.000000D+00  0.000000D+00  0.000000D+00
     10   0.661967D-01  0.507575D+00  0.000000D+00  0.000000D+00  0.000000D+00
     11   0.000000D+00  0.000000D+00  0.244587D+00 -0.509171D-01 -0.121347D+00
     12   0.000000D+00  0.000000D+00  0.499614D+00  0.136081D+00 -0.373632D+00
     13   0.000000D+00  0.000000D+00 -0.399518D+00  0.551409D-01  0.135185D+00
     14   0.632690D+00 -0.414450D+00  0.000000D+00  0.000000D+00  0.000000D+00
     15  -0.226436D+00  0.285347D+00  0.000000D+00  0.000000D+00  0.000000D+00
     16   0.000000D+00  0.000000D+00  0.413617D+00  0.963318D-01 -0.739686D-02
               781           782           783           784           785 
      1  -0.130026D+03 -0.130005D+03 -0.130002D+03 -0.129942D+03 -0.129904D+03
      2  -0.181430D-03 -0.234931D-01  0.000000D+00  0.000000D+00  0.549279D-01
      3   0.000000D+00  0.000000D+00 -0.384429D-01 -0.523481D-01  0.000000D+00
      4   0.000000D+00  0.000000D+00 -0.323432D-01  0.506736D-01  0.000000D+00
      5  -0.681310D-02  0.789838D-01  0.000000D+00  0.000000D+00 -0.177012D+00
      6   0.000000D+00  0.000000D+00  0.156666D+00  0.183091D+00  0.000000D+00
      7   0.000000D+00  0.000000D+00  0.931821D-01 -0.176472D+00  0.000000D+00
      8   0.000000D+00  0.000000D+00  0.507257D-01 -0.183100D+00  0.000000D+00
      9   0.897751D-01 -0.210746D+00  0.000000D+00  0.000000D+00  0.363763D-01
     10  -0.555155D-01 -0.705034D-01  0.000000D+00  0.000000D+00  0.815040D-01
     11   0.000000D+00  0.000000D+00 -0.447913D-01  0.211147D-01  0.000000D+00
     12   0.000000D+00  0.000000D+00  0.496928D+00  0.392912D+00  0.000000D+00
     13   0.000000D+00  0.000000D+00 -0.961815D-02  0.149048D+00  0.000000D+00
     14   0.148519D-02  0.275854D+00  0.000000D+00  0.000000D+00 -0.503823D-01
     15  -0.111041D+00  0.143319D+00  0.000000D+00  0.000000D+00  0.105853D-01
     16   0.000000D+00  0.000000D+00 -0.774835D-01 -0.270842D+00  0.000000D+00
               786           787           788           789           790 
      1  -0.129888D+03 -0.129861D+03 -0.129815D+03 -0.129796D+03 -0.129771D+03
      2   0.000000D+00  0.000000D+00  0.871011D-02 -0.405796D-03  0.000000D+00
      3   0.158317D-01 -0.290756D-02  0.000000D+00  0.000000D+00  0.838382D-02
      4   0.848837D-01 -0.111261D-01  0.000000D+00  0.000000D+00  0.816554D-02
      5   0.000000D+00  0.000000D+00 -0.629140D-01  0.135528D-01  0.000000D+00
      6  -0.336665D-01 -0.179048D-01  0.000000D+00  0.000000D+00 -0.388182D-01
      7  -0.280540D+00  0.207876D-01  0.000000D+00  0.000000D+00 -0.363895D-01
      8  -0.489832D+00 -0.431395D+00  0.000000D+00  0.000000D+00 -0.125577D+00
      9   0.000000D+00  0.000000D+00 -0.814374D-01  0.162724D-02  0.000000D+00
     10   0.000000D+00  0.000000D+00  0.154051D+00  0.159498D-02  0.000000D+00
     11  -0.219126D-01 -0.688472D-01  0.000000D+00  0.000000D+00  0.188725D+00
     12  -0.316238D+00 -0.299482D+00  0.000000D+00  0.000000D+00  0.315095D+00
     13   0.327242D+00  0.150704D+00  0.000000D+00  0.000000D+00  0.410071D-01
     14   0.000000D+00  0.000000D+00 -0.167005D+00  0.245119D+00  0.000000D+00
     15   0.000000D+00  0.000000D+00  0.119864D+00 -0.774374D-01  0.000000D+00
     16  -0.486546D+00 -0.410774D+00  0.000000D+00  0.000000D+00 -0.218276D+00
               791           792 
      1  -0.129715D+03 -0.129484D+03
      2  -0.678106D-02  0.000000D+00
      3   0.000000D+00 -0.237578D-01
      4   0.000000D+00 -0.366752D-01
      5   0.135347D-01  0.000000D+00
      6   0.000000D+00  0.402094D-01
      7   0.000000D+00  0.133363D+00
      8   0.000000D+00  0.270789D+00
      9   0.353713D+00  0.000000D+00
     10  -0.264255D-01  0.000000D+00
     11   0.000000D+00 -0.999060D-02
     12   0.000000D+00  0.664868D-02
     13   0.000000D+00 -0.177427D+00
     14  -0.474732D-01  0.000000D+00
     15  -0.342938D+00  0.000000D+00
     16   0.000000D+00  0.208671D+00
 Unable to Open any file for archive entry.
 1\1\GINC-HEL13\SP\RB3LYP TD-FC\Gen\C2H5N1\SABYASACHI\21-Mar-2022\0\\#P
  TD(Nstates=10000) b3lyp/Gen SCF(maxcycles=100) Int(Grid=ultrafine)\\x
 GDB7_00001_tier4.com\\0,1\C,0,0.738519,-0.394885,0.023737\C,0,-0.73851
 9,-0.394885,0.023737\N,0,0.,0.849548,-0.172046\H,0,1.276872,-0.747254,
 -0.847373\H,0,1.244917,-0.556892,0.968566\H,0,-1.244917,-0.556892,0.96
 8566\H,0,-1.276872,-0.747254,-0.847373\H,0,0.,1.400076,0.677088\\Versi
 on=EM64L-G16RevC.01\State=1-A'\HF=-133.8350569\RMSD=2.819e-09\PG=CS [S
 G(H1N1),X(C2H4)]\\@
 The archive entry for this job was punched.


 THERE IS NO SCIENCE WITHOUT FANCY, NOR ART WITHOUT FACTS.
     -- VLADIMIR NABAKOV
 Job cpu time:       0 days  0 hours  8 minutes 16.5 seconds.
 Elapsed time:       0 days  0 hours  1 minutes  2.3 seconds.
 File lengths (MBytes):  RWF=    810 Int=      0 D2E=      0 Chk=    192 Scr=      1
 Normal termination of Gaussian 16 at Mon Mar 21 04:03:05 2022.
