 Entering Gaussian System, Link 0=g16
 Input=000016.com
 Output=000016.log
 Initial command:
 /home/sabyasachi/g16/l1.exe "/scratch/sabyasachi/PBS_7976018.helios/Gau-30505.inp" -scrdir="/scratch/sabyasachi/PBS_7976018.helios/"
 Entering Link 1 = /home/sabyasachi/g16/l1.exe PID=     30506.
  
 Copyright (c) 1988-2019, Gaussian, Inc.  All Rights Reserved.
  
 This is part of the Gaussian(R) 16 program.  It is based on
 the Gaussian(R) 09 system (copyright 2009, Gaussian, Inc.),
 the Gaussian(R) 03 system (copyright 2003, Gaussian, Inc.),
 the Gaussian(R) 98 system (copyright 1998, Gaussian, Inc.),
 the Gaussian(R) 94 system (copyright 1995, Gaussian, Inc.),
 the Gaussian 92(TM) system (copyright 1992, Gaussian, Inc.),
 the Gaussian 90(TM) system (copyright 1990, Gaussian, Inc.),
 the Gaussian 88(TM) system (copyright 1988, Gaussian, Inc.),
 the Gaussian 86(TM) system (copyright 1986, Carnegie Mellon
 University), and the Gaussian 82(TM) system (copyright 1983,
 Carnegie Mellon University). Gaussian is a federally registered
 trademark of Gaussian, Inc.
  
 This software contains proprietary and confidential information,
 including trade secrets, belonging to Gaussian, Inc.
  
 This software is provided under written license and may be
 used, copied, transmitted, or stored only in accord with that
 written license.
  
 The following legend is applicable only to US Government
 contracts under FAR:
  
                    RESTRICTED RIGHTS LEGEND
  
 Use, reproduction and disclosure by the US Government is
 subject to restrictions as set forth in subparagraphs (a)
 and (c) of the Commercial Computer Software - Restricted
 Rights clause in FAR 52.227-19.
  
 Gaussian, Inc.
 340 Quinnipiac St., Bldg. 40, Wallingford CT 06492
  
  
 ---------------------------------------------------------------
 Warning -- This program may not be used in any manner that
 competes with the business of Gaussian, Inc. or will provide
 assistance to any competitor of Gaussian, Inc.  The licensee
 of this program is prohibited from giving any competitor of
 Gaussian, Inc. access to this program.  By using this program,
 the user acknowledges that Gaussian, Inc. is engaged in the
 business of creating and licensing software in the field of
 computational chemistry and represents and warrants to the
 licensee that it is not a competitor of Gaussian, Inc. and that
 it will not use this program in any manner prohibited above.
 ---------------------------------------------------------------
  

 Cite this work as:
 Gaussian 16, Revision C.01,
 M. J. Frisch, G. W. Trucks, H. B. Schlegel, G. E. Scuseria, 
 M. A. Robb, J. R. Cheeseman, G. Scalmani, V. Barone, 
 G. A. Petersson, H. Nakatsuji, X. Li, M. Caricato, A. V. Marenich, 
 J. Bloino, B. G. Janesko, R. Gomperts, B. Mennucci, H. P. Hratchian, 
 J. V. Ortiz, A. F. Izmaylov, J. L. Sonnenberg, D. Williams-Young, 
 F. Ding, F. Lipparini, F. Egidi, J. Goings, B. Peng, A. Petrone, 
 T. Henderson, D. Ranasinghe, V. G. Zakrzewski, J. Gao, N. Rega, 
 G. Zheng, W. Liang, M. Hada, M. Ehara, K. Toyota, R. Fukuda, 
 J. Hasegawa, M. Ishida, T. Nakajima, Y. Honda, O. Kitao, H. Nakai, 
 T. Vreven, K. Throssell, J. A. Montgomery, Jr., J. E. Peralta, 
 F. Ogliaro, M. J. Bearpark, J. J. Heyd, E. N. Brothers, K. N. Kudin, 
 V. N. Staroverov, T. A. Keith, R. Kobayashi, J. Normand, 
 K. Raghavachari, A. P. Rendell, J. C. Burant, S. S. Iyengar, 
 J. Tomasi, M. Cossi, J. M. Millam, M. Klene, C. Adamo, R. Cammi, 
 J. W. Ochterski, R. L. Martin, K. Morokuma, O. Farkas, 
 J. B. Foresman, and D. J. Fox, Gaussian, Inc., Wallingford CT, 2019.
 
 ******************************************
 Gaussian 16:  EM64L-G16RevC.01  3-Jul-2019
                21-Mar-2022 
 ******************************************
 %mem=64gb
 %nproc=8
 Will use up to    8 processors via shared memory.
 ---------------------------------------------------------------------
 #P TD(Nstates=10000) b3lyp/Gen SCF(maxcycles=100) Int(Grid=ultrafine)
 ---------------------------------------------------------------------
 1/38=1,172=1/1;
 2/12=2,17=6,18=5,40=1/2;
 3/5=7,11=9,25=1,30=1,74=-5,75=-5/1,2,3,8;
 4//1;
 5/5=2,7=100,38=5/2;
 8/6=1,10=1,108=10000/1;
 9/41=10000,42=1,70=2/14;
 6/7=2,8=2,9=2,10=2/1;
 99/5=1,9=1/99;
 Leave Link    1 at Mon Mar 21 20:07:30 2022, MaxMem=  8589934592 cpu:               0.4 elap:               0.1
 (Enter /home/sabyasachi/g16/l101.exe)
 ---------------------
 xGDB7_00001_tier4.com
 ---------------------
 Symbolic Z-matrix:
 Charge =  0 Multiplicity = 1
 6                    -1.20842  -0.23907  -0.02192 
 6                     0.08389   0.55345   0.04673 
 8                     1.23347  -0.256    -0.10586 
 1                    -2.072     0.42514   0.0517 
 1                    -1.27067  -0.95776   0.79973 
 1                    -1.27063  -0.78828  -0.96233 
 1                     0.13003   1.1192    0.98611 
 1                     0.12595   1.27703  -0.76855 
 1                     1.23675  -0.91361   0.59134 
 
 ITRead=  0  0  0  0  0  0  0  0  0
 MicOpt= -1 -1 -1 -1 -1 -1 -1 -1 -1
 NAtoms=      9 NQM=        9 NQMF=       0 NMMI=      0 NMMIF=      0
                NMic=       0 NMicF=      0.
                    Isotopes and Nuclear Properties:
 (Nuclear quadrupole moments (NQMom) in fm**2, nuclear magnetic moments (NMagM)
  in nuclear magnetons)

  Atom         1           2           3           4           5           6           7           8           9
 IAtWgt=          12          12          16           1           1           1           1           1           1
 AtmWgt=  12.0000000  12.0000000  15.9949146   1.0078250   1.0078250   1.0078250   1.0078250   1.0078250   1.0078250
 NucSpn=           0           0           0           1           1           1           1           1           1
 AtZEff=  -0.0000000  -0.0000000  -0.0000000  -0.0000000  -0.0000000  -0.0000000  -0.0000000  -0.0000000  -0.0000000
 NQMom=    0.0000000   0.0000000   0.0000000   0.0000000   0.0000000   0.0000000   0.0000000   0.0000000   0.0000000
 NMagM=    0.0000000   0.0000000   0.0000000   2.7928460   2.7928460   2.7928460   2.7928460   2.7928460   2.7928460
 AtZNuc=   6.0000000   6.0000000   8.0000000   1.0000000   1.0000000   1.0000000   1.0000000   1.0000000   1.0000000
 Leave Link  101 at Mon Mar 21 20:07:31 2022, MaxMem=  8589934592 cpu:               0.6 elap:               0.1
 (Enter /home/sabyasachi/g16/l202.exe)
                          Input orientation:                          
 ---------------------------------------------------------------------
 Center     Atomic      Atomic             Coordinates (Angstroms)
 Number     Number       Type             X           Y           Z
 ---------------------------------------------------------------------
      1          6           0       -1.208422   -0.239069   -0.021917
      2          6           0        0.083893    0.553452    0.046734
      3          8           0        1.233467   -0.256002   -0.105864
      4          1           0       -2.071999    0.425136    0.051700
      5          1           0       -1.270670   -0.957756    0.799731
      6          1           0       -1.270625   -0.788280   -0.962327
      7          1           0        0.130030    1.119197    0.986112
      8          1           0        0.125952    1.277026   -0.768547
      9          1           0        1.236751   -0.913605    0.591341
 ---------------------------------------------------------------------
                    Distance matrix (angstroms):
                    1          2          3          4          5
     1  C    0.000000
     2  C    1.517524   0.000000
     3  O    2.443390   1.414221   0.000000
     4  H    1.091949   2.159713   3.378592   0.000000
     5  H    1.093385   2.164624   2.753773   1.764672   0.000000
     6  H    1.090813   2.157120   2.699505   1.772803   1.770189
     7  H    2.156957   1.097555   2.073923   2.490738   2.512057
     8  H    2.153266   1.090876   2.003974   2.495899   3.066643
     9  H    2.609589   1.943691   0.958409   3.609885   2.516453
                    6          7          8          9
     6  H    0.000000
     7  H    3.065407   0.000000
     8  H    2.500693   1.761748   0.000000
     9  H    2.952376   2.347969   2.807496   0.000000
 Stoichiometry    C2H6O
 Framework group  C1[X(C2H6O)]
 Deg. of freedom    21
 Full point group                 C1      NOp   1
 Largest Abelian subgroup         C1      NOp   1
 Largest concise Abelian subgroup C1      NOp   1
                         Standard orientation:                         
 ---------------------------------------------------------------------
 Center     Atomic      Atomic             Coordinates (Angstroms)
 Number     Number       Type             X           Y           Z
 ---------------------------------------------------------------------
      1          6           0       -1.208422   -0.239069   -0.021917
      2          6           0        0.083893    0.553452    0.046734
      3          8           0        1.233467   -0.256002   -0.105864
      4          1           0       -2.071999    0.425135    0.051700
      5          1           0       -1.270670   -0.957756    0.799731
      6          1           0       -1.270625   -0.788280   -0.962327
      7          1           0        0.130030    1.119197    0.986112
      8          1           0        0.125951    1.277026   -0.768547
      9          1           0        1.236751   -0.913605    0.591341
 ---------------------------------------------------------------------
 Rotational constants (GHZ):          34.6666409           9.2583988           8.1755823
 Leave Link  202 at Mon Mar 21 20:07:31 2022, MaxMem=  8589934592 cpu:               0.1 elap:               0.0
 (Enter /home/sabyasachi/g16/l301.exe)
 General basis read from cards:  (5D, 7F)
 Centers:       4      5      6      7      8      9
 S 3 1.00
     Exponent=  1.3010701000D+01 Coefficients=  1.9682158000D-02
     Exponent=  1.9622572000D+00 Coefficients=  1.3796524000D-01
     Exponent=  4.4453796000D-01 Coefficients=  4.7831935000D-01
 S 1 1.00
     Exponent=  1.2194962000D-01 Coefficients=  1.0000000000D+00
 P 1 1.00
     Exponent=  8.0000000000D-01 Coefficients=  1.0000000000D+00
 P 1 1.00
     Exponent=  1.1704099050D-01 Coefficients=  1.0000000000D+00
 ****
 Centers:       1      2
 S 5 1.00
     Exponent=  1.2384016938D+03 Coefficients=  5.4568832082D-03
     Exponent=  1.8629004992D+02 Coefficients=  4.0638409211D-02
     Exponent=  4.2251176346D+01 Coefficients=  1.8025593888D-01
     Exponent=  1.1676557932D+01 Coefficients=  4.6315121755D-01
     Exponent=  3.5930506482D+00 Coefficients=  4.4087173314D-01
 S 1 1.00
     Exponent=  4.0245147363D-01 Coefficients=  1.0000000000D+00
 S 1 1.00
     Exponent=  1.3090182668D-01 Coefficients=  1.0000000000D+00
 S 1 1.00
     Exponent=  6.7053540256D-02 Coefficients=  1.0000000000D+00
 P 3 1.00
     Exponent=  9.4680970621D+00 Coefficients=  3.8387871728D-02
     Exponent=  2.0103545142D+00 Coefficients=  2.1117025112D-01
     Exponent=  5.4771004707D-01 Coefficients=  5.1328172114D-01
 P 1 1.00
     Exponent=  1.5268613795D-01 Coefficients=  1.0000000000D+00
 D 1 1.00
     Exponent=  8.0000000000D-01 Coefficients=  1.0000000000D+00
 D 1 1.00
     Exponent=  1.1713185140D-01 Coefficients=  1.0000000000D+00
 ****
 Centers:       3
 S 5 1.00
     Exponent=  2.2661767785D+03 Coefficients= -5.3431809926D-03
     Exponent=  3.4087010191D+02 Coefficients= -3.9890039230D-02
     Exponent=  7.7363135167D+01 Coefficients= -1.7853911985D-01
     Exponent=  2.1479644940D+01 Coefficients= -4.6427684959D-01
     Exponent=  6.6589433124D+00 Coefficients= -4.4309745172D-01
 S 1 1.00
     Exponent=  8.0975975668D-01 Coefficients=  1.0000000000D+00
 S 1 1.00
     Exponent=  2.5530772234D-01 Coefficients=  1.0000000000D+00
 S 1 1.00
     Exponent=  7.6572453250D-02 Coefficients=  1.0000000000D+00
 P 3 1.00
     Exponent=  1.7721504317D+01 Coefficients=  4.3394573193D-02
     Exponent=  3.8635505440D+00 Coefficients=  2.3094120765D-01
     Exponent=  1.0480920883D+00 Coefficients=  5.1375311064D-01
 P 1 1.00
     Exponent=  2.7641544411D-01 Coefficients=  1.0000000000D+00
 P 1 1.00
     Exponent=  6.9002276350D-02 Coefficients=  1.0000000000D+00
 D 1 1.00
     Exponent=  1.2000000000D+00 Coefficients=  1.0000000000D+00
 D 1 1.00
     Exponent=  1.7992024323D-01 Coefficients=  1.0000000000D+00
 ****
 Ernie: Thresh=  0.10000D-02 Tol=  0.10000D-05 Strict=F.
 There are   117 symmetry adapted cartesian basis functions of A   symmetry.
 There are   111 symmetry adapted basis functions of A   symmetry.
   111 basis functions,   159 primitive gaussians,   117 cartesian basis functions
    13 alpha electrons       13 beta electrons
       nuclear repulsion energy        81.9103171642 Hartrees.
 IExCor=  402 DFT=T Ex+Corr=B3LYP ExCW=0 ScaHFX=  0.200000
 ScaDFX=  0.800000  0.720000  1.000000  0.810000 ScalE2=  1.000000  1.000000
 IRadAn=      5 IRanWt=     -1 IRanGd=            0 ICorTp=0 IEmpDi=  4
 NAtoms=    9 NActive=    9 NUniq=    9 SFac= 1.00D+00 NAtFMM=   60 NAOKFM=F Big=F
 Integral buffers will be    131072 words long.
 Regular integral format.
 Two-electron integral symmetry is turned on.
 Leave Link  301 at Mon Mar 21 20:07:31 2022, MaxMem=  8589934592 cpu:               0.6 elap:               0.1
 (Enter /home/sabyasachi/g16/l302.exe)
 NPDir=0 NMtPBC=     1 NCelOv=     1 NCel=       1 NClECP=     1 NCelD=      1
         NCelK=      1 NCelE2=     1 NClLst=     1 CellRange=     0.0.
 One-electron integrals computed using PRISM.
 One-electron integral symmetry used in STVInt
 NBasis=   111 RedAO= T EigKep=  3.00D-04  NBF=   111
 NBsUse=   111 1.00D-06 EigRej= -1.00D+00 NBFU=   111
 Precomputing XC quadrature grid using
 IXCGrd= 4 IRadAn=           5 IRanWt=          -1 IRanGd=           0 AccXCQ= 0.00D+00.
 Generated NRdTot=       0 NPtTot=           0 NUsed=           0 NTot=          32
 NSgBfM=   117   117   117   117   117 MxSgAt=     9 MxSgA2=     9.
 Leave Link  302 at Mon Mar 21 20:07:31 2022, MaxMem=  8589934592 cpu:               1.1 elap:               0.2
 (Enter /home/sabyasachi/g16/l303.exe)
 DipDrv:  MaxL=1.
 Leave Link  303 at Mon Mar 21 20:07:31 2022, MaxMem=  8589934592 cpu:               0.2 elap:               0.0
 (Enter /home/sabyasachi/g16/l308.exe)
 Leave Link  308 at Mon Mar 21 20:07:31 2022, MaxMem=  8589934592 cpu:               0.2 elap:               0.1
 (Enter /home/sabyasachi/g16/l401.exe)
 ExpMin= 6.71D-02 ExpMax= 2.27D+03 ExpMxC= 3.41D+02 IAcc=3 IRadAn=         5 AccDes= 0.00D+00
 Harris functional with IExCor=  402 and IRadAn=       5 diagonalized for initial guess.
 HarFok:  IExCor=  402 AccDes= 0.00D+00 IRadAn=         5 IDoV= 1 UseB2=F ITyADJ=14
 ICtDFT=  3500011 ScaDFX=  1.000000  1.000000  1.000000  1.000000
 FoFCou: FMM=F IPFlag=           0 FMFlag=      100000 FMFlg1=           0
         NFxFlg=           0 DoJE=T BraDBF=F KetDBF=T FulRan=T
         wScrn=  0.000000 ICntrl=       500 IOpCl=  0 I1Cent=   200000004 NGrid=           0
         NMat0=    1 NMatS0=      1 NMatT0=    0 NMatD0=    1 NMtDS0=    0 NMtDT0=    0
 Petite list used in FoFCou.
 Harris En= -154.974887079470    
 JPrj=0 DoOrth=F DoCkMO=F.
 Leave Link  401 at Mon Mar 21 20:07:31 2022, MaxMem=  8589934592 cpu:               3.4 elap:               0.4
 (Enter /home/sabyasachi/g16/l502.exe)
 Keep R1 ints in memory in canonical form, NReq=26869764.
 FoFCou: FMM=F IPFlag=           0 FMFlag=           0 FMFlg1=           0
         NFxFlg=           0 DoJE=F BraDBF=F KetDBF=F FulRan=T
         wScrn=  0.000000 ICntrl=       600 IOpCl=  0 I1Cent=           0 NGrid=           0
         NMat0=    1 NMatS0=   6216 NMatT0=    0 NMatD0=    1 NMtDS0=    0 NMtDT0=    0
 Symmetry not used in FoFCou.
 Two-electron integral symmetry not used.
 Closed shell SCF:
 Using DIIS extrapolation, IDIIS=  1040.
 NGot=  8589934592 LenX=  8570582328 LenY=  8570568198
 Requested convergence on RMS density matrix=1.00D-08 within 100 cycles.
 Requested convergence on MAX density matrix=1.00D-06.
 Requested convergence on             energy=1.00D-06.
 No special actions if energy rises.
 Integral accuracy reduced to 1.0D-05 until final iterations.

 Cycle   1  Pass 0  IDiag  1:
 E= -154.822093865070    
 DIIS: error= 2.76D-02 at cycle   1 NSaved=   1.
 NSaved= 1 IEnMin= 1 EnMin= -154.822093865070     IErMin= 1 ErrMin= 2.76D-02
 ErrMax= 2.76D-02  0.00D+00 EMaxC= 1.00D-01 BMatC= 1.21D-01 BMatP= 1.21D-01
 IDIUse=3 WtCom= 7.24D-01 WtEn= 2.76D-01
 Coeff-Com:  0.100D+01
 Coeff-En:   0.100D+01
 Coeff:      0.100D+01
 Gap=     0.194 Goal=   None    Shift=    0.000
 GapD=    0.194 DampG=1.000 DampE=0.500 DampFc=0.5000 IDamp=-1.
 Damping current iteration by 5.00D-01
 RMSDP=7.72D-03 MaxDP=1.76D-01              OVMax= 1.82D-01

 Cycle   2  Pass 0  IDiag  1:
 E= -154.866794782907     Delta-E=       -0.044700917837 Rises=F Damp=T
 DIIS: error= 5.71D-03 at cycle   2 NSaved=   2.
 NSaved= 2 IEnMin= 2 EnMin= -154.866794782907     IErMin= 2 ErrMin= 5.71D-03
 ErrMax= 5.71D-03  0.00D+00 EMaxC= 1.00D-01 BMatC= 8.54D-03 BMatP= 1.21D-01
 IDIUse=3 WtCom= 9.43D-01 WtEn= 5.71D-02
 Coeff-Com:  0.153D+00 0.847D+00
 Coeff-En:   0.242D+00 0.758D+00
 Coeff:      0.158D+00 0.842D+00
 Gap=     0.301 Goal=   None    Shift=    0.000
 RMSDP=2.26D-03 MaxDP=5.30D-02 DE=-4.47D-02 OVMax= 1.22D-01

 Cycle   3  Pass 0  IDiag  1:
 E= -154.938918205702     Delta-E=       -0.072123422795 Rises=F Damp=F
 DIIS: error= 3.39D-03 at cycle   3 NSaved=   3.
 NSaved= 3 IEnMin= 3 EnMin= -154.938918205702     IErMin= 3 ErrMin= 3.39D-03
 ErrMax= 3.39D-03  0.00D+00 EMaxC= 1.00D-01 BMatC= 3.80D-03 BMatP= 8.54D-03
 IDIUse=3 WtCom= 9.66D-01 WtEn= 3.39D-02
 Coeff-Com:  0.416D-01 0.408D+00 0.551D+00
 Coeff-En:   0.000D+00 0.000D+00 0.100D+01
 Coeff:      0.402D-01 0.394D+00 0.566D+00
 Gap=     0.293 Goal=   None    Shift=    0.000
 RMSDP=6.62D-04 MaxDP=1.48D-02 DE=-7.21D-02 OVMax= 1.65D-02

 Cycle   4  Pass 0  IDiag  1:
 E= -154.941487625950     Delta-E=       -0.002569420248 Rises=F Damp=F
 DIIS: error= 1.41D-03 at cycle   4 NSaved=   4.
 NSaved= 4 IEnMin= 4 EnMin= -154.941487625950     IErMin= 4 ErrMin= 1.41D-03
 ErrMax= 1.41D-03  0.00D+00 EMaxC= 1.00D-01 BMatC= 5.56D-04 BMatP= 3.80D-03
 IDIUse=3 WtCom= 9.86D-01 WtEn= 1.41D-02
 Coeff-Com: -0.839D-03 0.887D-01 0.295D+00 0.617D+00
 Coeff-En:   0.000D+00 0.000D+00 0.111D+00 0.889D+00
 Coeff:     -0.827D-03 0.874D-01 0.292D+00 0.621D+00
 Gap=     0.293 Goal=   None    Shift=    0.000
 RMSDP=2.19D-04 MaxDP=5.29D-03 DE=-2.57D-03 OVMax= 5.16D-03

 Cycle   5  Pass 0  IDiag  1:
 E= -154.941962364037     Delta-E=       -0.000474738086 Rises=F Damp=F
 DIIS: error= 2.43D-04 at cycle   5 NSaved=   5.
 NSaved= 5 IEnMin= 5 EnMin= -154.941962364037     IErMin= 5 ErrMin= 2.43D-04
 ErrMax= 2.43D-04  0.00D+00 EMaxC= 1.00D-01 BMatC= 1.13D-05 BMatP= 5.56D-04
 IDIUse=3 WtCom= 9.98D-01 WtEn= 2.43D-03
 Coeff-Com: -0.282D-02 0.417D-02 0.542D-01 0.197D+00 0.748D+00
 Coeff-En:   0.000D+00 0.000D+00 0.000D+00 0.000D+00 0.100D+01
 Coeff:     -0.282D-02 0.416D-02 0.541D-01 0.196D+00 0.749D+00
 Gap=     0.293 Goal=   None    Shift=    0.000
 RMSDP=4.66D-05 MaxDP=6.62D-04 DE=-4.75D-04 OVMax= 7.82D-04

 Cycle   6  Pass 0  IDiag  1:
 E= -154.941971216707     Delta-E=       -0.000008852670 Rises=F Damp=F
 DIIS: error= 5.18D-05 at cycle   6 NSaved=   6.
 NSaved= 6 IEnMin= 6 EnMin= -154.941971216707     IErMin= 6 ErrMin= 5.18D-05
 ErrMax= 5.18D-05  0.00D+00 EMaxC= 1.00D-01 BMatC= 6.45D-07 BMatP= 1.13D-05
 IDIUse=1 WtCom= 1.00D+00 WtEn= 0.00D+00
 Coeff-Com: -0.107D-02-0.144D-03 0.171D-01 0.728D-01 0.333D+00 0.578D+00
 Coeff:     -0.107D-02-0.144D-03 0.171D-01 0.728D-01 0.333D+00 0.578D+00
 Gap=     0.293 Goal=   None    Shift=    0.000
 RMSDP=1.07D-05 MaxDP=3.05D-04 DE=-8.85D-06 OVMax= 1.98D-04

 Cycle   7  Pass 0  IDiag  1:
 E= -154.941971817756     Delta-E=       -0.000000601049 Rises=F Damp=F
 DIIS: error= 1.19D-05 at cycle   7 NSaved=   7.
 NSaved= 7 IEnMin= 7 EnMin= -154.941971817756     IErMin= 7 ErrMin= 1.19D-05
 ErrMax= 1.19D-05  0.00D+00 EMaxC= 1.00D-01 BMatC= 3.13D-08 BMatP= 6.45D-07
 IDIUse=1 WtCom= 1.00D+00 WtEn= 0.00D+00
 Coeff-Com: -0.159D-03-0.413D-03 0.278D-02 0.141D-01 0.728D-01 0.226D+00
 Coeff-Com:  0.685D+00
 Coeff:     -0.159D-03-0.413D-03 0.278D-02 0.141D-01 0.728D-01 0.226D+00
 Coeff:      0.685D+00
 Gap=     0.293 Goal=   None    Shift=    0.000
 RMSDP=2.27D-06 MaxDP=5.76D-05 DE=-6.01D-07 OVMax= 4.49D-05

 Initial convergence to 1.0D-05 achieved.  Increase integral accuracy.
 Cycle   8  Pass 1  IDiag  1:
 E= -154.941975750610     Delta-E=       -0.000003932854 Rises=F Damp=F
 DIIS: error= 2.33D-06 at cycle   1 NSaved=   1.
 NSaved= 1 IEnMin= 1 EnMin= -154.941975750610     IErMin= 1 ErrMin= 2.33D-06
 ErrMax= 2.33D-06  0.00D+00 EMaxC= 1.00D-01 BMatC= 1.18D-09 BMatP= 1.18D-09
 IDIUse=1 WtCom= 1.00D+00 WtEn= 0.00D+00
 Coeff-Com:  0.100D+01
 Coeff:      0.100D+01
 Gap=     0.293 Goal=   None    Shift=    0.000
 RMSDP=2.27D-06 MaxDP=5.76D-05 DE=-3.93D-06 OVMax= 1.52D-05

 Cycle   9  Pass 1  IDiag  1:
 E= -154.941975751385     Delta-E=       -0.000000000776 Rises=F Damp=F
 DIIS: error= 1.90D-06 at cycle   2 NSaved=   2.
 NSaved= 2 IEnMin= 2 EnMin= -154.941975751385     IErMin= 2 ErrMin= 1.90D-06
 ErrMax= 1.90D-06  0.00D+00 EMaxC= 1.00D-01 BMatC= 6.56D-10 BMatP= 1.18D-09
 IDIUse=1 WtCom= 1.00D+00 WtEn= 0.00D+00
 Coeff-Com:  0.418D+00 0.582D+00
 Coeff:      0.418D+00 0.582D+00
 Gap=     0.293 Goal=   None    Shift=    0.000
 RMSDP=3.43D-07 MaxDP=6.14D-06 DE=-7.76D-10 OVMax= 7.02D-06

 Cycle  10  Pass 1  IDiag  1:
 E= -154.941975751994     Delta-E=       -0.000000000609 Rises=F Damp=F
 DIIS: error= 4.22D-07 at cycle   3 NSaved=   3.
 NSaved= 3 IEnMin= 3 EnMin= -154.941975751994     IErMin= 3 ErrMin= 4.22D-07
 ErrMax= 4.22D-07  0.00D+00 EMaxC= 1.00D-01 BMatC= 5.93D-11 BMatP= 6.56D-10
 IDIUse=1 WtCom= 1.00D+00 WtEn= 0.00D+00
 Coeff-Com:  0.123D+00 0.267D+00 0.610D+00
 Coeff:      0.123D+00 0.267D+00 0.610D+00
 Gap=     0.293 Goal=   None    Shift=    0.000
 RMSDP=8.34D-08 MaxDP=1.73D-06 DE=-6.09D-10 OVMax= 2.05D-06

 Cycle  11  Pass 1  IDiag  1:
 E= -154.941975752037     Delta-E=       -0.000000000043 Rises=F Damp=F
 DIIS: error= 1.66D-07 at cycle   4 NSaved=   4.
 NSaved= 4 IEnMin= 4 EnMin= -154.941975752037     IErMin= 4 ErrMin= 1.66D-07
 ErrMax= 1.66D-07  0.00D+00 EMaxC= 1.00D-01 BMatC= 8.01D-12 BMatP= 5.93D-11
 IDIUse=1 WtCom= 1.00D+00 WtEn= 0.00D+00
 Coeff-Com:  0.302D-02 0.525D-01 0.303D+00 0.641D+00
 Coeff:      0.302D-02 0.525D-01 0.303D+00 0.641D+00
 Gap=     0.293 Goal=   None    Shift=    0.000
 RMSDP=3.28D-08 MaxDP=6.64D-07 DE=-4.26D-11 OVMax= 6.46D-07

 Cycle  12  Pass 1  IDiag  1:
 E= -154.941975752040     Delta-E=       -0.000000000004 Rises=F Damp=F
 DIIS: error= 5.06D-08 at cycle   5 NSaved=   5.
 NSaved= 5 IEnMin= 5 EnMin= -154.941975752040     IErMin= 5 ErrMin= 5.06D-08
 ErrMax= 5.06D-08  0.00D+00 EMaxC= 1.00D-01 BMatC= 8.76D-13 BMatP= 8.01D-12
 IDIUse=1 WtCom= 1.00D+00 WtEn= 0.00D+00
 Coeff-Com: -0.561D-02 0.124D-01 0.128D+00 0.355D+00 0.510D+00
 Coeff:     -0.561D-02 0.124D-01 0.128D+00 0.355D+00 0.510D+00
 Gap=     0.293 Goal=   None    Shift=    0.000
 RMSDP=9.90D-09 MaxDP=2.49D-07 DE=-3.52D-12 OVMax= 2.29D-07

 SCF Done:  E(RB3LYP) =  -154.941975752     A.U. after   12 cycles
            NFock= 12  Conv=0.99D-08     -V/T= 2.0103
 KE= 1.533573685920D+02 PE=-5.249639553987D+02 EE= 1.347542938905D+02
 Leave Link  502 at Mon Mar 21 20:07:35 2022, MaxMem=  8589934592 cpu:              26.6 elap:               3.7
 (Enter /home/sabyasachi/g16/l801.exe)
 DoSCS=F DFT=T ScalE2(SS,OS)=  1.000000  1.000000
 ExpMin= 6.71D-02 ExpMax= 2.27D+03 ExpMxC= 3.41D+02 IAcc=3 IRadAn=         5 AccDes= 0.00D+00
 HarFok:  IExCor=  205 AccDes= 0.00D+00 IRadAn=         5 IDoV=-2 UseB2=F ITyADJ=14
 ICtDFT= 12500011 ScaDFX=  1.000000  1.000000  1.000000  1.000000
 Largest valence mixing into a core orbital is  7.00D-05
 Largest core mixing into a valence orbital is  1.76D-05
 Range of M.O.s used for correlation:     4   111
 NBasis=   111 NAE=    13 NBE=    13 NFC=     3 NFV=     0
 NROrb=    108 NOA=    10 NOB=    10 NVA=    98 NVB=    98

 **** Warning!!: The largest alpha MO coefficient is  0.22881373D+02

 Leave Link  801 at Mon Mar 21 20:07:35 2022, MaxMem=  8589934592 cpu:               0.6 elap:               0.1
 (Enter /home/sabyasachi/g16/l914.exe)
 RHF ground state
 Keep R1, R2, and R3 ints in memory in canonical form, NReq=1127667128.
 FoFCou: FMM=F IPFlag=           0 FMFlag=           0 FMFlg1=           0
         NFxFlg=           0 DoJE=F BraDBF=F KetDBF=F FulRan=T
         wScrn=  0.000000 ICntrl=       600 IOpCl=  0 I1Cent=           0 NGrid=           0
         NMat0=    1 NMatS0=   6216 NMatT0=    0 NMatD0=    1 NMtDS0=    0 NMtDT0=    0
 Symmetry not used in FoFCou.
 Two-electron integral symmetry not used.
 MDV=  8589934592 DFT=T DoStab=F Mixed=T DoRPA=T DoScal=F NonHer=T
 Making orbital integer symmetry assigments:
 Orbital symmetries:
       Occupied  (A) (A) (A) (A) (A) (A) (A) (A) (A) (A) (A) (A)
                 (A)
       Virtual   (A) (A) (A) (A) (A) (A) (A) (A) (A) (A) (A) (A)
                 (A) (A) (A) (A) (A) (A) (A) (A) (A) (A) (A) (A)
                 (A) (A) (A) (A) (A) (A) (A) (A) (A) (A) (A) (A)
                 (A) (A) (A) (A) (A) (A) (A) (A) (A) (A) (A) (A)
                 (A) (A) (A) (A) (A) (A) (A) (A) (A) (A) (A) (A)
                 (A) (A) (A) (A) (A) (A) (A) (A) (A) (A) (A) (A)
                 (A) (A) (A) (A) (A) (A) (A) (A) (A) (A) (A) (A)
                 (A) (A) (A) (A) (A) (A) (A) (A) (A) (A) (A) (A)
                 (A) (A)
   980 initial guesses have been made.
 Convergence on wavefunction:    0.001000000000000
 Davidson Disk Diagonalization:  ConvIn= 1.00D-03 SkipCon=T Conv= 1.00D-03.
 Max sub-space:  5880 roots to seek:  1960 dimension of matrix:         1960
 *** WARNING: Number of orthogonal guesses is          980
 Iteration     1 Dimension   980 NMult     0 NNew    980
 CISAX will form   980 AO SS matrices at one time.
 NMat=   980 NSing=   980 JSym2X= 0.
 New state      9 was old state     10
 New state     10 was old state      9
 New state     17 was old state     20
 New state     18 was old state     17
 New state     20 was old state     18
 New state     21 was old state     22
 New state     22 was old state     21
 New state     23 was old state     24
 New state     24 was old state     23
 New state     27 was old state     29
 New state     28 was old state     27
 New state     29 was old state     28
 New state     30 was old state     31
 New state     31 was old state     30
 New state     33 was old state     37
 New state     35 was old state     33
 New state     37 was old state     35
 New state     39 was old state     40
 New state     40 was old state     39
 New state     42 was old state     45
 New state     43 was old state     44
 New state     44 was old state     43
 New state     45 was old state     42
 New state     47 was old state     49
 New state     48 was old state     50
 New state     49 was old state     51
 New state     50 was old state     48
 New state     51 was old state     52
 New state     52 was old state     53
 New state     53 was old state     54
 New state     54 was old state     55
 New state     55 was old state     59
 New state     56 was old state     60
 New state     57 was old state     56
 New state     58 was old state     57
 New state     59 was old state     58
 New state     60 was old state     64
 New state     61 was old state     63
 New state     63 was old state     61
 New state     64 was old state     66
 New state     66 was old state     69
 New state     69 was old state     71
 New state     71 was old state     73
 New state     72 was old state     74
 New state     73 was old state     72
 New state     74 was old state     77
 New state     77 was old state     81
 New state     81 was old state     83
 New state     82 was old state     84
 New state     83 was old state     82
 New state     84 was old state     85
 New state     85 was old state     89
 New state     86 was old state     87
 New state     87 was old state     88
 New state     88 was old state     86
 New state     89 was old state     90
 New state     90 was old state     92
 New state     91 was old state     94
 New state     92 was old state     91
 New state     94 was old state     95
 New state     95 was old state    106
 New state     98 was old state     99
 New state     99 was old state    100
 New state    100 was old state     98
 New state    101 was old state    102
 New state    102 was old state    101
 New state    104 was old state    105
 New state    105 was old state    107
 New state    106 was old state    108
 New state    107 was old state    109
 New state    108 was old state    114
 New state    109 was old state    104
 New state    110 was old state    111
 New state    111 was old state    110
 New state    112 was old state    115
 New state    114 was old state    112
 New state    115 was old state    118
 New state    116 was old state    117
 New state    117 was old state    116
 New state    118 was old state    121
 New state    119 was old state    120
 New state    120 was old state    119
 New state    121 was old state    124
 New state    123 was old state    125
 New state    124 was old state    131
 New state    125 was old state    123
 New state    128 was old state    129
 New state    129 was old state    130
 New state    130 was old state    132
 New state    131 was old state    128
 New state    132 was old state    133
 New state    133 was old state    135
 New state    134 was old state    136
 New state    135 was old state    138
 New state    136 was old state    137
 New state    137 was old state    139
 New state    138 was old state    134
 New state    139 was old state    141
 New state    141 was old state    143
 New state    142 was old state    148
 New state    143 was old state    142
 New state    144 was old state    145
 New state    145 was old state    144
 New state    148 was old state    149
 New state    149 was old state    150
 New state    150 was old state    152
 New state    151 was old state    153
 New state    152 was old state    160
 New state    153 was old state    151
 New state    156 was old state    157
 New state    157 was old state    156
 New state    158 was old state    159
 New state    159 was old state    158
 New state    160 was old state    161
 New state    161 was old state    164
 New state    164 was old state    165
 New state    165 was old state    168
 New state    166 was old state    170
 New state    167 was old state    166
 New state    168 was old state    167
 New state    170 was old state    179
 New state    171 was old state    175
 New state    172 was old state    173
 New state    173 was old state    174
 New state    174 was old state    172
 New state    175 was old state    176
 New state    176 was old state    171
 New state    179 was old state    180
 New state    180 was old state    182
 New state    182 was old state    183
 New state    183 was old state    184
 New state    184 was old state    186
 New state    186 was old state    190
 New state    187 was old state    188
 New state    188 was old state    187
 New state    190 was old state    192
 New state    191 was old state    196
 New state    192 was old state    193
 New state    193 was old state    191
 New state    196 was old state    197
 New state    197 was old state    199
 New state    198 was old state    201
 New state    199 was old state    200
 New state    200 was old state    198
 New state    201 was old state    202
 New state    202 was old state    208
 New state    203 was old state    209
 New state    204 was old state    203
 New state    205 was old state    206
 New state    206 was old state    204
 New state    207 was old state    210
 New state    208 was old state    212
 New state    209 was old state    205
 New state    210 was old state    217
 New state    211 was old state    207
 New state    212 was old state    211
 New state    213 was old state    215
 New state    214 was old state    218
 New state    215 was old state    214
 New state    217 was old state    220
 New state    218 was old state    219
 New state    219 was old state    222
 New state    220 was old state    221
 New state    221 was old state    226
 New state    222 was old state    223
 New state    223 was old state    227
 New state    224 was old state    225
 New state    225 was old state    224
 New state    226 was old state    229
 New state    227 was old state    228
 New state    228 was old state    234
 New state    229 was old state    235
 New state    230 was old state    232
 New state    231 was old state    233
 New state    232 was old state    231
 New state    233 was old state    230
 New state    234 was old state    239
 New state    235 was old state    238
 New state    236 was old state    237
 New state    237 was old state    236
 New state    238 was old state    246
 New state    239 was old state    240
 New state    240 was old state    243
 New state    243 was old state    244
 New state    244 was old state    245
 New state    245 was old state    250
 New state    246 was old state    247
 New state    247 was old state    248
 New state    248 was old state    249
 New state    249 was old state    253
 New state    250 was old state    256
 New state    253 was old state    255
 New state    254 was old state    258
 New state    255 was old state    257
 New state    256 was old state    260
 New state    257 was old state    265
 New state    258 was old state    259
 New state    259 was old state    266
 New state    260 was old state    263
 New state    261 was old state    264
 New state    263 was old state    270
 New state    264 was old state    261
 New state    265 was old state    267
 New state    266 was old state    271
 New state    267 was old state    273
 New state    268 was old state    269
 New state    269 was old state    268
 New state    270 was old state    276
 New state    271 was old state    272
 New state    272 was old state    278
 New state    273 was old state    274
 New state    274 was old state    279
 New state    275 was old state    277
 New state    276 was old state    275
 New state    277 was old state    280
 New state    278 was old state    282
 New state    279 was old state    281
 New state    280 was old state    284
 New state    281 was old state    283
 New state    282 was old state    290
 New state    283 was old state    287
 New state    284 was old state    285
 New state    285 was old state    286
 New state    286 was old state    295
 New state    287 was old state    289
 New state    289 was old state    294
 New state    290 was old state    293
 New state    291 was old state    300
 New state    293 was old state    291
 New state    294 was old state    297
 New state    295 was old state    296
 New state    296 was old state    304
 New state    297 was old state    298
 New state    298 was old state    299
 New state    299 was old state    302
 New state    300 was old state    313
 New state    302 was old state    306
 New state    303 was old state    305
 New state    304 was old state    303
 New state    305 was old state    307
 New state    306 was old state    309
 New state    307 was old state    312
 New state    308 was old state    311
 New state    309 was old state    310
 New state    310 was old state    308
 No map to state    311
 New state    312 was old state    316
 New state    313 was old state    318
 New state    316 was old state    317
 New state    317 was old state    320
 New state    318 was old state    319
 New state    319 was old state    334
 New state    320 was old state    322
 New state    322 was old state    326
 New state    323 was old state    328
 New state    326 was old state    323
 New state    328 was old state    329
 New state    329 was old state    336
 New state    331 was old state    333
 New state    332 was old state    331
 New state    333 was old state    332
 New state    334 was old state    337
 New state    336 was old state    338
 New state    337 was old state    341
 New state    338 was old state    340
 New state    339 was old state    343
 New state    340 was old state    339
 New state    341 was old state    342
 New state    342 was old state    345
 New state    343 was old state    346
 New state    345 was old state    350
 New state    346 was old state    359
 New state    349 was old state    351
 New state    350 was old state    356
 New state    351 was old state    352
 New state    352 was old state    349
 New state    353 was old state    354
 New state    354 was old state    353
 New state    355 was old state    357
 New state    356 was old state    355
 New state    357 was old state    358
 New state    358 was old state    361
 New state    359 was old state    360
 New state    360 was old state    362
 New state    361 was old state    365
 New state    362 was old state    363
 New state    363 was old state    366
 New state    364 was old state    367
 New state    365 was old state    364
 New state    366 was old state    371
 New state    367 was old state    369
 New state    369 was old state    370
 New state    370 was old state    372
 New state    371 was old state    380
 New state    372 was old state    373
 New state    373 was old state    376
 New state    374 was old state    375
 New state    375 was old state    374
 New state    376 was old state    381
 New state    377 was old state    378
 New state    378 was old state    377
 New state    379 was old state    383
 New state    380 was old state    382
 New state    381 was old state    384
 New state    382 was old state    387
 New state    383 was old state    379
 New state    384 was old state    386
 New state    386 was old state    388
 New state    387 was old state    389
 New state    388 was old state    390
 New state    389 was old state    391
 New state    390 was old state    392
 New state    391 was old state    401
 New state    392 was old state    393
 New state    393 was old state    395
 New state    395 was old state    398
 New state    397 was old state    403
 New state    398 was old state    399
 New state    399 was old state    400
 New state    400 was old state    402
 New state    401 was old state    397
 New state    402 was old state    405
 New state    403 was old state    406
 New state    404 was old state    407
 New state    405 was old state    404
 New state    406 was old state    409
 New state    407 was old state    417
 New state    409 was old state    410
 New state    410 was old state    412
 New state    411 was old state    416
 New state    412 was old state    411
 New state    413 was old state    421
 New state    414 was old state    413
 New state    416 was old state    414
 New state    417 was old state    427
 New state    421 was old state    422
 New state    422 was old state    426
 New state    423 was old state    424
 New state    424 was old state    423
 New state    425 was old state    435
 New state    426 was old state    425
 New state    427 was old state    429
 New state    429 was old state    431
 New state    431 was old state    432
 No map to state    432
 New state    435 was old state    438
 New state    438 was old state    440
 New state    439 was old state    446
 New state    440 was old state    441
 New state    441 was old state    439
 New state    442 was old state    444
 New state    444 was old state    448
 New state    445 was old state    442
 New state    446 was old state    449
 New state    447 was old state    445
 New state    448 was old state    447
 New state    449 was old state    451
 New state    450 was old state    452
 New state    451 was old state    450
 New state    452 was old state    454
 New state    454 was old state    455
 New state    455 was old state    459
 New state    456 was old state    458
 New state    457 was old state    456
 New state    458 was old state    457
 New state    459 was old state    460
 New state    460 was old state    461
 New state    461 was old state    462
 New state    462 was old state    463
 New state    463 was old state    470
 New state    465 was old state    471
 New state    466 was old state    467
 New state    467 was old state    468
 New state    468 was old state    473
 New state    469 was old state    476
 New state    470 was old state    466
 New state    471 was old state    469
 New state    472 was old state    475
 New state    473 was old state    472
 New state    474 was old state    479
 New state    475 was old state    484
 New state    476 was old state    474
 New state    478 was old state    482
 New state    479 was old state    480
 New state    480 was old state    490
 New state    481 was old state    478
 New state    482 was old state    486
 New state    483 was old state    481
 New state    484 was old state    485
 New state    485 was old state    483
 New state    486 was old state    489
 No map to state    489
 New state    490 was old state    497
 New state    491 was old state    493
 New state    492 was old state    495
 New state    493 was old state    491
 New state    494 was old state    500
 New state    495 was old state    501
 New state    496 was old state    492
 New state    497 was old state    494
 New state    498 was old state    499
 New state    499 was old state    496
 New state    500 was old state    503
 New state    501 was old state    498
 New state    503 was old state    505
 New state    504 was old state    510
 New state    505 was old state    504
 New state    506 was old state    507
 New state    507 was old state    506
 New state    508 was old state    509
 New state    509 was old state    512
 New state    510 was old state    511
 New state    511 was old state    508
 New state    512 was old state    518
 New state    514 was old state    517
 New state    515 was old state    524
 New state    516 was old state    514
 New state    517 was old state    516
 New state    518 was old state    515
 New state    519 was old state    522
 New state    520 was old state    519
 New state    522 was old state    520
 New state    523 was old state    525
 New state    524 was old state    527
 New state    525 was old state    528
 New state    526 was old state    523
 New state    527 was old state    529
 New state    528 was old state    526
 New state    529 was old state    530
 New state    530 was old state    533
 New state    531 was old state    541
 New state    532 was old state    531
 New state    533 was old state    537
 New state    534 was old state    535
 New state    535 was old state    536
 New state    536 was old state    532
 New state    537 was old state    534
 New state    541 was old state    542
 New state    542 was old state    543
 New state    543 was old state    547
 New state    545 was old state    549
 New state    547 was old state    552
 New state    549 was old state    551
 New state    551 was old state    545
 New state    552 was old state    553
 New state    553 was old state    558
 New state    554 was old state    557
 New state    556 was old state    554
 New state    557 was old state    559
 New state    558 was old state    561
 New state    559 was old state    560
 New state    560 was old state    562
 New state    561 was old state    568
 New state    562 was old state    563
 New state    563 was old state    564
 New state    564 was old state    565
 New state    565 was old state    567
 New state    567 was old state    570
 New state    568 was old state    573
 No map to state    570
 New state    573 was old state    575
 New state    575 was old state    576
 New state    576 was old state    577
 New state    577 was old state    583
 New state    578 was old state    579
 New state    579 was old state    580
 New state    580 was old state    578
 New state    581 was old state    582
 New state    582 was old state    581
 New state    583 was old state    584
 New state    584 was old state    587
 New state    585 was old state    589
 New state    586 was old state    585
 New state    587 was old state    586
 New state    589 was old state    593
 New state    590 was old state    592
 New state    591 was old state    590
 New state    592 was old state    596
 New state    593 was old state    591
 New state    594 was old state    595
 New state    595 was old state    594
 New state    596 was old state    597
 New state    597 was old state    601
 New state    601 was old state    603
 New state    602 was old state    604
 New state    603 was old state    606
 New state    604 was old state    602
 New state    606 was old state    607
 New state    607 was old state    609
 New state    609 was old state    611
 New state    611 was old state    612
 New state    612 was old state    613
 New state    613 was old state    615
 New state    614 was old state    616
 New state    615 was old state    619
 New state    616 was old state    617
 New state    617 was old state    614
 New state    618 was old state    620
 New state    619 was old state    621
 New state    620 was old state    618
 New state    621 was old state    624
 New state    622 was old state    625
 New state    623 was old state    622
 New state    624 was old state    626
 New state    625 was old state    623
 New state    626 was old state    634
 New state    627 was old state    628
 New state    628 was old state    627
 New state    629 was old state    630
 New state    630 was old state    629
 New state    633 was old state    637
 New state    634 was old state    633
 New state    637 was old state    639
 New state    639 was old state    642
 New state    641 was old state    643
 New state    642 was old state    645
 New state    643 was old state    641
 New state    645 was old state    646
 New state    646 was old state    647
 New state    647 was old state    648
 No map to state    648
 New state    654 was old state    655
 New state    655 was old state    654
 New state    656 was old state    659
 New state    657 was old state    656
 New state    658 was old state    657
 New state    659 was old state    660
 New state    660 was old state    658
 New state    667 was old state    670
 New state    668 was old state    671
 New state    669 was old state    668
 New state    670 was old state    669
 New state    671 was old state    672
 New state    672 was old state    667
 New state    675 was old state    676
 New state    676 was old state    675
 New state    677 was old state    678
 New state    678 was old state    677
 New state    682 was old state    683
 New state    683 was old state    682
 New state    684 was old state    687
 New state    686 was old state    688
 New state    687 was old state    689
 New state    688 was old state    686
 New state    689 was old state    696
 New state    690 was old state    691
 New state    691 was old state    690
 New state    693 was old state    694
 New state    694 was old state    693
 New state    696 was old state    697
 New state    697 was old state    698
 New state    698 was old state    699
 New state    699 was old state    700
 New state    700 was old state    701
 New state    701 was old state    702
 New state    702 was old state    703
 New state    703 was old state    705
 New state    705 was old state    707
 New state    707 was old state    708
 New state    708 was old state    710
 New state    710 was old state    714
 New state    712 was old state    713
 New state    713 was old state    712
 New state    714 was old state    716
 New state    716 was old state    718
 New state    718 was old state    719
 New state    719 was old state    720
 New state    720 was old state    722
 New state    722 was old state    724
 New state    723 was old state    727
 New state    724 was old state    723
 New state    727 was old state    728
 New state    728 was old state    729
 New state    729 was old state    730
 New state    730 was old state    732
 New state    732 was old state    734
 New state    734 was old state    735
 New state    735 was old state    737
 New state    736 was old state    738
 New state    737 was old state    736
 New state    738 was old state    741
 New state    739 was old state    740
 New state    740 was old state    739
 New state    741 was old state    742
 New state    742 was old state    743
 New state    743 was old state    744
 New state    744 was old state    745
 New state    745 was old state    746
 New state    746 was old state    750
 New state    748 was old state    752
 New state    749 was old state    748
 New state    750 was old state    749
 New state    752 was old state    756
 New state    753 was old state    754
 New state    754 was old state    753
 New state    756 was old state    758
 New state    758 was old state    759
 New state    759 was old state    761
 No map to state    760
 New state    761 was old state    760
 New state    762 was old state    763
 New state    763 was old state    762
 New state    764 was old state    765
 New state    765 was old state    764
 New state    766 was old state    767
 New state    767 was old state    766
 New state    773 was old state    774
 New state    774 was old state    775
 New state    775 was old state    776
 New state    776 was old state    773
 New state    784 was old state    786
 New state    785 was old state    784
 New state    786 was old state    789
 New state    789 was old state    785
 New state    790 was old state    792
 New state    791 was old state    790
 New state    792 was old state    791
 New state    797 was old state    798
 New state    798 was old state    797
 New state    799 was old state    800
 New state    800 was old state    799
 New state    802 was old state    803
 New state    803 was old state    802
 New state    817 was old state    818
 New state    818 was old state    817
 New state    819 was old state    822
 New state    822 was old state    819
 New state    825 was old state    828
 New state    826 was old state    827
 New state    827 was old state    831
 New state    828 was old state    826
 New state    829 was old state    825
 New state    831 was old state    829
 New state    834 was old state    835
 New state    835 was old state    834
 New state    838 was old state    839
 New state    839 was old state    838
 New state    840 was old state    841
 New state    841 was old state    840
 New state    845 was old state    846
 New state    846 was old state    845
 New state    847 was old state    848
 New state    848 was old state    849
 New state    849 was old state    847
 New state    850 was old state    851
 New state    851 was old state    850
 New state    858 was old state    860
 New state    859 was old state    858
 New state    860 was old state    859
 New state    864 was old state    865
 New state    865 was old state    864
 New state    869 was old state    870
 New state    870 was old state    869
 New state    873 was old state    874
 New state    874 was old state    875
 New state    875 was old state    876
 New state    876 was old state    873
 New state    878 was old state    879
 New state    879 was old state    880
 New state    880 was old state    878
 New state    881 was old state    882
 New state    882 was old state    881
 New state    887 was old state    888
 New state    888 was old state    891
 New state    890 was old state    887
 New state    891 was old state    890
 New state    895 was old state    896
 New state    896 was old state    898
 New state    897 was old state    899
 New state    898 was old state    897
 New state    899 was old state    900
 New state    900 was old state    895
 New state    901 was old state    902
 New state    902 was old state    901
 New state    903 was old state    906
 New state    904 was old state    905
 New state    905 was old state    903
 New state    906 was old state    904
 New state    909 was old state    910
 New state    910 was old state    911
 New state    911 was old state    909
 New state    912 was old state    915
 New state    913 was old state    912
 New state    914 was old state    913
 New state    915 was old state    917
 New state    917 was old state    920
 New state    918 was old state    919
 New state    919 was old state    922
 New state    920 was old state    921
 New state    921 was old state    918
 New state    922 was old state    923
 New state    923 was old state    925
 New state    925 was old state    926
 New state    926 was old state    928
 New state    928 was old state    929
 New state    929 was old state    930
 New state    930 was old state    932
 New state    931 was old state    934
 New state    932 was old state    933
 New state    933 was old state    931
 New state    934 was old state    939
 New state    939 was old state    940
 New state    940 was old state    941
 New state    941 was old state    942
 No map to state    942
 New state    946 was old state    947
 New state    947 was old state    948
 New state    948 was old state    950
 New state    949 was old state    946
 New state    950 was old state    951
 New state    951 was old state    949
 New state    961 was old state    962
 New state    962 was old state    961
 Excitation Energies [eV] at current iteration:
 Root      1 :     6.784342782753585
 Root      2 :     7.815576324231697
 Root      3 :     8.182763549776718
 Root      4 :     8.253951633191313
 Root      5 :     8.664265357383526
 Root      6 :     9.153463115778083
 Root      7 :     9.388160569044883
 Root      8 :     9.525522607458067
 Root      9 :     9.531866663935325
 Root     10 :     9.572906741919693
 Root     11 :     9.791804306757056
 Root     12 :     9.862306173136885
 Root     13 :    10.033885707335650
 Root     14 :    10.169453898239260
 Root     15 :    10.424042764209910
 Root     16 :    10.480860337319970
 Root     17 :    10.620267597070180
 Root     18 :    10.685003882387270
 Root     19 :    10.729540214590170
 Root     20 :    10.787701901909270
 Root     21 :    10.933583408788000
 Root     22 :    11.047413872178180
 Root     23 :    11.218105773769540
 Root     24 :    11.236502173645350
 Root     25 :    11.275950069764750
 Root     26 :    11.346417397320680
 Root     27 :    11.524004681529170
 Root     28 :    11.600460025034280
 Root     29 :    11.613335028933010
 Root     30 :    11.788599726369400
 Root     31 :    11.840081832080650
 Root     32 :    11.942587904798410
 Root     33 :    12.077874464023730
 Root     34 :    12.082893197779220
 Root     35 :    12.117368361660930
 Root     36 :    12.170431190457490
 Root     37 :    12.217210402443770
 Root     38 :    12.237901703952330
 Root     39 :    12.395998745796260
 Root     40 :    12.432567417319190
 Root     41 :    12.446299925133680
 Root     42 :    12.595751346350270
 Root     43 :    12.639912039744640
 Root     44 :    12.676625816995390
 Root     45 :    12.717935805084990
 Root     46 :    12.814158278421720
 Root     47 :    12.881377980223990
 Root     48 :    12.972898370780070
 Root     49 :    13.012240529506950
 Root     50 :    13.049058091724940
 Root     51 :    13.115993053000710
 Root     52 :    13.206459678534280
 Root     53 :    13.357122692141150
 Root     54 :    13.415319335942490
 Root     55 :    13.475391583638300
 Root     56 :    13.506291950480180
 Root     57 :    13.610188072487120
 Root     58 :    13.655695642440480
 Root     59 :    13.691197697342900
 Root     60 :    13.752800417410800
 Root     61 :    13.825117585344460
 Root     62 :    13.927583155345630
 Root     63 :    14.000072309351790
 Root     64 :    14.004743919037490
 Root     65 :    14.047891465584230
 Root     66 :    14.093216863878380
 Root     67 :    14.209501250746350
 Root     68 :    14.266906925983570
 Root     69 :    14.337555661211130
 Root     70 :    14.411858939484270
 Root     71 :    14.427576421689460
 Root     72 :    14.534337903757230
 Root     73 :    14.559713300990900
 Root     74 :    14.648447081431810
 Root     75 :    14.668005323334740
 Root     76 :    14.742885346350500
 Root     77 :    14.750928105684850
 Root     78 :    14.826331057125700
 Root     79 :    14.841374880642400
 Root     80 :    14.926912931734490
 Root     81 :    14.991380442399090
 Root     82 :    15.081154708662970
 Root     83 :    15.094210980043860
 Root     84 :    15.176742083668400
 Root     85 :    15.194033168724730
 Root     86 :    15.214265595090650
 Root     87 :    15.321105501877450
 Root     88 :    15.325516196774480
 Root     89 :    15.432682713681940
 Root     90 :    15.481381420754530
 Root     91 :    15.510154987434830
 Root     92 :    15.544801263287760
 Root     93 :    15.574409694123030
 Root     94 :    15.630290127394070
 Root     95 :    15.668724072942860
 Root     96 :    15.849256073428710
 Root     97 :    15.924155780258120
 Root     98 :    15.927130389533830
 Root     99 :    15.988518825369790
 Root    100 :    16.051883023475240
 Root    101 :    16.102122095838600
 Root    102 :    16.133076572985540
 Root    103 :    16.180068918668860
 Root    104 :    16.292783232085910
 Root    105 :    16.339896455949030
 Root    106 :    16.382524973835200
 Root    107 :    16.412089092792040
 Root    108 :    16.426191179827030
 Root    109 :    16.463409665014820
 Root    110 :    16.496703722488600
 Root    111 :    16.571416794154030
 Root    112 :    16.609798416194630
 Root    113 :    16.640885478138780
 Root    114 :    16.645794055421820
 Root    115 :    16.751685757834980
 Root    116 :    16.763807964804290
 Root    117 :    16.804664715573310
 Root    118 :    16.875037869466030
 Root    119 :    16.898838893184150
 Root    120 :    16.954846226913120
 Root    121 :    16.986302402489920
 Root    122 :    17.118997010315010
 Root    123 :    17.153533276151950
 Root    124 :    17.180111320803760
 Root    125 :    17.282867548407100
 Root    126 :    17.339611139429940
 Root    127 :    17.351566937062290
 Root    128 :    17.380780822767260
 Root    129 :    17.461985142151640
 Root    130 :    17.539136894833690
 Root    131 :    17.550530631743590
 Root    132 :    17.574460157048350
 Root    133 :    17.628586957369110
 Root    134 :    17.681673718676620
 Root    135 :    17.708366758473690
 Root    136 :    17.771324352146100
 Root    137 :    17.806033164629660
 Root    138 :    17.818437903958720
 Root    139 :    17.877093222559860
 Root    140 :    17.905525111179620
 Root    141 :    17.945959303030200
 Root    142 :    18.056757583602460
 Root    143 :    18.071801858571510
 Root    144 :    18.093096071858500
 Root    145 :    18.159317155968350
 Root    146 :    18.176752745305570
 Root    147 :    18.195697474792010
 Root    148 :    18.287671476171570
 Root    149 :    18.305823040285460
 Root    150 :    18.358946945678270
 Root    151 :    18.423177266245970
 Root    152 :    18.483708718428900
 Root    153 :    18.490714271488860
 Root    154 :    18.566542214215010
 Root    155 :    18.597195563132850
 Root    156 :    18.700019945086940
 Root    157 :    18.729996699011530
 Root    158 :    18.754739854363410
 Root    159 :    18.801000378052880
 Root    160 :    18.855544559136670
 Root    161 :    18.917940958114810
 Root    162 :    18.943696119355040
 Root    163 :    18.956417676605890
 Root    164 :    18.986100221971700
 Root    165 :    19.056917826090660
 Root    166 :    19.081002204131070
 Root    167 :    19.135876657721150
 Root    168 :    19.181514677262890
 Root    169 :    19.206805042810190
 Root    170 :    19.252327482100720
 Root    171 :    19.354865574245210
 Root    172 :    19.369967836704880
 Root    173 :    19.387282751523260
 Root    174 :    19.402421764021880
 Root    175 :    19.452957757814660
 Root    176 :    19.503031462798540
 Root    177 :    19.554367797929810
 Root    178 :    19.568723090862130
 Root    179 :    19.585180812466680
 Root    180 :    19.620949009349490
 Root    181 :    19.655332334370930
 Root    182 :    19.678204347482810
 Root    183 :    19.711288864784210
 Root    184 :    19.775192156526910
 Root    185 :    19.806540248545890
 Root    186 :    19.839847751264980
 Root    187 :    19.875532087746240
 Root    188 :    19.907702794837220
 Root    189 :    19.986644580514230
 Root    190 :    20.024319112938630
 Root    191 :    20.051936017433120
 Root    192 :    20.102866812961260
 Root    193 :    20.140648073429140
 Root    194 :    20.203677404371010
 Root    195 :    20.213997861828970
 Root    196 :    20.285759678358100
 Root    197 :    20.341246310065760
 Root    198 :    20.386132587087020
 Root    199 :    20.400190031094230
 Root    200 :    20.415761025878500
 Root    201 :    20.501884368295780
 Root    202 :    20.505117279721430
 Root    203 :    20.559659275059900
 Root    204 :    20.595012566212370
 Root    205 :    20.600632650387020
 Root    206 :    20.664371880373140
 Root    207 :    20.695419711699010
 Root    208 :    20.712355084572430
 Root    209 :    20.746557344065200
 Root    210 :    20.777236145601730
 Root    211 :    20.816150511496720
 Root    212 :    20.823162869701710
 Root    213 :    20.873696979706170
 Root    214 :    20.945879625197700
 Root    215 :    20.983706464639990
 Root    216 :    20.989960006830670
 Root    217 :    21.049483065463450
 Root    218 :    21.074280184943630
 Root    219 :    21.083753685575900
 Root    220 :    21.104939797577100
 Root    221 :    21.187228751215810
 Root    222 :    21.242644738534680
 Root    223 :    21.284057245479830
 Root    224 :    21.329658951103470
 Root    225 :    21.365123926115140
 Root    226 :    21.436830477665830
 Root    227 :    21.463992715498730
 Root    228 :    21.542687542695140
 Root    229 :    21.569668595172340
 Root    230 :    21.591568686283360
 Root    231 :    21.629125057226500
 Root    232 :    21.654309652372970
 Root    233 :    21.689898170563890
 Root    234 :    21.703468311768030
 Root    235 :    21.731041336279310
 Root    236 :    21.755929500509470
 Root    237 :    21.776782880247580
 Root    238 :    21.793054078652940
 Root    239 :    21.880261639524310
 Root    240 :    21.915970835314720
 Root    241 :    21.937930718923220
 Root    242 :    21.982415668436530
 Root    243 :    22.012978742650840
 Root    244 :    22.057299908072550
 Root    245 :    22.116189371808680
 Root    246 :    22.158149347580400
 Root    247 :    22.205611643803620
 Root    248 :    22.250931006178840
 Root    249 :    22.278141432979340
 Root    250 :    22.356877974973050
 Root    251 :    22.388296611212350
 Root    252 :    22.412603167124990
 Root    253 :    22.447245952402360
 Root    254 :    22.471965158841710
 Root    255 :    22.500038024720360
 Root    256 :    22.556040461336910
 Root    257 :    22.602820534597690
 Root    258 :    22.648406988248340
 Root    259 :    22.703062733318180
 Root    260 :    22.758286232586950
 Root    261 :    22.812955120748750
 Root    262 :    22.820167733100330
 Root    263 :    22.873067429627170
 Root    264 :    22.884682211365290
 Root    265 :    22.933612967080150
 Root    266 :    22.957337035917550
 Root    267 :    22.981141573418600
 Root    268 :    23.020339622890550
 Root    269 :    23.053692516178290
 Root    270 :    23.083275868529870
 Root    271 :    23.138333307827560
 Root    272 :    23.176733678912040
 Root    273 :    23.277460933490370
 Root    274 :    23.354957658191240
 Root    275 :    23.372250754806750
 Root    276 :    23.420277552647330
 Root    277 :    23.459628558378620
 Root    278 :    23.538422857417360
 Root    279 :    23.580113677487030
 Root    280 :    23.589377226716990
 Root    281 :    23.721593722675120
 Root    282 :    23.748338676484300
 Root    283 :    23.812189112907430
 Root    284 :    23.864927359033930
 Root    285 :    23.905251780874710
 Root    286 :    23.919320533268920
 Root    287 :    23.934313998208670
 Root    288 :    23.974299313106280
 Root    289 :    23.985964214136060
 Root    290 :    24.034199772925840
 Root    291 :    24.135195182510870
 Root    292 :    24.144816826961480
 Root    293 :    24.181122640712980
 Root    294 :    24.248817657271370
 Root    295 :    24.269751523291990
 Root    296 :    24.321424809269040
 Root    297 :    24.368081045353740
 Root    298 :    24.382236353496200
 Root    299 :    24.421671655438600
 Root    300 :    24.435015992998180
 Root    301 :    24.530358532811370
 Root    302 :    24.565218405882630
 Root    303 :    24.660546578560430
 Root    304 :    24.705218896580010
 Root    305 :    24.723419278132980
 Root    306 :    24.815268695848540
 Root    307 :    24.841612501245820
 Root    308 :    24.872397445832820
 Root    309 :    24.892458090174000
 Root    310 :    24.921224528532320
 Root    311 :    24.993655856344560
 Root    312 :    25.021281927535740
 Root    313 :    25.204870614911130
 Root    314 :    25.230224254613400
 Root    315 :    25.261260424973800
 Root    316 :    25.296525457131340
 Root    317 :    25.332327608468720
 Root    318 :    25.398114364692390
 Root    319 :    25.440712149398940
 Root    320 :    25.484938188600560
 Root    321 :    25.595823170825500
 Root    322 :    25.620043936783020
 Root    323 :    25.732629840003660
 Root    324 :    25.779896989191280
 Root    325 :    25.800228172225210
 Root    326 :    25.844307594617550
 Root    327 :    25.885622915260230
 Root    328 :    25.939917707270920
 Root    329 :    25.967172897194090
 Root    330 :    26.006308744900950
 Root    331 :    26.020818275075680
 Root    332 :    26.124870452945040
 Root    333 :    26.178031271960680
 Root    334 :    26.230006578236120
 Root    335 :    26.276324364420860
 Root    336 :    26.318627543616240
 Root    337 :    26.486267570489070
 Root    338 :    26.560458333171680
 Root    339 :    26.585410407548560
 Root    340 :    26.675618594370560
 Root    341 :    26.781118381156730
 Root    342 :    26.812069963252760
 Root    343 :    26.821706018064150
 Root    344 :    26.937781509085660
 Root    345 :    26.988770978782220
 Root    346 :    27.052494078143170
 Root    347 :    27.107910151721140
 Root    348 :    27.190791043704970
 Root    349 :    27.215388047942300
 Root    350 :    27.292997639089190
 Root    351 :    27.338211009492420
 Root    352 :    27.366751378824630
 Root    353 :    27.410607616087460
 Root    354 :    27.470370835541610
 Root    355 :    27.558645354506180
 Root    356 :    27.567772951781610
 Root    357 :    27.613152224488840
 Root    358 :    27.648094512168990
 Root    359 :    27.831331569746090
 Root    360 :    27.877477267058470
 Root    361 :    27.935003393271040
 Root    362 :    28.010037234408270
 Root    363 :    28.082269427779100
 Root    364 :    28.141468341988090
 Root    365 :    28.202258926880620
 Root    366 :    28.269659840182380
 Root    367 :    28.302845803769520
 Root    368 :    28.483242415242970
 Root    369 :    28.559300024350300
 Root    370 :    28.581606522145660
 Root    371 :    28.617730525011470
 Root    372 :    28.724799039564130
 Root    373 :    28.810585966872150
 Root    374 :    28.884440538105890
 Root    375 :    28.896793450214890
 Root    376 :    28.935017194789910
 Root    377 :    28.995728853634590
 Root    378 :    29.077928412254100
 Root    379 :    29.111385928881360
 Root    380 :    29.159819899736090
 Root    381 :    29.169543545527580
 Root    382 :    29.213422098628790
 Root    383 :    29.229476117098670
 Root    384 :    29.292868505815100
 Root    385 :    29.333645735655800
 Root    386 :    29.363523203012400
 Root    387 :    29.419182478549550
 Root    388 :    29.433099514728050
 Root    389 :    29.651528153229440
 Root    390 :    29.715981414679000
 Root    391 :    29.791022711968070
 Root    392 :    29.867134390340570
 Root    393 :    29.944271141195410
 Root    394 :    30.014202097264590
 Root    395 :    30.220586015588780
 Root    396 :    30.259118516230580
 Root    397 :    30.324465584570860
 Root    398 :    30.365331109009250
 Root    399 :    30.388640764589320
 Root    400 :    30.400754266896510
 Root    401 :    30.483442633364870
 Root    402 :    30.507875819986060
 Root    403 :    30.552842143095860
 Root    404 :    30.561886006668870
 Root    405 :    30.651478354992080
 Root    406 :    30.678391389980710
 Root    407 :    30.742282090263820
 Root    408 :    30.761498723303820
 Root    409 :    30.823061022496450
 Root    410 :    30.931838187570140
 Root    411 :    31.046187234265840
 Root    412 :    31.091274539400060
 Root    413 :    31.125739780670560
 Root    414 :    31.189748386991170
 Root    415 :    31.264205412051450
 Root    416 :    31.281264846883110
 Root    417 :    31.362856117407410
 Root    418 :    31.535313594545610
 Root    419 :    31.580039603127580
 Root    420 :    31.762606518500020
 Root    421 :    31.833864927000650
 Root    422 :    31.911475517875320
 Root    423 :    32.127240228471010
 Root    424 :    32.144101775803190
 Root    425 :    32.166463709767050
 Root    426 :    32.248641463877950
 Root    427 :    32.333142200583660
 Root    428 :    32.402916055377550
 Root    429 :    32.513541878660480
 Root    430 :    32.554470204919080
 Root    431 :    32.589457922473880
 Root    432 :    32.605626011428710
 Root    433 :    32.680390876108550
 Root    434 :    33.017812504956280
 Root    435 :    33.113947784638260
 Root    436 :    33.151337893460370
 Root    437 :    33.232325484480960
 Root    438 :    33.256408396143170
 Root    439 :    33.316171742106870
 Root    440 :    33.367609063863870
 Root    441 :    33.396775202019580
 Root    442 :    33.495034561384140
 Root    443 :    33.581041464349410
 Root    444 :    33.594445247497090
 Root    445 :    33.607850201599810
 Root    446 :    33.660858398299370
 Root    447 :    33.665656139504690
 Root    448 :    33.832047122617160
 Root    449 :    33.873963241568180
 Root    450 :    34.049878612415850
 Root    451 :    34.177151510156520
 Root    452 :    34.247357551439340
 Root    453 :    34.291028389947570
 Root    454 :    34.355402750044270
 Root    455 :    34.392801200865970
 Root    456 :    34.532049718196610
 Root    457 :    34.576716751245970
 Root    458 :    34.629835273305140
 Root    459 :    34.689465914919030
 Root    460 :    34.779789687661210
 Root    461 :    34.888787513484740
 Root    462 :    35.045481731651290
 Root    463 :    35.123168545680180
 Root    464 :    35.173347816666250
 Root    465 :    35.236905596381590
 Root    466 :    35.289655962638240
 Root    467 :    35.388113178957870
 Root    468 :    35.411109895748830
 Root    469 :    35.448046533401560
 Root    470 :    35.466565826262880
 Root    471 :    35.570650147299570
 Root    472 :    35.670895615552650
 Root    473 :    35.678288767878120
 Root    474 :    35.778976206542830
 Root    475 :    35.806382622786640
 Root    476 :    35.863432349530020
 Root    477 :    35.936776181508270
 Root    478 :    35.960381903196290
 Root    479 :    36.038086464864440
 Root    480 :    36.121883983867400
 Root    481 :    36.250291422568450
 Root    482 :    36.417222830526730
 Root    483 :    36.459101656308790
 Root    484 :    36.561054599167110
 Root    485 :    36.594690566533040
 Root    486 :    36.668446697174610
 Root    487 :    36.808158005839270
 Root    488 :    36.830714716210910
 Root    489 :    36.897537786356390
 Root    490 :    36.924733468302850
 Root    491 :    37.017034996530600
 Root    492 :    37.143369963068170
 Root    493 :    37.173532255285130
 Root    494 :    37.290660983044990
 Root    495 :    37.368941945572420
 Root    496 :    37.414498905350660
 Root    497 :    37.458476611011920
 Root    498 :    37.479353059042270
 Root    499 :    37.569276792053960
 Root    500 :    37.628449505461880
 Root    501 :    37.639464901448190
 Root    502 :    37.926108839085290
 Root    503 :    37.974261332454440
 Root    504 :    38.060745895045950
 Root    505 :    38.112834199277120
 Root    506 :    38.203277352718520
 Root    507 :    38.426426040456040
 Root    508 :    38.449340031167760
 Root    509 :    38.553550710664520
 Root    510 :    38.623551435790280
 Root    511 :    38.626603846538910
 Root    512 :    38.726515866573630
 Root    513 :    38.797814981245620
 Root    514 :    38.886946111312080
 Root    515 :    38.913493381651940
 Root    516 :    38.975761572391410
 Root    517 :    39.050724367848820
 Root    518 :    39.104373361579170
 Root    519 :    39.337601111333360
 Root    520 :    39.391078873671330
 Root    521 :    39.519130901357970
 Root    522 :    39.605311059261920
 Root    523 :    39.659962851216700
 Root    524 :    39.793831220724850
 Root    525 :    39.807590308141760
 Root    526 :    39.854559054898210
 Root    527 :    39.894408708933130
 Root    528 :    40.032845202904770
 Root    529 :    40.183812604417790
 Root    530 :    40.261756119871180
 Root    531 :    40.296735301292440
 Root    532 :    40.443675915295320
 Root    533 :    40.482677843040370
 Root    534 :    40.517550911866340
 Root    535 :    40.559736974780660
 Root    536 :    40.595517808320390
 Root    537 :    40.621653214470100
 Root    538 :    40.824753450632630
 Root    539 :    40.843240255368360
 Root    540 :    40.924511540933230
 Root    541 :    41.154357685300460
 Root    542 :    41.216811744414030
 Root    543 :    41.429428738476180
 Root    544 :    41.585517801886130
 Root    545 :    41.706137086143510
 Root    546 :    41.792086420073030
 Root    547 :    41.798394831142180
 Root    548 :    41.826708240819760
 Root    549 :    41.879440589792980
 Root    550 :    41.919669814791230
 Root    551 :    41.984056950420550
 Root    552 :    42.183030716029140
 Root    553 :    42.554329983812210
 Root    554 :    42.657245220889380
 Root    555 :    42.772820171148470
 Root    556 :    42.807074382474990
 Root    557 :    42.936549419105730
 Root    558 :    43.058501035278280
 Root    559 :    43.092517666826300
 Root    560 :    43.221040783029420
 Root    561 :    43.349989128967030
 Root    562 :    43.597075575837150
 Root    563 :    43.650794945716560
 Root    564 :    43.814846131194220
 Root    565 :    43.818354004488090
 Root    566 :    43.991414759500240
 Root    567 :    44.080901875595740
 Root    568 :    44.118946499158280
 Root    569 :    44.202931144972160
 Root    570 :    44.224411806740410
 Root    571 :    44.619384827831080
 Root    572 :    44.682583604753130
 Root    573 :    45.124434266183730
 Root    574 :    45.129084228842980
 Root    575 :    45.179730909540840
 Root    576 :    45.407519153099860
 Root    577 :    45.745662363554080
 Root    578 :    45.797656960589880
 Root    579 :    45.802136144246380
 Root    580 :    45.940681448206660
 Root    581 :    45.988373243034410
 Root    582 :    46.022620397338270
 Root    583 :    46.251855205112950
 Root    584 :    46.611324816886430
 Root    585 :    46.746795968311130
 Root    586 :    46.945697796608440
 Root    587 :    47.133633636139000
 Root    588 :    47.368198237562370
 Root    589 :    47.582438601442110
 Root    590 :    47.957418492810080
 Root    591 :    48.305812430662900
 Root    592 :    48.512645098262080
 Root    593 :    48.597381261961130
 Root    594 :    48.947296741166050
 Root    595 :    49.064464629462460
 Root    596 :    49.140490006867200
 Root    597 :    49.379662614036530
 Root    598 :    49.654979045481650
 Root    599 :    49.830794490092000
 Root    600 :    49.849461683935300
 Root    601 :    50.104043371276100
 Root    602 :    50.145278115238970
 Root    603 :    50.191843832351310
 Root    604 :    50.249467798810400
 Root    605 :    50.275513192681410
 Root    606 :    50.495281871538420
 Root    607 :    50.618513546341650
 Root    608 :    50.654573049299450
 Root    609 :    50.848829198220100
 Root    610 :    51.094241806561020
 Root    611 :    51.105289548676340
 Root    612 :    51.200678025600400
 Root    613 :    51.394529939447140
 Root    614 :    51.438243374290470
 Root    615 :    51.488491898019880
 Root    616 :    51.552824089311560
 Root    617 :    51.628605430282930
 Root    618 :    51.801626082418260
 Root    619 :    52.021025699766900
 Root    620 :    52.097750935553660
 Root    621 :    52.313993508742340
 Root    622 :    52.457649643095490
 Root    623 :    52.463968832942170
 Root    624 :    52.572321085519550
 Root    625 :    52.633827359571430
 Root    626 :    52.777950275863400
 Root    627 :    52.887291782791190
 Root    628 :    52.996201271559780
 Root    629 :    53.195457729474880
 Root    630 :    53.240662987888880
 Root    631 :    53.375433036869890
 Root    632 :    53.409928971920380
 Root    633 :    53.479441196722490
 Root    634 :    53.542818809769020
 Root    635 :    53.636892153136070
 Root    636 :    53.754166301215720
 Root    637 :    53.794455405814800
 Root    638 :    54.105450166716900
 Root    639 :    54.235835619010780
 Root    640 :    54.387036619968850
 Root    641 :    54.510308542086020
 Root    642 :    54.534912727760650
 Root    643 :    54.597885789287280
 Root    644 :    54.677916018932810
 Root    645 :    54.847497460285720
 Root    646 :    54.968301277886880
 Root    647 :    55.208279470538160
 Root    648 :    55.432993684782080
 Root    649 :    55.735761625884290
 Root    650 :    56.004366385299540
 Root    651 :    56.024563092502160
 Root    652 :    56.226860166420490
 Root    653 :    56.481236307963950
 Root    654 :    56.501871496882690
 Root    655 :    56.559532953455290
 Root    656 :    56.622027655620170
 Root    657 :    56.736046455440340
 Root    658 :    56.808420939604710
 Root    659 :    56.842933315157470
 Root    660 :    56.938911950236040
 Root    661 :    57.084698403080180
 Root    662 :    57.199820076150690
 Root    663 :    57.511193051798570
 Root    664 :    57.723022026049580
 Root    665 :    57.826146175396790
 Root    666 :    57.907295216896210
 Root    667 :    58.050397562921130
 Root    668 :    58.171075973523560
 Root    669 :    58.251135648053510
 Root    670 :    58.267115509293750
 Root    671 :    58.536594589027420
 Root    672 :    58.616209792560870
 Root    673 :    58.891400786138460
 Root    674 :    58.924652261158150
 Root    675 :    59.104469409717480
 Root    676 :    59.140955476317150
 Root    677 :    59.244389413015670
 Root    678 :    59.323333925435120
 Root    679 :    59.384116023911790
 Root    680 :    59.564596611620700
 Root    681 :    59.715443402142700
 Root    682 :    59.848584960673330
 Root    683 :    59.979760525779440
 Root    684 :    60.096360665794670
 Root    685 :    60.257594304661480
 Root    686 :    60.273117100307890
 Root    687 :    60.382242320446150
 Root    688 :    60.426676062185190
 Root    689 :    60.480966181323150
 Root    690 :    60.723010246450240
 Root    691 :    60.727631300961730
 Root    692 :    60.846028015242430
 Root    693 :    60.957913104184720
 Root    694 :    61.012915162039480
 Root    695 :    61.104755261871930
 Root    696 :    61.119696743917990
 Root    697 :    61.187406932866790
 Root    698 :    61.230634206298490
 Root    699 :    61.244556743519790
 Root    700 :    61.380464378252650
 Root    701 :    61.437252001201290
 Root    702 :    61.492935218535270
 Root    703 :    61.556149375256560
 Root    704 :    61.801564175538110
 Root    705 :    61.846587556576400
 Root    706 :    61.893257889162510
 Root    707 :    61.980687382718750
[...]
     15  -0.353980D-01  0.191272D+00  0.192454D+00 -0.237537D-01  0.268705D+00
     16  -0.374046D-01 -0.157501D+00  0.404070D-01  0.523139D-01 -0.102819D+00
               911           912           913           914           915 
      1  -0.151516D+03 -0.151511D+03 -0.151509D+03 -0.151504D+03 -0.151496D+03
      2  -0.236033D-02  0.634473D-01  0.658977D-01  0.324002D-01  0.441439D-01
      3   0.306856D-01  0.587930D-01 -0.197064D-01  0.668716D-01 -0.201345D-01
      4   0.186780D-01 -0.367716D-01 -0.180220D-01  0.813741D-01  0.510881D-01
      5   0.180613D-01 -0.182422D+00 -0.196596D+00 -0.940944D-01 -0.135353D+00
      6  -0.969013D-01 -0.169357D+00  0.594315D-01 -0.187116D+00  0.505158D-01
      7  -0.453575D-01  0.121215D+00  0.613669D-01 -0.233395D+00 -0.141247D+00
      8   0.214666D-01 -0.583872D-01 -0.298772D-01 -0.701521D-01 -0.866874D-01
      9   0.346685D+00 -0.406476D+00 -0.225768D+00  0.511528D-01 -0.149772D+00
     10  -0.290542D+00  0.991593D-01 -0.284017D+00 -0.182543D+00 -0.180182D+00
     11   0.453002D+00 -0.892810D+00 -0.195293D+00 -0.242950D-01 -0.572698D+00
     12  -0.117213D+00 -0.212782D+00  0.136830D+00  0.826240D-01 -0.488449D-01
     13   0.776347D-01 -0.502579D-01 -0.100045D+00 -0.870751D-02 -0.283144D-01
     14  -0.417342D+00  0.233633D+00 -0.138835D-01 -0.306777D-01 -0.158525D+00
     15  -0.389461D+00  0.324842D+00  0.230285D+00  0.608740D-02  0.112321D+00
     16  -0.341701D-01 -0.141548D+00 -0.974630D-01 -0.482047D-02 -0.501723D-01
               916           917           918           919           920 
      1  -0.151489D+03 -0.151480D+03 -0.151469D+03 -0.151461D+03 -0.151459D+03
      2   0.408726D-02 -0.156666D-01 -0.633943D-01  0.451682D-01 -0.679361D-01
      3  -0.462205D-01 -0.260399D-01 -0.429931D-01  0.159186D-01  0.241146D-01
      4  -0.916590D-01 -0.268340D-03 -0.368655D-01 -0.341282D-01  0.887215D-01
      5  -0.478987D-02  0.489860D-01  0.190198D+00 -0.147478D+00  0.202533D+00
      6   0.134151D+00  0.783337D-01  0.133801D+00 -0.487971D-01 -0.667044D-01
      7   0.282423D+00  0.109826D-01  0.109420D+00  0.105280D+00 -0.267424D+00
      8  -0.116218D+00 -0.109229D+00  0.963972D-02  0.436804D-01  0.223511D-02
      9  -0.746077D+00  0.906393D-01 -0.404276D+00 -0.251223D+00  0.374166D+00
     10  -0.221245D+00  0.329199D+00  0.192272D+00 -0.155830D+00 -0.585188D-01
     11  -0.544111D+00  0.634389D+00  0.680039D-01 -0.330278D+00 -0.379344D+00
     12   0.201153D+00  0.342575D-01 -0.328819D+00 -0.311019D+00 -0.687141D-01
     13  -0.179419D+00 -0.979510D-01 -0.648226D-01  0.119144D+00  0.245327D+00
     14  -0.383250D-01  0.123429D+00  0.206874D-01 -0.283940D+00 -0.239781D+00
     15   0.803077D+00 -0.175601D+00  0.351427D+00  0.286375D+00 -0.415209D+00
     16  -0.547246D-01 -0.139471D+00 -0.928141D-01  0.574400D-02 -0.271238D-01
               921           922           923           924           925 
      1  -0.151453D+03 -0.151453D+03 -0.151450D+03 -0.151443D+03 -0.151437D+03
      2   0.124355D-01 -0.544169D-02  0.608411D-01 -0.321400D-01 -0.903713D-02
      3  -0.636869D-01  0.423569D-01  0.264538D-01  0.532057D-01 -0.516561D-01
      4   0.503292D-01 -0.415176D-01  0.204421D-01 -0.578178D-01 -0.826161D-02
      5  -0.371575D-01  0.292715D-01 -0.184562D+00  0.101597D+00  0.262369D-01
      6   0.203360D+00 -0.131075D+00 -0.827925D-01 -0.152581D+00  0.158179D+00
      7  -0.158406D+00  0.128278D+00 -0.599576D-01  0.173692D+00  0.291711D-01
      8   0.113606D+00 -0.901688D-01 -0.692887D-02 -0.108514D-01  0.601449D-01
      9   0.196180D+00 -0.179968D+00  0.378888D+00 -0.542147D+00 -0.874109D-01
     10   0.484607D+00 -0.300326D+00 -0.276346D+00  0.745550D-01  0.290389D+00
     11  -0.109799D-01 -0.117726D+00 -0.230231D+00  0.598438D+00  0.504006D-01
     12  -0.164880D+00  0.733753D-02  0.305448D+00 -0.843044D-01 -0.388618D-01
     13   0.566515D-01  0.286126D-01  0.167094D+00 -0.142085D+00 -0.217390D-01
     14   0.405859D+00 -0.356872D+00 -0.134749D+00 -0.370791D-01  0.471444D+00
     15  -0.225131D+00  0.164300D+00 -0.423570D+00  0.537586D+00  0.205966D+00
     16  -0.266533D-01 -0.431259D-02  0.629357D-01  0.237259D-01 -0.315830D-01
               926           927           928           929           930 
      1  -0.151431D+03 -0.151419D+03 -0.151412D+03 -0.151405D+03 -0.151396D+03
      2  -0.201538D-01 -0.339385D-01 -0.118835D+00 -0.771550D-01  0.120366D-01
      3   0.102903D+00 -0.252164D-01 -0.625370D-01 -0.145787D-01 -0.144321D-01
      4   0.475287D-01 -0.868475D-01  0.619398D-01 -0.574186D-02 -0.823811D-01
      5   0.583930D-01  0.108151D+00  0.360993D+00  0.232759D+00 -0.525890D-01
      6  -0.303448D+00  0.593509D-01  0.201392D+00  0.309129D-01  0.558339D-01
      7  -0.130658D+00  0.272647D+00 -0.196430D+00  0.242363D-01  0.246356D+00
      8  -0.509088D-01 -0.176926D+00  0.163878D+00 -0.826334D-01  0.111843D-01
      9   0.296907D+00 -0.761599D+00  0.291603D+00 -0.603434D-01 -0.264695D+00
     10  -0.344860D+00  0.253934D+00  0.641006D+00 -0.144531D+00  0.582265D+00
     11  -0.807728D+00  0.450466D+00  0.162164D+01  0.147463D+01 -0.797301D+00
     12   0.131743D+00  0.178162D+00  0.121761D+00  0.611877D-01  0.684902D-01
     13   0.149145D+00 -0.169088D+00  0.876740D-01 -0.289095D-01 -0.314698D+00
     14  -0.688232D+00  0.278800D+00  0.154743D+00 -0.158188D+00  0.685344D+00
     15  -0.332786D+00  0.710816D+00 -0.675091D+00 -0.159933D+00  0.277405D+00
     16   0.709285D-01 -0.154610D+00  0.138024D+00 -0.178491D-01 -0.758707D-01
               931           932           933           934           935 
      1  -0.151384D+03 -0.151379D+03 -0.151370D+03 -0.151366D+03 -0.151360D+03
      2  -0.112548D-01 -0.261560D-01 -0.490389D-01 -0.136085D+00  0.424896D-01
      3  -0.422446D-01  0.614684D-01  0.134080D-01 -0.394414D-01  0.338519D-02
      4  -0.261860D-01  0.649653D-01  0.608992D-01  0.764846D-01 -0.614229D-01
      5   0.350379D-01  0.929274D-01  0.154817D+00  0.431406D+00 -0.140980D+00
      6   0.129962D+00 -0.190602D+00 -0.400821D-01  0.117941D+00 -0.137784D-01
      7   0.876645D-01 -0.193133D+00 -0.185732D+00 -0.252702D+00  0.186892D+00
      8  -0.531128D-01  0.587387D-01  0.168316D+00  0.168024D+00 -0.326308D-01
      9  -0.143371D+00  0.101761D+00  0.831812D+00  0.625158D+00 -0.277424D+00
     10   0.815622D-01 -0.430075D+00 -0.991569D-01  0.867387D+00 -0.187724D+00
     11   0.531985D+00 -0.264336D-01  0.189566D-01  0.248393D+01 -0.883412D+00
     12  -0.270391D+00  0.625689D-01  0.469305D-01 -0.305598D+00  0.152074D-02
     13  -0.145105D+00  0.107321D+00  0.225116D+00  0.129223D+00  0.885782D-01
     14   0.290352D-01 -0.585727D+00 -0.207055D+00  0.455091D+00 -0.340406D-01
     15   0.149198D+00 -0.262345D+00 -0.878018D+00 -0.923300D+00  0.312146D+00
     16  -0.168866D+00  0.202382D+00  0.209281D+00 -0.243624D-02  0.111085D-01
               936           937           938           939           940 
      1  -0.151354D+03 -0.151340D+03 -0.151334D+03 -0.151329D+03 -0.151323D+03
      2  -0.180620D-01  0.651963D-01  0.164274D-01  0.552814D-01  0.357368D-01
      3  -0.115193D-01 -0.194261D-01  0.287383D-01  0.240169D-01 -0.145628D-02
      4   0.450162D-01 -0.573155D-01  0.271448D-01 -0.371215D-03 -0.737798D-02
      5   0.497565D-01 -0.206283D+00 -0.322637D-01 -0.127790D+00 -0.123088D+00
      6   0.418972D-01  0.677585D-01 -0.796548D-01 -0.554585D-01  0.146961D-01
      7  -0.134041D+00  0.173031D+00 -0.829104D-01  0.707736D-02  0.438258D-01
      8  -0.899136D-03 -0.620302D-01  0.712234D-02 -0.270062D-01 -0.114685D+00
      9   0.195033D+00  0.234197D+00  0.270421D+00 -0.116169D+00 -0.412639D+00
     10   0.137750D+00 -0.992490D-01 -0.350903D+00 -0.902854D-01  0.250936D-01
     11   0.175580D+00 -0.944561D+00 -0.103743D+00  0.696905D+00 -0.840067D+00
     12  -0.674629D-02 -0.134027D+00  0.182572D+00 -0.142877D+00 -0.808162D-01
     13   0.766182D-01 -0.258490D-01  0.171621D+00  0.189163D-01 -0.168510D+00
     14   0.153285D+00 -0.127444D-01 -0.243253D+00 -0.104640D-01  0.139726D+00
     15  -0.181640D+00 -0.465573D-01 -0.226678D+00  0.728015D-01  0.590806D+00
     16  -0.692328D-02  0.508201D-02  0.881250D-01 -0.414278D-01 -0.101867D+00
               941           942           943           944           945 
      1  -0.151307D+03 -0.151298D+03 -0.151280D+03 -0.151270D+03 -0.151260D+03
      2  -0.123332D-01 -0.871740D-01 -0.109435D-01  0.170931D-01  0.399798D-01
      3  -0.157263D-01 -0.145948D-01  0.699339D-01  0.139556D-01 -0.338458D-01
      4   0.781317D-01  0.717243D-01 -0.181726D-01  0.850055D-02 -0.402588D-01
      5   0.377750D-01  0.288775D+00  0.374068D-01 -0.573951D-01 -0.147881D+00
      6   0.604525D-01  0.519204D-01 -0.198604D+00 -0.338319D-01  0.114783D+00
      7  -0.245712D+00 -0.248446D+00  0.535872D-01 -0.270159D-01  0.135430D+00
      8   0.931197D-01  0.299159D+00 -0.694861D-01  0.226531D-03  0.954474D-01
      9   0.586583D+00  0.472716D+00 -0.734942D-02  0.263058D+00 -0.461955D+00
     10   0.227452D+00  0.161638D+00  0.183470D+00  0.222482D+00  0.192440D+00
     11   0.389676D+00  0.132989D+01 -0.124740D+00 -0.326197D+00 -0.590921D+00
     12  -0.115933D+00 -0.314967D+00  0.134593D+00 -0.495964D-01  0.914880D-01
     13   0.889881D-01  0.167530D+00 -0.125355D+00 -0.349585D-01 -0.875055D-01
     14   0.259537D+00 -0.911043D-01  0.286251D+00  0.113204D+00  0.414731D+00
     15  -0.633345D+00 -0.669127D+00  0.403101D-01 -0.221164D+00  0.656947D+00
     16   0.176264D+00  0.958212D-01 -0.161151D-01  0.597497D-01  0.609205D-01
               946           947           948           949           950 
      1  -0.151227D+03 -0.151223D+03 -0.151199D+03 -0.151192D+03 -0.151178D+03
      2   0.731485D-01  0.211031D-01 -0.333150D-01  0.115562D+00  0.508896D-01
      3   0.799696D-01  0.495964D-01  0.420976D-01  0.187569D+00  0.221193D-01
      4   0.502136D-01  0.823512D-01 -0.853845D-01  0.128048D+00  0.119742D+00
      5  -0.238463D+00 -0.621859D-01  0.117313D+00 -0.366197D+00 -0.174803D+00
      6  -0.251537D+00 -0.150432D+00 -0.149127D+00 -0.608591D+00 -0.844772D-01
      7  -0.165645D+00 -0.247587D+00  0.282053D+00 -0.421647D+00 -0.365788D+00
      8  -0.168759D-01  0.146667D+00 -0.882244D-01  0.135954D+00 -0.518932D-01
      9   0.661431D+00 -0.118802D+00 -0.509787D+00  0.108827D+01  0.328918D+00
     10  -0.593845D+00 -0.348843D-01 -0.235447D+00 -0.151935D+01 -0.518711D+00
     11  -0.130786D+01 -0.517595D+00  0.405775D+00 -0.165568D+01 -0.966566D+00
     12   0.127055D+00  0.113086D+00  0.142735D+00  0.463375D+00  0.229102D+00
     13   0.177411D+00 -0.134458D-01 -0.217723D+00  0.317067D+00  0.117861D+00
     14  -0.507272D+00 -0.139482D+00 -0.444237D+00 -0.119965D+01 -0.405754D+00
     15  -0.509521D+00  0.167399D+00  0.564619D+00 -0.934385D+00 -0.366297D+00
     16   0.192093D+00  0.149827D-01 -0.165246D+00  0.385491D+00  0.969636D-01
               951           952           953           954           955 
      1  -0.151172D+03 -0.151151D+03 -0.151143D+03 -0.151129D+03 -0.151116D+03
      2   0.252538D-01  0.433629D-02  0.131105D-01 -0.910665D-01  0.158305D-01
      3   0.397598D-01 -0.267617D-01  0.270417D-01  0.318149D-01  0.766964D-01
      4   0.642064D-01 -0.187377D-01  0.997134D-03 -0.350866D-01  0.729782D-01
      5  -0.775899D-01 -0.303158D-01 -0.367408D-01  0.313226D+00 -0.388625D-01
      6  -0.130158D+00  0.702336D-01 -0.805413D-01 -0.112980D+00 -0.262368D+00
      7  -0.201526D+00  0.532257D-01  0.289516D-02  0.121817D+00 -0.233006D+00
      8  -0.654309D-02  0.198599D-01 -0.482962D-01 -0.201291D+00  0.743278D-01
      9   0.251857D+00  0.436658D-01 -0.297294D-01 -0.512240D+00  0.471098D+00
     10  -0.302119D+00 -0.392118D+00 -0.970729D-02 -0.167387D+00 -0.769757D+00
     11  -0.227566D+00 -0.634542D-03 -0.255871D+00  0.121177D+01 -0.368700D+00
     12  -0.468345D-01 -0.785506D-01  0.223328D-02  0.209739D+00  0.426582D+00
     13   0.814340D-01  0.332254D-01  0.203509D-01 -0.193260D+00  0.176630D+00
     14  -0.298303D+00 -0.184213D+00  0.137769D+00 -0.397368D+00 -0.675215D+00
     15  -0.234096D+00  0.606108D-01  0.119703D+00  0.524100D+00 -0.521941D+00
     16   0.520754D-01 -0.752818D-03  0.101182D-01 -0.125601D+00  0.248462D+00
               956           957           958           959           960 
      1  -0.151097D+03 -0.151073D+03 -0.151050D+03 -0.151046D+03 -0.151020D+03
      2   0.109665D-02 -0.939108D-01 -0.736643D-01  0.592474D-01 -0.288163D-01
      3  -0.699089D-01 -0.110133D-01  0.500291D-01  0.289898D-01  0.169722D-01
      4  -0.557042D-02 -0.410734D-01  0.601310D-03  0.892268D-02  0.255870D-01
      5   0.250433D-02  0.315677D+00  0.263208D+00 -0.185413D+00  0.923382D-01
      6   0.230174D+00  0.354034D-01 -0.182874D+00 -0.805816D-01 -0.532128D-01
      7   0.291711D-01  0.139235D+00  0.744621D-02 -0.291486D-01 -0.721383D-01
      8  -0.573250D-01 -0.896875D-01 -0.150996D+00  0.214547D-01 -0.389295D-01
      9  -0.401576D+00 -0.422626D+00 -0.136216D+00  0.113254D+00 -0.305625D+00
     10   0.181759D+00  0.395419D+00 -0.331892D+00 -0.128408D+00  0.284725D-01
     11   0.667299D+00  0.152084D+01  0.131762D+01 -0.531308D+00  0.151321D+00
     12  -0.355603D+00 -0.387726D+00  0.139572D+00 -0.280165D+00 -0.235638D-01
     13  -0.842638D-03 -0.744775D-01 -0.113547D+00  0.120221D+00 -0.450633D-01
     14   0.296551D+00  0.296860D+00 -0.531251D+00 -0.562995D-01  0.153596D-02
     15   0.433359D+00  0.298681D+00  0.756363D-01 -0.295224D-01  0.363354D+00
     16  -0.200966D+00 -0.172328D+00 -0.128619D+00 -0.360513D-01 -0.183016D-01
               961           962           963           964           965 
      1  -0.151009D+03 -0.151008D+03 -0.150934D+03 -0.150919D+03 -0.150890D+03
      2  -0.102554D+00 -0.918406D-01 -0.200914D-01 -0.167614D-01  0.316528D-01
      3   0.352820D-01  0.114914D+00 -0.947683D-02 -0.100319D-01 -0.706135D-02
      4  -0.183124D-01  0.313269D-01  0.957200D-04  0.464724D-01  0.239422D-01
      5   0.364513D+00  0.336008D+00  0.727781D-01  0.577733D-01 -0.142779D+00
      6  -0.132872D+00 -0.413217D+00  0.326818D-01  0.277251D-01  0.541910D-01
      7   0.622197D-01 -0.106416D+00 -0.160409D-02 -0.151052D+00 -0.789105D-01
      8  -0.681255D-01  0.405223D-01  0.534595D-01 -0.408537D-01  0.216872D-01
      9  -0.202589D+00  0.269423D+00 -0.120398D-01  0.188218D+00  0.163493D+00
     10  -0.102213D+00 -0.910306D+00  0.113095D+00 -0.286029D-01  0.360118D-01
     11   0.129444D+01  0.129283D+01  0.293390D+00  0.340826D+00 -0.111444D+01
     12  -0.144609D+00  0.299800D+00 -0.983715D-01 -0.313202D-01 -0.967785D-01
     13   0.290077D+00 -0.922396D-01  0.107133D+00  0.422779D-02  0.994597D-04
     14  -0.419642D+00 -0.794424D+00  0.168204D-01 -0.287729D-01  0.591039D+00
     15   0.707731D-01 -0.465075D+00  0.922093D-01 -0.706796D-02  0.893066D-02
     16   0.146822D+00  0.172981D+00  0.150411D-01 -0.312982D-01 -0.162070D-01
               966           967           968           969           970 
      1  -0.150886D+03 -0.150827D+03 -0.150819D+03 -0.150765D+03 -0.150761D+03
      2   0.188474D-01  0.927300D-02 -0.738768D-01 -0.343092D-01  0.199762D-01
      3  -0.387144D-01  0.124545D-01 -0.866917D-01  0.392607D-01  0.102923D-01
      4  -0.426906D-01  0.390241D-01 -0.726796D-01 -0.140038D-01 -0.289035D-02
      5  -0.972961D-01 -0.311159D-01  0.280333D+00  0.104490D+00 -0.938633D-01
      6   0.152809D+00 -0.516010D-01  0.324988D+00 -0.125304D+00 -0.284208D-01
      7   0.150548D+00 -0.139789D+00  0.274733D+00  0.514075D-01  0.240574D-01
      8  -0.986786D-03  0.150809D-01 -0.108326D+00 -0.328336D-01 -0.100389D+00
      9  -0.232296D+00  0.232202D+00 -0.713066D+00 -0.912625D-01 -0.196400D+00
     10   0.162095D+00 -0.168650D+00  0.890450D+00 -0.936189D-01 -0.935443D-01
     11  -0.665666D+00 -0.153385D+00  0.129506D+01 -0.527361D-01 -0.505127D+00
     12  -0.324420D+00  0.769608D-01 -0.733269D-01 -0.184854D+00 -0.312295D-01
     13   0.140287D+00  0.116832D+00 -0.292397D+00  0.290252D-01 -0.223924D-01
     14   0.395819D+00 -0.258363D+00  0.653639D+00  0.193728D+00  0.413406D-01
     15   0.254702D+00 -0.214044D+00  0.508971D+00  0.149412D+00  0.889500D-01
     16  -0.968083D-01  0.109481D+00 -0.192107D+00  0.894975D-02 -0.110713D+00
               971           972           973           974           975 
      1  -0.150731D+03 -0.150681D+03 -0.150665D+03 -0.150618D+03 -0.150602D+03
      2  -0.910019D-01 -0.699710D-01 -0.291934D-01  0.174879D-01 -0.584873D-01
      3   0.135180D+00  0.562294D-01 -0.461320D-01 -0.405862D-01  0.134728D-02
      4  -0.692843D-01  0.241870D-01  0.174846D-01  0.778973D-01  0.527149D-01
      5   0.366754D+00  0.286332D+00  0.117351D+00 -0.669109D-01  0.239936D+00
      6  -0.524297D+00 -0.231504D+00  0.166460D+00  0.152085D+00 -0.129160D-01
      7   0.258149D+00 -0.980200D-01 -0.581070D-01 -0.295067D+00 -0.206986D+00
      8  -0.164336D+00 -0.177262D-01  0.396984D-01  0.170397D+00  0.693407D-01
      9  -0.593929D+00  0.132643D+00  0.129615D+00  0.666665D+00  0.399123D+00
     10  -0.985540D+00 -0.396194D+00  0.402065D+00  0.335779D+00  0.395545D-01
     11   0.192331D+01  0.135192D+01  0.437549D+00 -0.442487D+00  0.107371D+01
     12   0.399176D+00  0.220497D+00 -0.427769D-02 -0.230170D+00  0.452571D-01
     13  -0.150741D+00  0.788760D-01 -0.205723D-01  0.263639D+00  0.137024D+00
     14  -0.139760D+01 -0.665705D+00  0.365289D+00  0.421649D+00 -0.147826D+00
     15   0.391374D+00 -0.243056D+00 -0.207268D+00 -0.644654D+00 -0.505343D+00
     16   0.192294D+00  0.883182D-01 -0.808408D-01 -0.143965D-01  0.194211D-01
               976           977           978           979           980 
      1  -0.150553D+03 -0.150526D+03 -0.150437D+03 -0.150310D+03 -0.150088D+03
      2  -0.354742D-01 -0.152579D-01  0.193749D-01  0.717130D-03  0.736737D-02
      3  -0.851619D-01 -0.262217D-01  0.334266D-01  0.956176D-02  0.187280D-01
      4   0.100621D+00  0.523177D-01 -0.611508D-01 -0.814496D-02 -0.265359D-01
      5   0.157243D+00  0.744969D-02 -0.917424D-01 -0.123116D-01 -0.573680D-01
      6   0.315246D+00  0.137649D+00 -0.121529D+00 -0.357074D-01 -0.497340D-01
      7  -0.395318D+00 -0.196823D+00  0.244830D+00  0.342272D-01  0.103457D+00
      8   0.262312D+00  0.131358D+00 -0.137127D+00 -0.103106D-01 -0.466888D-01
      9   0.898025D+00  0.466485D+00 -0.539750D+00 -0.673009D-01 -0.213854D+00
     10   0.796962D+00  0.358847D+00 -0.333011D+00 -0.596491D-01 -0.128561D+00
     11   0.580740D+00  0.950792D-02 -0.599820D+00 -0.304382D+00 -0.134078D+00
     12  -0.314999D+00 -0.176088D+00  0.491206D-01 -0.743895D-01  0.165961D-01
     13   0.305384D+00  0.633891D-01 -0.177557D+00  0.131548D-01 -0.958614D-01
     14   0.811776D+00  0.225877D+00 -0.113543D+00  0.669422D-01 -0.781850D-01
     15  -0.104282D+01 -0.556840D+00  0.655947D+00  0.104800D+00  0.258276D+00
     16  -0.319449D-01 -0.112363D+00 -0.512369D-01 -0.578418D-01  0.159669D+00
 Unable to Open any file for archive entry.
 1\1\GINC-HEL22\SP\RB3LYP TD-FC\Gen\C2H6O1\SABYASACHI\21-Mar-2022\0\\#P
  TD(Nstates=10000) b3lyp/Gen SCF(maxcycles=100) Int(Grid=ultrafine)\\x
 GDB7_00001_tier4.com\\0,1\C,0,-1.208422,-0.239069,-0.021917\C,0,0.0838
 93,0.553452,0.046734\O,0,1.233467,-0.256002,-0.105864\H,0,-2.071999,0.
 425136,0.0517\H,0,-1.27067,-0.957756,0.799731\H,0,-1.270625,-0.78828,-
 0.962327\H,0,0.13003,1.119197,0.986112\H,0,0.125952,1.277026,-0.768547
 \H,0,1.236751,-0.913605,0.591341\\Version=EM64L-G16RevC.01\State=1-A\H
 F=-154.9419758\RMSD=9.896e-09\PG=C01 [X(C2H6O1)]\\@
 The archive entry for this job was punched.


 THE MOLECULE ALSO HAS A BODY.  WHEN THIS BODY IS HIT, THE MOLECULE
 FEELS HURT ALL OVER -- A. KITAIGORODSKI
 Job cpu time:       0 days  0 hours 24 minutes 40.5 seconds.
 Elapsed time:       0 days  0 hours  3 minutes  5.6 seconds.
 File lengths (MBytes):  RWF=   1237 Int=      0 D2E=      0 Chk=    291 Scr=      1
 Normal termination of Gaussian 16 at Mon Mar 21 20:10:36 2022.
