 Entering Gaussian System, Link 0=g16
 Input=000018.com
 Output=000018.log
 Initial command:
 /home/sabyasachi/g16/l1.exe "/scratch/sabyasachi/PBS_7976020.helios/Gau-41194.inp" -scrdir="/scratch/sabyasachi/PBS_7976020.helios/"
 Entering Link 1 = /home/sabyasachi/g16/l1.exe PID=     41195.
  
 Copyright (c) 1988-2019, Gaussian, Inc.  All Rights Reserved.
  
 This is part of the Gaussian(R) 16 program.  It is based on
 the Gaussian(R) 09 system (copyright 2009, Gaussian, Inc.),
 the Gaussian(R) 03 system (copyright 2003, Gaussian, Inc.),
 the Gaussian(R) 98 system (copyright 1998, Gaussian, Inc.),
 the Gaussian(R) 94 system (copyright 1995, Gaussian, Inc.),
 the Gaussian 92(TM) system (copyright 1992, Gaussian, Inc.),
 the Gaussian 90(TM) system (copyright 1990, Gaussian, Inc.),
 the Gaussian 88(TM) system (copyright 1988, Gaussian, Inc.),
 the Gaussian 86(TM) system (copyright 1986, Carnegie Mellon
 University), and the Gaussian 82(TM) system (copyright 1983,
 Carnegie Mellon University). Gaussian is a federally registered
 trademark of Gaussian, Inc.
  
 This software contains proprietary and confidential information,
 including trade secrets, belonging to Gaussian, Inc.
  
 This software is provided under written license and may be
 used, copied, transmitted, or stored only in accord with that
 written license.
  
 The following legend is applicable only to US Government
 contracts under FAR:
  
                    RESTRICTED RIGHTS LEGEND
  
 Use, reproduction and disclosure by the US Government is
 subject to restrictions as set forth in subparagraphs (a)
 and (c) of the Commercial Computer Software - Restricted
 Rights clause in FAR 52.227-19.
  
 Gaussian, Inc.
 340 Quinnipiac St., Bldg. 40, Wallingford CT 06492
  
  
 ---------------------------------------------------------------
 Warning -- This program may not be used in any manner that
 competes with the business of Gaussian, Inc. or will provide
 assistance to any competitor of Gaussian, Inc.  The licensee
 of this program is prohibited from giving any competitor of
 Gaussian, Inc. access to this program.  By using this program,
 the user acknowledges that Gaussian, Inc. is engaged in the
 business of creating and licensing software in the field of
 computational chemistry and represents and warrants to the
 licensee that it is not a competitor of Gaussian, Inc. and that
 it will not use this program in any manner prohibited above.
 ---------------------------------------------------------------
  

 Cite this work as:
 Gaussian 16, Revision C.01,
 M. J. Frisch, G. W. Trucks, H. B. Schlegel, G. E. Scuseria, 
 M. A. Robb, J. R. Cheeseman, G. Scalmani, V. Barone, 
 G. A. Petersson, H. Nakatsuji, X. Li, M. Caricato, A. V. Marenich, 
 J. Bloino, B. G. Janesko, R. Gomperts, B. Mennucci, H. P. Hratchian, 
 J. V. Ortiz, A. F. Izmaylov, J. L. Sonnenberg, D. Williams-Young, 
 F. Ding, F. Lipparini, F. Egidi, J. Goings, B. Peng, A. Petrone, 
 T. Henderson, D. Ranasinghe, V. G. Zakrzewski, J. Gao, N. Rega, 
 G. Zheng, W. Liang, M. Hada, M. Ehara, K. Toyota, R. Fukuda, 
 J. Hasegawa, M. Ishida, T. Nakajima, Y. Honda, O. Kitao, H. Nakai, 
 T. Vreven, K. Throssell, J. A. Montgomery, Jr., J. E. Peralta, 
 F. Ogliaro, M. J. Bearpark, J. J. Heyd, E. N. Brothers, K. N. Kudin, 
 V. N. Staroverov, T. A. Keith, R. Kobayashi, J. Normand, 
 K. Raghavachari, A. P. Rendell, J. C. Burant, S. S. Iyengar, 
 J. Tomasi, M. Cossi, J. M. Millam, M. Klene, C. Adamo, R. Cammi, 
 J. W. Ochterski, R. L. Martin, K. Morokuma, O. Farkas, 
 J. B. Foresman, and D. J. Fox, Gaussian, Inc., Wallingford CT, 2019.
 
 ******************************************
 Gaussian 16:  EM64L-G16RevC.01  3-Jul-2019
                21-Mar-2022 
 ******************************************
 %mem=64gb
 %nproc=8
 Will use up to    8 processors via shared memory.
 ---------------------------------------------------------------------
 #P TD(Nstates=10000) b3lyp/Gen SCF(maxcycles=100) Int(Grid=ultrafine)
 ---------------------------------------------------------------------
 1/38=1,172=1/1;
 2/12=2,17=6,18=5,40=1/2;
 3/5=7,11=9,25=1,30=1,74=-5,75=-5/1,2,3,8;
 4//1;
 5/5=2,7=100,38=5/2;
 8/6=1,10=1,108=10000/1;
 9/41=10000,42=1,70=2/14;
 6/7=2,8=2,9=2,10=2/1;
 99/5=1,9=1/99;
 Leave Link    1 at Mon Mar 21 19:59:16 2022, MaxMem=  8589934592 cpu:               0.4 elap:               0.1
 (Enter /home/sabyasachi/g16/l101.exe)
 ---------------------
 xGDB7_00001_tier4.com
 ---------------------
 Symbolic Z-matrix:
 Charge =  0 Multiplicity = 1
 9                     0.        1.09881  -0.28912 
 6                     0.        0.        0.49994 
 9                     0.       -1.09881  -0.28912 
 1                    -0.91135   0.        1.10225 
 1                     0.91135   0.        1.10225 
 
 ITRead=  0  0  0  0  0
 MicOpt= -1 -1 -1 -1 -1
 NAtoms=      5 NQM=        5 NQMF=       0 NMMI=      0 NMMIF=      0
                NMic=       0 NMicF=      0.
                    Isotopes and Nuclear Properties:
 (Nuclear quadrupole moments (NQMom) in fm**2, nuclear magnetic moments (NMagM)
  in nuclear magnetons)

  Atom         1           2           3           4           5
 IAtWgt=          19          12          19           1           1
 AtmWgt=  18.9984033  12.0000000  18.9984033   1.0078250   1.0078250
 NucSpn=           1           0           1           1           1
 AtZEff=  -0.0000000  -0.0000000  -0.0000000  -0.0000000  -0.0000000
 NQMom=    0.0000000   0.0000000   0.0000000   0.0000000   0.0000000
 NMagM=    2.6288670   0.0000000   2.6288670   2.7928460   2.7928460
 AtZNuc=   9.0000000   6.0000000   9.0000000   1.0000000   1.0000000
 Leave Link  101 at Mon Mar 21 19:59:16 2022, MaxMem=  8589934592 cpu:               0.6 elap:               0.1
 (Enter /home/sabyasachi/g16/l202.exe)
                          Input orientation:                          
 ---------------------------------------------------------------------
 Center     Atomic      Atomic             Coordinates (Angstroms)
 Number     Number       Type             X           Y           Z
 ---------------------------------------------------------------------
      1          9           0        0.000000    1.098813   -0.289120
      2          6           0        0.000000    0.000000    0.499944
      3          9           0        0.000000   -1.098813   -0.289120
      4          1           0       -0.911346    0.000000    1.102246
      5          1           0        0.911346    0.000000    1.102246
 ---------------------------------------------------------------------
                    Distance matrix (angstroms):
                    1          2          3          4          5
     1  F    0.000000
     2  C    1.352779   0.000000
     3  F    2.197626   1.352779   0.000000
     4  H    1.993449   1.092392   1.993449   0.000000
     5  H    1.993449   1.092392   1.993449   1.822692   0.000000
 Stoichiometry    CH2F2
 Framework group  C2V[C2(C),SGV(F2),SGV'(H2)]
 Deg. of freedom     4
 Full point group                 C2V     NOp   4
 Largest Abelian subgroup         C2V     NOp   4
 Largest concise Abelian subgroup C2V     NOp   4
                         Standard orientation:                         
 ---------------------------------------------------------------------
 Center     Atomic      Atomic             Coordinates (Angstroms)
 Number     Number       Type             X           Y           Z
 ---------------------------------------------------------------------
      1          9           0        0.000000    1.098813   -0.289120
      2          6           0       -0.000000   -0.000000    0.499944
      3          9           0       -0.000000   -1.098813   -0.289120
      4          1           0       -0.911346    0.000000    1.102246
      5          1           0        0.911346   -0.000000    1.102246
 ---------------------------------------------------------------------
 Rotational constants (GHZ):          49.7833800          10.6281321           9.2978450
 Leave Link  202 at Mon Mar 21 19:59:16 2022, MaxMem=  8589934592 cpu:               0.1 elap:               0.0
 (Enter /home/sabyasachi/g16/l301.exe)
 General basis read from cards:  (5D, 7F)
 Centers:       4      5
 S 3 1.00
     Exponent=  1.3010701000D+01 Coefficients=  1.9682158000D-02
     Exponent=  1.9622572000D+00 Coefficients=  1.3796524000D-01
     Exponent=  4.4453796000D-01 Coefficients=  4.7831935000D-01
 S 1 1.00
     Exponent=  1.2194962000D-01 Coefficients=  1.0000000000D+00
 P 1 1.00
     Exponent=  8.0000000000D-01 Coefficients=  1.0000000000D+00
 P 1 1.00
     Exponent=  1.1704099050D-01 Coefficients=  1.0000000000D+00
 ****
 Centers:       2
 S 5 1.00
     Exponent=  1.2384016938D+03 Coefficients=  5.4568832082D-03
     Exponent=  1.8629004992D+02 Coefficients=  4.0638409211D-02
     Exponent=  4.2251176346D+01 Coefficients=  1.8025593888D-01
     Exponent=  1.1676557932D+01 Coefficients=  4.6315121755D-01
     Exponent=  3.5930506482D+00 Coefficients=  4.4087173314D-01
 S 1 1.00
     Exponent=  4.0245147363D-01 Coefficients=  1.0000000000D+00
 S 1 1.00
     Exponent=  1.3090182668D-01 Coefficients=  1.0000000000D+00
 S 1 1.00
     Exponent=  6.7053540256D-02 Coefficients=  1.0000000000D+00
 P 3 1.00
     Exponent=  9.4680970621D+00 Coefficients=  3.8387871728D-02
     Exponent=  2.0103545142D+00 Coefficients=  2.1117025112D-01
     Exponent=  5.4771004707D-01 Coefficients=  5.1328172114D-01
 P 1 1.00
     Exponent=  1.5268613795D-01 Coefficients=  1.0000000000D+00
 D 1 1.00
     Exponent=  8.0000000000D-01 Coefficients=  1.0000000000D+00
 D 1 1.00
     Exponent=  1.1713185140D-01 Coefficients=  1.0000000000D+00
 ****
 Centers:       1      3
 S 5 1.00
     Exponent=  2.8948325990D+03 Coefficients= -5.3408255515D-03
     Exponent=  4.3541939120D+02 Coefficients= -3.9904258866D-02
     Exponent=  9.8843328866D+01 Coefficients= -1.7912768038D-01
     Exponent=  2.7485198001D+01 Coefficients= -4.6758090825D-01
     Exponent=  8.5405498171D+00 Coefficients= -4.4653131020D-01
 S 1 1.00
     Exponent=  1.0654578038D+00 Coefficients=  1.0000000000D+00
 S 1 1.00
     Exponent=  3.3247346748D-01 Coefficients=  1.0000000000D+00
 S 1 1.00
     Exponent=  9.8097752264D-02 Coefficients=  1.0000000000D+00
 P 3 1.00
     Exponent=  2.2696633924D+01 Coefficients= -4.5212874436D-02
     Exponent=  4.9872339257D+00 Coefficients= -2.3754317067D-01
     Exponent=  1.3491613954D+00 Coefficients= -5.1287353587D-01
 P 1 1.00
     Exponent=  3.4829881977D-01 Coefficients=  1.0000000000D+00
 P 1 1.00
     Exponent=  8.3372148304D-02 Coefficients=  1.0000000000D+00
 D 1 1.00
     Exponent=  1.4000000000D+00 Coefficients=  1.0000000000D+00
 D 1 1.00
     Exponent=  2.2301361948D-01 Coefficients=  1.0000000000D+00
 ****
 Ernie: Thresh=  0.10000D-02 Tol=  0.10000D-05 Strict=F.
 There are    36 symmetry adapted cartesian basis functions of A1  symmetry.
 There are    11 symmetry adapted cartesian basis functions of A2  symmetry.
 There are    17 symmetry adapted cartesian basis functions of B1  symmetry.
 There are    24 symmetry adapted cartesian basis functions of B2  symmetry.
 There are    32 symmetry adapted basis functions of A1  symmetry.
 There are    11 symmetry adapted basis functions of A2  symmetry.
 There are    17 symmetry adapted basis functions of B1  symmetry.
 There are    22 symmetry adapted basis functions of B2  symmetry.
    82 basis functions,   122 primitive gaussians,    88 cartesian basis functions
    13 alpha electrons       13 beta electrons
       nuclear repulsion energy        77.4114556534 Hartrees.
 IExCor=  402 DFT=T Ex+Corr=B3LYP ExCW=0 ScaHFX=  0.200000
 ScaDFX=  0.800000  0.720000  1.000000  0.810000 ScalE2=  1.000000  1.000000
 IRadAn=      5 IRanWt=     -1 IRanGd=            0 ICorTp=0 IEmpDi=  4
 NAtoms=    5 NActive=    5 NUniq=    3 SFac= 2.78D+00 NAtFMM=   60 NAOKFM=F Big=F
 Integral buffers will be    131072 words long.
 Regular integral format.
 Two-electron integral symmetry is turned on.
 Leave Link  301 at Mon Mar 21 19:59:16 2022, MaxMem=  8589934592 cpu:               0.6 elap:               0.1
 (Enter /home/sabyasachi/g16/l302.exe)
 NPDir=0 NMtPBC=     1 NCelOv=     1 NCel=       1 NClECP=     1 NCelD=      1
         NCelK=      1 NCelE2=     1 NClLst=     1 CellRange=     0.0.
 One-electron integrals computed using PRISM.
 One-electron integral symmetry used in STVInt
 NBasis=    82 RedAO= T EigKep=  6.29D-04  NBF=    32    11    17    22
 NBsUse=    82 1.00D-06 EigRej= -1.00D+00 NBFU=    32    11    17    22
 Precomputing XC quadrature grid using
 IXCGrd= 4 IRadAn=           5 IRanWt=          -1 IRanGd=           0 AccXCQ= 0.00D+00.
 Generated NRdTot=       0 NPtTot=           0 NUsed=           0 NTot=          32
 NSgBfM=    88    88    88    88    88 MxSgAt=     5 MxSgA2=     5.
 Leave Link  302 at Mon Mar 21 19:59:17 2022, MaxMem=  8589934592 cpu:               0.9 elap:               0.1
 (Enter /home/sabyasachi/g16/l303.exe)
 DipDrv:  MaxL=1.
 Leave Link  303 at Mon Mar 21 19:59:17 2022, MaxMem=  8589934592 cpu:               0.2 elap:               0.0
 (Enter /home/sabyasachi/g16/l308.exe)
 Leave Link  308 at Mon Mar 21 19:59:17 2022, MaxMem=  8589934592 cpu:               0.2 elap:               0.0
 (Enter /home/sabyasachi/g16/l401.exe)
 ExpMin= 6.71D-02 ExpMax= 2.89D+03 ExpMxC= 4.35D+02 IAcc=3 IRadAn=         5 AccDes= 0.00D+00
 Harris functional with IExCor=  402 and IRadAn=       5 diagonalized for initial guess.
 HarFok:  IExCor=  402 AccDes= 0.00D+00 IRadAn=         5 IDoV= 1 UseB2=F ITyADJ=14
 ICtDFT=  3500011 ScaDFX=  1.000000  1.000000  1.000000  1.000000
 FoFCou: FMM=F IPFlag=           0 FMFlag=      100000 FMFlg1=           0
         NFxFlg=           0 DoJE=T BraDBF=F KetDBF=T FulRan=T
         wScrn=  0.000000 ICntrl=       500 IOpCl=  0 I1Cent=   200000004 NGrid=           0
         NMat0=    1 NMatS0=      1 NMatT0=    0 NMatD0=    1 NMtDS0=    0 NMtDT0=    0
 Petite list used in FoFCou.
 Harris En= -238.797427852420    
 JPrj=0 DoOrth=F DoCkMO=F.
 Initial guess orbital symmetries:
       Occupied  (A1) (B2) (A1) (A1) (B2) (A1) (B2) (B1) (A1) (A2)
                 (A1) (B2) (B1)
       Virtual   (A1) (B2) (A1) (B1) (A1) (B2) (B1) (A1) (A2) (B2)
                 (A1) (A1) (A2) (B1) (B2) (A1) (B1) (B1) (A1) (B2)
                 (A1) (B2) (A2) (A1) (B1) (A1) (B2) (A1) (B1) (A1)
                 (A2) (B2) (A2) (B2) (A1) (B1) (B2) (A1) (B1) (A1)
                 (A2) (A1) (B1) (B2) (A2) (B2) (A1) (B1) (A1) (B1)
                 (B2) (A1) (B2) (B2) (A1) (A2) (A1) (A1) (B1) (B2)
                 (A2) (B2) (B1) (A1) (B1) (A2) (A1) (A1) (B2)
 The electronic state of the initial guess is 1-A1.
 Leave Link  401 at Mon Mar 21 19:59:17 2022, MaxMem=  8589934592 cpu:               1.4 elap:               0.2
 (Enter /home/sabyasachi/g16/l502.exe)
 Keep R1 ints in memory in symmetry-blocked form, NReq=13114582.
 FoFCou: FMM=F IPFlag=           0 FMFlag=           0 FMFlg1=           0
         NFxFlg=           0 DoJE=F BraDBF=F KetDBF=F FulRan=T
         wScrn=  0.000000 ICntrl=       600 IOpCl=  0 I1Cent=           0 NGrid=           0
         NMat0=    1 NMatS0=   3403 NMatT0=    0 NMatD0=    1 NMtDS0=    0 NMtDT0=    0
 Petite list used in FoFCou.
 Closed shell SCF:
 Using DIIS extrapolation, IDIIS=  1040.
 NGot=  8589934592 LenX=  8588436934 LenY=  8588428749
 Requested convergence on RMS density matrix=1.00D-08 within 100 cycles.
 Requested convergence on MAX density matrix=1.00D-06.
 Requested convergence on             energy=1.00D-06.
 No special actions if energy rises.
 Integral accuracy reduced to 1.0D-05 until final iterations.

 Cycle   1  Pass 0  IDiag  1:
 E= -238.806600454409    
 DIIS: error= 1.85D-02 at cycle   1 NSaved=   1.
 NSaved= 1 IEnMin= 1 EnMin= -238.806600454409     IErMin= 1 ErrMin= 1.85D-02
 ErrMax= 1.85D-02  0.00D+00 EMaxC= 1.00D-01 BMatC= 2.58D-02 BMatP= 2.58D-02
 IDIUse=3 WtCom= 8.15D-01 WtEn= 1.85D-01
 Coeff-Com:  0.100D+01
 Coeff-En:   0.100D+01
 Coeff:      0.100D+01
 Gap=     0.355 Goal=   None    Shift=    0.000
 GapD=    0.355 DampG=1.000 DampE=0.500 DampFc=0.5000 IDamp=-1.
 Damping current iteration by 5.00D-01
 RMSDP=3.22D-03 MaxDP=4.47D-02              OVMax= 4.88D-02

 Cycle   2  Pass 0  IDiag  1:
 E= -238.813004480287     Delta-E=       -0.006404025877 Rises=F Damp=T
 DIIS: error= 3.99D-03 at cycle   2 NSaved=   2.
 NSaved= 2 IEnMin= 2 EnMin= -238.813004480287     IErMin= 2 ErrMin= 3.99D-03
 ErrMax= 3.99D-03  0.00D+00 EMaxC= 1.00D-01 BMatC= 2.29D-03 BMatP= 2.58D-02
 IDIUse=3 WtCom= 9.60D-01 WtEn= 3.99D-02
 Coeff-Com:  0.777D-01 0.922D+00
 Coeff-En:   0.142D+00 0.858D+00
 Coeff:      0.803D-01 0.920D+00
 Gap=     0.382 Goal=   None    Shift=    0.000
 RMSDP=1.51D-03 MaxDP=2.44D-02 DE=-6.40D-03 OVMax= 3.44D-02

 Cycle   3  Pass 0  IDiag  1:
 E= -238.821772028453     Delta-E=       -0.008767548166 Rises=F Damp=F
 DIIS: error= 3.23D-03 at cycle   3 NSaved=   3.
 NSaved= 3 IEnMin= 3 EnMin= -238.821772028453     IErMin= 3 ErrMin= 3.23D-03
 ErrMax= 3.23D-03  0.00D+00 EMaxC= 1.00D-01 BMatC= 1.06D-03 BMatP= 2.29D-03
 IDIUse=3 WtCom= 9.68D-01 WtEn= 3.23D-02
 Coeff-Com: -0.796D-01 0.380D+00 0.699D+00
 Coeff-En:   0.000D+00 0.000D+00 0.100D+01
 Coeff:     -0.770D-01 0.368D+00 0.709D+00
 Gap=     0.379 Goal=   None    Shift=    0.000
 RMSDP=3.31D-04 MaxDP=7.42D-03 DE=-8.77D-03 OVMax= 7.52D-03

 Cycle   4  Pass 0  IDiag  1:
 E= -238.822485158264     Delta-E=       -0.000713129812 Rises=F Damp=F
 DIIS: error= 5.03D-04 at cycle   4 NSaved=   4.
 NSaved= 4 IEnMin= 4 EnMin= -238.822485158264     IErMin= 4 ErrMin= 5.03D-04
 ErrMax= 5.03D-04  0.00D+00 EMaxC= 1.00D-01 BMatC= 2.00D-05 BMatP= 1.06D-03
 IDIUse=3 WtCom= 9.95D-01 WtEn= 5.03D-03
 Coeff-Com: -0.195D-01 0.761D-01 0.207D+00 0.736D+00
 Coeff-En:   0.000D+00 0.000D+00 0.000D+00 0.100D+01
 Coeff:     -0.194D-01 0.757D-01 0.206D+00 0.737D+00
 Gap=     0.378 Goal=   None    Shift=    0.000
 RMSDP=6.95D-05 MaxDP=2.31D-03 DE=-7.13D-04 OVMax= 1.38D-03

 Cycle   5  Pass 0  IDiag  1:
 E= -238.822501425287     Delta-E=       -0.000016267022 Rises=F Damp=F
 DIIS: error= 2.03D-04 at cycle   5 NSaved=   5.
 NSaved= 5 IEnMin= 5 EnMin= -238.822501425287     IErMin= 5 ErrMin= 2.03D-04
 ErrMax= 2.03D-04  0.00D+00 EMaxC= 1.00D-01 BMatC= 2.72D-06 BMatP= 2.00D-05
 IDIUse=3 WtCom= 9.98D-01 WtEn= 2.03D-03
 Coeff-Com: -0.462D-02 0.855D-02 0.475D-01 0.334D+00 0.614D+00
 Coeff-En:   0.000D+00 0.000D+00 0.000D+00 0.000D+00 0.100D+01
 Coeff:     -0.461D-02 0.853D-02 0.474D-01 0.334D+00 0.615D+00
 Gap=     0.379 Goal=   None    Shift=    0.000
 RMSDP=2.11D-05 MaxDP=5.94D-04 DE=-1.63D-05 OVMax= 3.92D-04

 Cycle   6  Pass 0  IDiag  1:
 E= -238.822503768342     Delta-E=       -0.000002343056 Rises=F Damp=F
 DIIS: error= 9.12D-06 at cycle   6 NSaved=   6.
 NSaved= 6 IEnMin= 6 EnMin= -238.822503768342     IErMin= 6 ErrMin= 9.12D-06
 ErrMax= 9.12D-06  0.00D+00 EMaxC= 1.00D-01 BMatC= 7.76D-09 BMatP= 2.72D-06
 IDIUse=1 WtCom= 1.00D+00 WtEn= 0.00D+00
 Coeff-Com: -0.484D-03 0.279D-03 0.421D-02 0.450D-01 0.103D+00 0.848D+00
 Coeff:     -0.484D-03 0.279D-03 0.421D-02 0.450D-01 0.103D+00 0.848D+00
 Gap=     0.379 Goal=   None    Shift=    0.000
 RMSDP=1.01D-06 MaxDP=1.19D-05 DE=-2.34D-06 OVMax= 2.04D-05

 Initial convergence to 1.0D-05 achieved.  Increase integral accuracy.
 Cycle   7  Pass 1  IDiag  1:
 E= -238.822523096345     Delta-E=       -0.000019328003 Rises=F Damp=F
 DIIS: error= 3.25D-06 at cycle   1 NSaved=   1.
 NSaved= 1 IEnMin= 1 EnMin= -238.822523096345     IErMin= 1 ErrMin= 3.25D-06
 ErrMax= 3.25D-06  0.00D+00 EMaxC= 1.00D-01 BMatC= 1.91D-09 BMatP= 1.91D-09
 IDIUse=1 WtCom= 1.00D+00 WtEn= 0.00D+00
 Coeff-Com:  0.100D+01
 Coeff:      0.100D+01
 Gap=     0.379 Goal=   None    Shift=    0.000
 RMSDP=1.01D-06 MaxDP=1.19D-05 DE=-1.93D-05 OVMax= 2.14D-05

 Cycle   8  Pass 1  IDiag  1:
 E= -238.822523098244     Delta-E=       -0.000000001899 Rises=F Damp=F
 DIIS: error= 2.14D-06 at cycle   2 NSaved=   2.
 NSaved= 2 IEnMin= 2 EnMin= -238.822523098244     IErMin= 2 ErrMin= 2.14D-06
 ErrMax= 2.14D-06  0.00D+00 EMaxC= 1.00D-01 BMatC= 4.66D-10 BMatP= 1.91D-09
 IDIUse=1 WtCom= 1.00D+00 WtEn= 0.00D+00
 Coeff-Com:  0.269D+00 0.731D+00
 Coeff:      0.269D+00 0.731D+00
 Gap=     0.379 Goal=   None    Shift=    0.000
 RMSDP=3.04D-07 MaxDP=4.97D-06 DE=-1.90D-09 OVMax= 5.53D-06

 Cycle   9  Pass 1  IDiag  1:
 E= -238.822523098367     Delta-E=       -0.000000000123 Rises=F Damp=F
 DIIS: error= 1.74D-06 at cycle   3 NSaved=   3.
 NSaved= 3 IEnMin= 3 EnMin= -238.822523098367     IErMin= 3 ErrMin= 1.74D-06
 ErrMax= 1.74D-06  0.00D+00 EMaxC= 1.00D-01 BMatC= 2.60D-10 BMatP= 4.66D-10
 IDIUse=1 WtCom= 1.00D+00 WtEn= 0.00D+00
 Coeff-Com:  0.330D-01 0.423D+00 0.544D+00
 Coeff:      0.330D-01 0.423D+00 0.544D+00
 Gap=     0.379 Goal=   None    Shift=    0.000
 RMSDP=1.27D-07 MaxDP=2.25D-06 DE=-1.23D-10 OVMax= 3.34D-06

 Cycle  10  Pass 1  IDiag  1:
 E= -238.822523098528     Delta-E=       -0.000000000161 Rises=F Damp=F
 DIIS: error= 2.03D-07 at cycle   4 NSaved=   4.
 NSaved= 4 IEnMin= 4 EnMin= -238.822523098528     IErMin= 4 ErrMin= 2.03D-07
 ErrMax= 2.03D-07  0.00D+00 EMaxC= 1.00D-01 BMatC= 5.05D-12 BMatP= 2.60D-10
 IDIUse=1 WtCom= 1.00D+00 WtEn= 0.00D+00
 Coeff-Com: -0.740D-02 0.872D-01 0.189D+00 0.731D+00
 Coeff:     -0.740D-02 0.872D-01 0.189D+00 0.731D+00
 Gap=     0.379 Goal=   None    Shift=    0.000
 RMSDP=2.20D-08 MaxDP=2.36D-07 DE=-1.61D-10 OVMax= 4.35D-07

 Cycle  11  Pass 1  IDiag  1:
 E= -238.822523098532     Delta-E=       -0.000000000004 Rises=F Damp=F
 DIIS: error= 1.85D-08 at cycle   5 NSaved=   5.
 NSaved= 5 IEnMin= 5 EnMin= -238.822523098532     IErMin= 5 ErrMin= 1.85D-08
 ErrMax= 1.85D-08  0.00D+00 EMaxC= 1.00D-01 BMatC= 3.34D-14 BMatP= 5.05D-12
 IDIUse=1 WtCom= 1.00D+00 WtEn= 0.00D+00
 Coeff-Com: -0.256D-02 0.274D-01 0.590D-01 0.239D+00 0.677D+00
 Coeff:     -0.256D-02 0.274D-01 0.590D-01 0.239D+00 0.677D+00
 Gap=     0.379 Goal=   None    Shift=    0.000
 RMSDP=2.96D-09 MaxDP=7.42D-08 DE=-3.87D-12 OVMax= 5.89D-08

 SCF Done:  E(RB3LYP) =  -238.822523099     A.U. after   11 cycles
            NFock= 11  Conv=0.30D-08     -V/T= 2.0071
 KE= 2.371487114910D+02 PE=-7.213109891198D+02 EE= 1.679282988768D+02
 Leave Link  502 at Mon Mar 21 19:59:17 2022, MaxMem=  8589934592 cpu:               4.2 elap:               0.6
 (Enter /home/sabyasachi/g16/l801.exe)
 DoSCS=F DFT=T ScalE2(SS,OS)=  1.000000  1.000000
 ExpMin= 6.71D-02 ExpMax= 2.89D+03 ExpMxC= 4.35D+02 IAcc=3 IRadAn=         5 AccDes= 0.00D+00
 HarFok:  IExCor=  205 AccDes= 0.00D+00 IRadAn=         5 IDoV=-2 UseB2=F ITyADJ=14
 ICtDFT= 12500011 ScaDFX=  1.000000  1.000000  1.000000  1.000000
 Largest valence mixing into a core orbital is  7.54D-05
 Largest core mixing into a valence orbital is  2.35D-05
 Range of M.O.s used for correlation:     4    82
 NBasis=    82 NAE=    13 NBE=    13 NFC=     3 NFV=     0
 NROrb=     79 NOA=    10 NOB=    10 NVA=    69 NVB=    69

 **** Warning!!: The largest alpha MO coefficient is  0.17022449D+02

 Leave Link  801 at Mon Mar 21 19:59:17 2022, MaxMem=  8589934592 cpu:               0.5 elap:               0.1
 (Enter /home/sabyasachi/g16/l914.exe)
 RHF ground state
 Keep R1, R2, and R3 ints in memory in symmetry-blocked form, NReq=462838434.
 FoFCou: FMM=F IPFlag=           0 FMFlag=           0 FMFlg1=           0
         NFxFlg=           0 DoJE=F BraDBF=F KetDBF=F FulRan=T
         wScrn=  0.000000 ICntrl=       600 IOpCl=  0 I1Cent=           0 NGrid=           0
         NMat0=    1 NMatS0=   3403 NMatT0=    0 NMatD0=    1 NMtDS0=    0 NMtDT0=    0
 Petite list used in FoFCou.
 MDV=  8589934592 DFT=T DoStab=F Mixed=T DoRPA=T DoScal=F NonHer=T
 Making orbital integer symmetry assigments:
 Orbital symmetries:
       Occupied  (A1) (B2) (A1) (A1) (B2) (A1) (B1) (A1) (B2) (A2)
                 (A1) (B2) (B1)
       Virtual   (A1) (B2) (A1) (B1) (A1) (B2) (A2) (A1) (B1) (B2)
                 (A1) (A1) (A2) (B1) (A1) (B2) (B1) (B1) (A1) (B2)
                 (A1) (B2) (A2) (A1) (B1) (A1) (B2) (A1) (B1) (A2)
                 (A1) (B2) (A2) (B2) (A1) (B1) (B2) (A1) (B1) (A1)
                 (A2) (A1) (B1) (B2) (A2) (B2) (A1) (B1) (A1) (B1)
                 (B2) (A1) (B2) (B2) (A1) (A2) (A1) (A1) (B1) (B2)
                 (A2) (B2) (B1) (A1) (B1) (A2) (A1) (A1) (B2)
   690 initial guesses have been made.
 Convergence on wavefunction:    0.001000000000000
 Davidson Disk Diagonalization:  ConvIn= 1.00D-03 SkipCon=T Conv= 1.00D-03.
 Max sub-space:  4140 roots to seek:  1380 dimension of matrix:         1380
 *** WARNING: Number of orthogonal guesses is          690
 Iteration     1 Dimension   690 NMult     0 NNew    690
 CISAX will form   690 AO SS matrices at one time.
 NMat=   690 NSing=   690 JSym2X=-1.
 New state      9 was old state     11
 New state     10 was old state      9
 New state     11 was old state     13
 New state     13 was old state     14
 New state     14 was old state     10
 New state     19 was old state     20
 New state     20 was old state     19
 New state     23 was old state     24
 New state     24 was old state     23
 New state     27 was old state     30
 New state     28 was old state     38
 New state     30 was old state     27
 New state     32 was old state     28
 New state     33 was old state     35
 New state     34 was old state     33
 New state     35 was old state     32
 New state     36 was old state     37
 New state     37 was old state     34
 New state     38 was old state     36
 New state     39 was old state     40
 New state     40 was old state     39
 New state     42 was old state     43
 New state     43 was old state     46
 New state     44 was old state     45
 New state     45 was old state     42
 New state     46 was old state     47
 New state     47 was old state     44
 New state     48 was old state     51
 New state     49 was old state     48
 New state     50 was old state     53
 New state     51 was old state     50
 New state     52 was old state     49
 New state     53 was old state     52
 New state     54 was old state     55
 New state     55 was old state     54
 New state     56 was old state     59
 New state     57 was old state     56
 New state     58 was old state     60
 New state     59 was old state     57
 New state     60 was old state     62
 New state     61 was old state     58
 New state     62 was old state     61
 New state     64 was old state     65
 New state     65 was old state     67
 New state     66 was old state     64
 New state     67 was old state     66
 New state     70 was old state     71
 New state     71 was old state     73
 New state     73 was old state     78
 New state     74 was old state     86
 New state     75 was old state     74
 New state     76 was old state     75
 New state     77 was old state     80
 New state     78 was old state     77
 New state     79 was old state     83
 New state     80 was old state     76
 New state     81 was old state     82
 New state     82 was old state     81
 New state     83 was old state     84
 New state     84 was old state     85
 New state     85 was old state     79
 New state     86 was old state     87
 New state     87 was old state     70
 New state     88 was old state     91
 New state     89 was old state     88
 New state     90 was old state     89
 New state     91 was old state     90
 New state     92 was old state     93
 New state     93 was old state     94
 New state     94 was old state     92
 New state     96 was old state     98
 New state     98 was old state     99
 New state     99 was old state    101
 New state    100 was old state     96
 New state    101 was old state    102
 New state    102 was old state    100
 New state    105 was old state    110
 New state    106 was old state    107
 New state    107 was old state    105
 New state    108 was old state    106
 New state    109 was old state    108
 New state    110 was old state    111
 New state    111 was old state    109
 New state    112 was old state    113
 New state    113 was old state    112
 New state    114 was old state    116
 New state    115 was old state    114
 New state    116 was old state    115
 New state    118 was old state    119
 New state    119 was old state    118
 New state    120 was old state    122
 New state    122 was old state    123
 New state    123 was old state    120
 New state    124 was old state    125
 New state    125 was old state    124
 New state    127 was old state    128
 New state    128 was old state    129
 New state    129 was old state    127
 New state    131 was old state    133
 New state    132 was old state    131
 New state    133 was old state    147
 New state    134 was old state    142
 New state    135 was old state    134
 New state    136 was old state    135
 New state    137 was old state    132
 New state    138 was old state    146
 New state    139 was old state    137
 New state    140 was old state    136
 New state    141 was old state    144
 New state    142 was old state    140
 New state    143 was old state    141
 New state    144 was old state    145
 New state    145 was old state    143
 New state    146 was old state    139
 New state    147 was old state    138
 New state    150 was old state    151
 New state    151 was old state    150
 New state    153 was old state    154
 New state    154 was old state    155
 New state    155 was old state    158
 New state    156 was old state    159
 New state    158 was old state    161
 New state    159 was old state    162
 New state    161 was old state    164
 New state    162 was old state    153
 New state    164 was old state    156
 New state    166 was old state    167
 New state    167 was old state    169
 New state    168 was old state    166
 New state    169 was old state    172
 New state    170 was old state    168
 New state    171 was old state    173
 New state    172 was old state    171
 New state    173 was old state    175
 New state    174 was old state    176
 New state    175 was old state    178
 New state    176 was old state    177
 New state    177 was old state    170
 New state    178 was old state    174
 New state    180 was old state    181
 New state    181 was old state    182
 New state    182 was old state    183
 New state    183 was old state    184
 New state    184 was old state    180
 New state    186 was old state    187
 New state    187 was old state    189
 New state    188 was old state    186
 New state    189 was old state    188
 New state    190 was old state    191
 New state    191 was old state    190
 New state    193 was old state    195
 New state    195 was old state    198
 New state    196 was old state    193
 New state    198 was old state    199
 New state    199 was old state    196
 New state    203 was old state    207
 New state    205 was old state    203
 New state    207 was old state    208
 New state    208 was old state    205
 New state    209 was old state    211
 New state    210 was old state    212
 New state    211 was old state    209
 New state    212 was old state    213
 New state    213 was old state    210
 New state    215 was old state    216
 New state    216 was old state    218
 New state    217 was old state    224
 New state    218 was old state    217
 New state    219 was old state    215
 New state    220 was old state    219
 New state    221 was old state    220
 New state    222 was old state    221
 New state    224 was old state    226
 New state    225 was old state    230
 New state    226 was old state    222
 New state    228 was old state    229
 New state    229 was old state    228
 New state    230 was old state    231
 New state    231 was old state    232
 New state    232 was old state    233
 New state    233 was old state    234
 New state    234 was old state    238
 New state    235 was old state    241
 New state    236 was old state    239
 New state    237 was old state    235
 New state    238 was old state    237
 New state    239 was old state    236
 New state    241 was old state    242
 New state    242 was old state    244
 New state    244 was old state    245
 New state    245 was old state    246
 New state    246 was old state    247
 New state    247 was old state    253
 New state    248 was old state    249
 New state    249 was old state    251
 New state    250 was old state    248
 New state    251 was old state    252
 New state    252 was old state    250
 New state    253 was old state    261
 New state    254 was old state    255
 New state    255 was old state    254
 New state    256 was old state    259
 New state    257 was old state    256
 New state    258 was old state    257
 New state    259 was old state    260
 New state    260 was old state    264
 New state    261 was old state    266
 New state    263 was old state    265
 New state    264 was old state    263
 New state    265 was old state    269
 New state    266 was old state    273
 New state    267 was old state    275
 New state    268 was old state    271
 New state    269 was old state    272
 New state    271 was old state    268
 New state    272 was old state    258
 New state    273 was old state    267
 New state    275 was old state    279
 New state    277 was old state    283
 New state    279 was old state    285
 New state    280 was old state    282
 New state    281 was old state    290
 New state    282 was old state    280
 New state    283 was old state    277
 New state    284 was old state    281
 New state    285 was old state    284
 New state    286 was old state    288
 New state    287 was old state    286
 New state    288 was old state    289
 New state    289 was old state    291
 New state    290 was old state    287
 New state    291 was old state    293
 New state    292 was old state    295
 New state    293 was old state    294
 New state    294 was old state    301
 New state    295 was old state    296
 New state    296 was old state    298
 New state    297 was old state    303
 New state    298 was old state    292
 New state    299 was old state    302
 New state    300 was old state    299
 New state    301 was old state    300
 New state    302 was old state    297
 New state    303 was old state    304
 New state    304 was old state    305
 New state    305 was old state    327
 New state    306 was old state    308
 New state    308 was old state    310
 New state    310 was old state    311
 New state    311 was old state    313
 New state    312 was old state    314
 New state    313 was old state    312
 New state    314 was old state    306
 New state    316 was old state    317
 New state    317 was old state    320
 New state    318 was old state    316
 New state    320 was old state    325
 New state    321 was old state    318
 New state    322 was old state    321
 New state    323 was old state    324
 New state    324 was old state    323
 New state    325 was old state    326
 New state    326 was old state    322
 New state    327 was old state    329
 New state    328 was old state    331
 New state    329 was old state    328
 New state    331 was old state    333
 New state    332 was old state    335
 New state    333 was old state    337
 New state    334 was old state    338
 New state    335 was old state    332
 New state    337 was old state    334
 New state    338 was old state    339
 New state    339 was old state    340
 New state    340 was old state    341
 New state    341 was old state    342
 New state    342 was old state    345
 New state    344 was old state    347
 New state    345 was old state    344
 New state    346 was old state    348
 New state    347 was old state    346
 New state    348 was old state    349
 New state    349 was old state    352
 New state    350 was old state    354
 New state    351 was old state    353
 New state    352 was old state    350
 New state    353 was old state    351
 New state    354 was old state    356
 New state    356 was old state    368
 New state    358 was old state    359
 New state    359 was old state    358
 New state    360 was old state    361
 New state    361 was old state    360
 New state    368 was old state    371
 No map to state    371
 New state    373 was old state    375
 New state    374 was old state    373
 New state    375 was old state    374
 New state    377 was old state    378
 New state    378 was old state    377
 New state    379 was old state    380
 New state    380 was old state    379
 New state    382 was old state    388
 New state    383 was old state    382
 New state    384 was old state    383
 New state    385 was old state    384
 New state    386 was old state    385
 New state    388 was old state    386
 New state    392 was old state    393
 New state    393 was old state    392
 New state    395 was old state    397
 New state    396 was old state    395
 New state    397 was old state    396
 New state    399 was old state    407
 New state    400 was old state    408
 New state    401 was old state    400
 New state    402 was old state    405
 New state    403 was old state    402
 New state    405 was old state    401
 New state    407 was old state    403
 New state    408 was old state    409
 New state    409 was old state    414
 New state    410 was old state    411
 New state    411 was old state    410
 New state    413 was old state    416
 New state    414 was old state    415
 New state    415 was old state    413
 New state    416 was old state    421
 New state    417 was old state    418
 New state    418 was old state    420
 New state    419 was old state    431
 New state    420 was old state    419
 New state    421 was old state    422
 New state    422 was old state    423
 New state    423 was old state    424
 New state    424 was old state    425
 New state    425 was old state    426
 New state    426 was old state    427
 New state    427 was old state    432
 New state    428 was old state    429
 New state    429 was old state    428
 New state    431 was old state    433
 New state    432 was old state    440
 New state    433 was old state    434
 New state    434 was old state    417
 New state    435 was old state    438
 New state    437 was old state    439
 New state    438 was old state    435
 New state    439 was old state    437
 New state    440 was old state    441
 New state    441 was old state    448
 New state    444 was old state    445
 New state    445 was old state    447
 New state    447 was old state    444
 New state    448 was old state    450
 New state    449 was old state    451
 New state    450 was old state    452
 New state    451 was old state    454
 New state    452 was old state    455
 New state    454 was old state    449
 New state    455 was old state    458
 New state    458 was old state    462
 New state    459 was old state    460
 New state    460 was old state    459
 New state    462 was old state    466
 New state    463 was old state    464
 New state    464 was old state    463
 New state    466 was old state    467
 New state    467 was old state    471
 New state    469 was old state    472
 New state    471 was old state    473
 New state    472 was old state    474
 New state    473 was old state    475
 New state    474 was old state    478
 New state    475 was old state    476
 New state    476 was old state    479
 New state    478 was old state    480
 New state    479 was old state    481
 New state    480 was old state    482
 New state    481 was old state    483
 New state    482 was old state    487
 New state    483 was old state    488
 New state    487 was old state    489
 New state    488 was old state    490
 New state    489 was old state    493
 New state    490 was old state    491
 New state    491 was old state    492
 New state    492 was old state    497
 New state    493 was old state    494
 New state    494 was old state    495
 New state    495 was old state    496
 New state    496 was old state    502
 New state    497 was old state    498
 New state    498 was old state    501
 New state    499 was old state    500
 New state    500 was old state    499
 New state    501 was old state    503
 New state    502 was old state    506
 New state    503 was old state    505
 New state    505 was old state    507
 New state    506 was old state    520
 New state    507 was old state    508
 New state    508 was old state    513
 New state    510 was old state    512
 New state    511 was old state    515
 New state    512 was old state    511
 New state    513 was old state    510
 New state    515 was old state    541
 New state    518 was old state    519
 New state    519 was old state    518
 New state    520 was old state    527
 New state    521 was old state    523
 New state    522 was old state    521
 New state    523 was old state    525
 New state    524 was old state    522
 New state    525 was old state    526
 New state    526 was old state    528
 New state    527 was old state    529
 New state    528 was old state    524
 New state    529 was old state    530
 New state    530 was old state    531
 New state    531 was old state    539
 New state    536 was old state    537
 New state    537 was old state    536
 New state    539 was old state    540
 New state    540 was old state    542
 New state    541 was old state    544
 New state    542 was old state    543
 New state    543 was old state    545
 New state    544 was old state    546
 New state    545 was old state    547
 New state    546 was old state    548
 New state    547 was old state    557
 New state    548 was old state    575
 New state    553 was old state    554
 New state    554 was old state    553
 No map to state    557
 New state    567 was old state    568
 New state    568 was old state    567
 New state    569 was old state    570
 New state    570 was old state    571
 New state    571 was old state    569
 New state    575 was old state    576
 New state    576 was old state    579
 New state    577 was old state    578
 New state    578 was old state    580
 New state    579 was old state    582
 No map to state    580
 New state    581 was old state    577
 New state    582 was old state    581
 New state    590 was old state    591
 New state    591 was old state    595
 New state    592 was old state    594
 New state    593 was old state    590
 New state    594 was old state    592
 New state    595 was old state    596
 New state    596 was old state    597
 New state    597 was old state    599
 New state    598 was old state    593
 New state    599 was old state    602
 New state    600 was old state    604
 New state    601 was old state    598
 New state    602 was old state    603
 New state    603 was old state    605
 New state    604 was old state    608
 New state    605 was old state    609
 New state    606 was old state    611
 New state    607 was old state    601
 New state    608 was old state    607
 New state    609 was old state    600
 New state    610 was old state    613
 New state    611 was old state    614
 New state    612 was old state    617
 New state    613 was old state    615
 New state    614 was old state    618
 New state    615 was old state    619
 New state    616 was old state    612
 New state    617 was old state    620
 New state    618 was old state    623
 New state    619 was old state    622
 New state    620 was old state    616
 New state    621 was old state    624
 New state    622 was old state    621
 New state    623 was old state    625
 New state    624 was old state    626
 New state    625 was old state    635
 New state    626 was old state    627
 New state    627 was old state    630
 New state    630 was old state    633
 New state    631 was old state    632
 New state    632 was old state    638
 New state    633 was old state    634
 New state    634 was old state    640
 New state    635 was old state    636
 New state    636 was old state    637
 New state    637 was old state    631
 New state    638 was old state    639
 New state    639 was old state    646
 New state    640 was old state    641
 New state    641 was old state    642
 New state    642 was old state    643
 New state    643 was old state    660
 New state    644 was old state    645
 New state    645 was old state    663
 New state    646 was old state    644
 New state    649 was old state    652
 New state    652 was old state    653
 New state    653 was old state    649
 New state    654 was old state    656
 New state    656 was old state    654
 New state    657 was old state    658
 New state    658 was old state    657
 New state    660 was old state    662
 New state    661 was old state    664
 New state    662 was old state    661
 New state    663 was old state    665
 New state    664 was old state    666
 New state    665 was old state    667
 New state    666 was old state    668
 New state    667 was old state    669
 New state    668 was old state    681
 New state    669 was old state    671
 New state    671 was old state    672
 No map to state    672
 New state    673 was old state    674
 New state    674 was old state    673
 No map to state    681
 Excitation Energies [eV] at current iteration:
 Root      1 :     9.135622071137739
 Root      2 :     9.914793093537776
 Root      3 :    10.420006543148590
 Root      4 :    10.694150746701150
 Root      5 :    10.855281439299840
 Root      6 :    11.185149764298000
 Root      7 :    11.394091305522780
 Root      8 :    11.723473111675110
 Root      9 :    11.971495116751430
 Root     10 :    11.997030615139110
 Root     11 :    12.171750733373460
 Root     12 :    12.260151448102740
 Root     13 :    12.381590422966180
 Root     14 :    12.454068986626490
 Root     15 :    12.512661634623990
 Root     16 :    12.565676601445190
 Root     17 :    12.624682846522970
 Root     18 :    12.776023080766630
 Root     19 :    12.986837261426190
 Root     20 :    13.098330069442950
 Root     21 :    13.213618555090470
 Root     22 :    13.510975044347280
 Root     23 :    13.673005017318720
 Root     24 :    13.818523582050550
 Root     25 :    14.058094907735790
 Root     26 :    14.194847595616240
 Root     27 :    14.410651597412580
 Root     28 :    14.471930162532970
 Root     29 :    14.476031145154900
 Root     30 :    14.496840806213360
 Root     31 :    14.597134350257930
 Root     32 :    14.674531033445590
 Root     33 :    14.712095147060040
 Root     34 :    14.801633363651300
 Root     35 :    14.808756822681860
 Root     36 :    14.838832712380960
 Root     37 :    14.866641202152690
 Root     38 :    14.904074166793940
 Root     39 :    15.037330881640740
 Root     40 :    15.251841311767600
 Root     41 :    15.286195849609880
 Root     42 :    15.456727873388920
 Root     43 :    15.521097807706060
 Root     44 :    15.523960569490720
 Root     45 :    15.531766731386860
 Root     46 :    15.601159431881060
 Root     47 :    15.666097683096440
 Root     48 :    15.898325016819660
 Root     49 :    15.922182467729630
 Root     50 :    16.038828740415750
 Root     51 :    16.041794840285790
 Root     52 :    16.051544535923480
 Root     53 :    16.228385700575500
 Root     54 :    16.328467379103250
 Root     55 :    16.365755264880050
 Root     56 :    16.631339606342390
 Root     57 :    16.697129089386870
 Root     58 :    16.744497029652820
 Root     59 :    16.773735072453310
 Root     60 :    16.827778712030740
 Root     61 :    16.908876746246670
 Root     62 :    17.113770971899510
 Root     63 :    17.336157610340940
 Root     64 :    17.552575143102230
 Root     65 :    17.578987906838150
 Root     66 :    17.617868639162100
 Root     67 :    17.628871170888030
 Root     68 :    17.872144103926030
 Root     69 :    17.994567489511440
 Root     70 :    18.150610169071590
 Root     71 :    18.166483056032940
 Root     72 :    18.205486910864790
 Root     73 :    18.232078428439820
 Root     74 :    18.278191270225560
 Root     75 :    18.307924755617170
 Root     76 :    18.366157042307900
 Root     77 :    18.433942694297890
 Root     78 :    18.438049778471780
 Root     79 :    18.473386538184050
 Root     80 :    18.502539945395970
 Root     81 :    18.533656998112100
 Root     82 :    18.544332023565400
 Root     83 :    18.546641401879950
 Root     84 :    18.581618381389810
 Root     85 :    18.582455205935500
 Root     86 :    18.650359492487480
 Root     87 :    18.657800713166670
 Root     88 :    18.865048065415560
 Root     89 :    18.873435221885510
 Root     90 :    18.950091507318530
 Root     91 :    19.023194365642900
 Root     92 :    19.028680644692660
 Root     93 :    19.065688676175680
 Root     94 :    19.075041590190920
 Root     95 :    19.139699664041350
 Root     96 :    19.271322746729990
 Root     97 :    19.323573360519230
 Root     98 :    19.456235770078940
 Root     99 :    19.490840588510470
 Root    100 :    19.566001034697160
 Root    101 :    19.673758672706830
 Root    102 :    19.786824697484100
 Root    103 :    19.899154103193860
 Root    104 :    19.996299158716340
 Root    105 :    20.101610269047530
 Root    106 :    20.147183466691270
 Root    107 :    20.151515983254960
 Root    108 :    20.326294327133720
 Root    109 :    20.477736394067720
 Root    110 :    20.608396232764170
 Root    111 :    20.793258589205290
 Root    112 :    20.841145779232950
 Root    113 :    20.887626662408760
 Root    114 :    20.928938869568920
 Root    115 :    20.963515067667490
 Root    116 :    21.046564051988670
 Root    117 :    21.243562954453180
 Root    118 :    21.290057291748280
 Root    119 :    21.302298942407780
 Root    120 :    21.417064340880030
 Root    121 :    21.420916497094330
 Root    122 :    21.641578025974600
 Root    123 :    21.643000851454570
 Root    124 :    21.756766961028360
 Root    125 :    21.776760633501930
 Root    126 :    21.792782190525520
 Root    127 :    21.885625631403790
 Root    128 :    21.902004600405220
 Root    129 :    21.976659844079340
 Root    130 :    22.064323505925530
 Root    131 :    22.087983786363550
 Root    132 :    22.122357935999930
 Root    133 :    22.196121236671470
 Root    134 :    22.232759453277580
 Root    135 :    22.243158500388520
 Root    136 :    22.279646016231020
 Root    137 :    22.331181580475320
 Root    138 :    22.335112951513320
 Root    139 :    22.397220143401360
 Root    140 :    22.485134248731650
 Root    141 :    22.488366042526640
 Root    142 :    22.548254064582750
 Root    143 :    22.568752061412790
 Root    144 :    22.601152088848360
 Root    145 :    22.613375326085600
 Root    146 :    22.772339918331570
 Root    147 :    22.816554222779520
 Root    148 :    23.203673954469800
 Root    149 :    23.309784682634160
 Root    150 :    23.590196119252490
 Root    151 :    23.730327232220250
 Root    152 :    23.774121685356720
 Root    153 :    24.009139200126690
 Root    154 :    24.265418736447330
 Root    155 :    24.423942349625690
 Root    156 :    24.466957243201150
 Root    157 :    24.482723328185230
 Root    158 :    24.525880557943350
 Root    159 :    24.584469045736850
 Root    160 :    24.672225093677550
 Root    161 :    24.748636354436230
 Root    162 :    24.754961249597170
 Root    163 :    24.779915216506370
 Root    164 :    24.982044936957030
 Root    165 :    25.013958280521080
 Root    166 :    25.039524418261880
 Root    167 :    25.123080518708260
 Root    168 :    25.205220003544350
 Root    169 :    25.213841760359560
 Root    170 :    25.479922824583300
 Root    171 :    25.485927843295460
 Root    172 :    25.594918983231730
 Root    173 :    25.603367970585250
 Root    174 :    25.682118256139330
 Root    175 :    25.778837285066810
 Root    176 :    25.906629567501550
 Root    177 :    25.982577529962120
 Root    178 :    26.149546767823670
 Root    179 :    26.259031163551810
 Root    180 :    26.531219189246090
 Root    181 :    26.621115833334540
 Root    182 :    26.725445471970260
 Root    183 :    26.912247604855470
 Root    184 :    27.096593639757440
 Root    185 :    27.098382917377190
 Root    186 :    27.253323255257140
 Root    187 :    27.308393015267360
 Root    188 :    27.380187399111950
 Root    189 :    27.384331923536520
 Root    190 :    27.608883652685330
 Root    191 :    27.627104936423730
 Root    192 :    27.628117359247410
 Root    193 :    27.666427266715870
 Root    194 :    27.847623458079530
 Root    195 :    27.928787141593780
 Root    196 :    28.084616209500670
 Root    197 :    28.107823992321060
 Root    198 :    28.188856839230760
 Root    199 :    28.316027611918990
 Root    200 :    28.357822229180150
 Root    201 :    28.602102187121010
 Root    202 :    28.611288481976370
 Root    203 :    28.677530890273990
 Root    204 :    28.711424644703210
 Root    205 :    28.817205137263410
 Root    206 :    28.981179539493820
 Root    207 :    29.100760968352100
 Root    208 :    29.226003557192080
 Root    209 :    29.415984131120580
 Root    210 :    29.692141491161240
 Root    211 :    29.693499254454570
 Root    212 :    29.806779709164720
 Root    213 :    29.893600244895830
 Root    214 :    29.919642086246380
 Root    215 :    29.960827606898510
 Root    216 :    30.279128560320430
 Root    217 :    30.296433171614980
 Root    218 :    30.399041748463580
 Root    219 :    30.438338934397130
 Root    220 :    30.491561934257120
 Root    221 :    30.561892370922860
 Root    222 :    30.629014976282470
 Root    223 :    30.687817098970800
 Root    224 :    30.733349840033620
 Root    225 :    30.781649253784590
 Root    226 :    30.903179626825460
 Root    227 :    31.031520567069330
 Root    228 :    31.093779881714450
 Root    229 :    31.127719375873970
 Root    230 :    31.200729867844160
 Root    231 :    31.414836211195440
 Root    232 :    31.418967051490980
 Root    233 :    31.432102780892460
 Root    234 :    31.581347076004830
 Root    235 :    31.652392655431790
 Root    236 :    31.711666630242060
 Root    237 :    31.735378439700940
 Root    238 :    31.777662597968130
 Root    239 :    31.928496080058240
 Root    240 :    32.002280300301020
 Root    241 :    32.117729439214040
 Root    242 :    32.207206704576630
 Root    243 :    32.280421355858920
 Root    244 :    32.365447715274170
 Root    245 :    32.763475824145150
 Root    246 :    32.854008784615980
 Root    247 :    33.076664169739430
 Root    248 :    33.263548894313650
 Root    249 :    33.305487272089440
 Root    250 :    33.341662795063820
 Root    251 :    33.460815823838870
 Root    252 :    33.502427009181870
 Root    253 :    33.732715637712060
 Root    254 :    33.944914037042900
 Root    255 :    34.000599927925500
 Root    256 :    34.082983085020820
 Root    257 :    34.153328299095660
 Root    258 :    34.303014197623310
 Root    259 :    34.321465140547150
 Root    260 :    34.353607758472940
 Root    261 :    34.420140767559380
 Root    262 :    34.445330627521780
 Root    263 :    34.485611793824760
 Root    264 :    34.519525530485620
 Root    265 :    34.538212039324990
 Root    266 :    34.561828430311760
 Root    267 :    34.748516963684210
 Root    268 :    34.835127211180670
 Root    269 :    34.870921671697150
 Root    270 :    34.895736055909860
 Root    271 :    34.947736314971230
 Root    272 :    34.974316719745990
 Root    273 :    34.986101197979190
 Root    274 :    35.229945916554830
 Root    275 :    35.305036188535730
 Root    276 :    35.329404281686050
 Root    277 :    35.346288497389000
 Root    278 :    35.393644030234560
 Root    279 :    35.488311793201510
 Root    280 :    35.506817263759710
 Root    281 :    35.602654391079170
 Root    282 :    35.663589009796540
 Root    283 :    35.729096182538330
 Root    284 :    35.738314762698410
 Root    285 :    35.745345591436090
 Root    286 :    36.191420683670150
 Root    287 :    36.219607183192290
 Root    288 :    36.274776204099140
 Root    289 :    36.408819061062400
 Root    290 :    36.421293395004220
 Root    291 :    36.454082178843580
 Root    292 :    36.603685095145680
 Root    293 :    36.624096759984330
 Root    294 :    36.722674064107400
 Root    295 :    36.795732745087110
 Root    296 :    36.982846121611220
 Root    297 :    36.993821150288170
 Root    298 :    37.065944318876740
 Root    299 :    37.080115120696740
 Root    300 :    37.252405296948930
 Root    301 :    37.272750509167000
 Root    302 :    37.302015625267980
 Root    303 :    37.511103022679360
 Root    304 :    37.673787170554800
 Root    305 :    37.780887077208650
 Root    306 :    37.969648598994450
 Root    307 :    38.055725945968650
 Root    308 :    38.090729643734350
 Root    309 :    38.202926254939530
 Root    310 :    38.206505386368480
 Root    311 :    38.311079563026360
 Root    312 :    38.383360990993800
 Root    313 :    38.489754890452090
 Root    314 :    38.568844371826610
 Root    315 :    38.721573176119240
 Root    316 :    38.743535387766040
 Root    317 :    38.959015889061970
 Root    318 :    39.047748633236860
 Root    319 :    39.237559688543580
 Root    320 :    39.239181031754060
 Root    321 :    39.329932582486240
 Root    322 :    39.354021467571830
 Root    323 :    39.497961131214350
 Root    324 :    39.594719283506410
 Root    325 :    39.606593828287260
 Root    326 :    39.628558594650820
 Root    327 :    39.848821058164700
 Root    328 :    39.850733872844840
 Root    329 :    39.907545103322700
 Root    330 :    40.067124611133320
 Root    331 :    40.165324094278400
 Root    332 :    40.174454890611780
 Root    333 :    40.237649421980510
 Root    334 :    40.354706617397230
 Root    335 :    40.444539709746760
 Root    336 :    40.640726024930830
 Root    337 :    40.668751120781710
 Root    338 :    40.993462010394100
 Root    339 :    41.121850138640120
 Root    340 :    41.217723978111810
 Root    341 :    41.674803490257710
 Root    342 :    41.749292065034800
 Root    343 :    41.996057553557190
 Root    344 :    42.045685557416160
 Root    345 :    42.102264957536380
 Root    346 :    42.337099400746550
 Root    347 :    42.356019310701970
 Root    348 :    42.509783667046040
 Root    349 :    42.523227847820540
 Root    350 :    42.585111103282180
 Root    351 :    42.622051532438430
 Root    352 :    42.665338959957160
 Root    353 :    42.971671971577300
 Root    354 :    43.041715158121680
 Root    355 :    43.282798831239060
 Root    356 :    43.852171022931590
 Root    357 :    44.008880262443490
 Root    358 :    44.049258584297270
 Root    359 :    44.239436051913530
 Root    360 :    44.278450840114960
 Root    361 :    44.512603390785170
 Root    362 :    44.532196126493210
 Root    363 :    44.927419682981700
 Root    364 :    45.128124070812380
 Root    365 :    46.394083919088230
 Root    366 :    46.499201292762560
 Root    367 :    46.709631949061410
 Root    368 :    47.179995489051100
 Root    369 :    47.678236519188180
 Root    370 :    47.889660073449120
 Root    371 :    48.707288328439780
 Root    372 :    48.869112939423180
 Root    373 :    48.976801526232680
 Root    374 :    49.300903974377160
 Root    375 :    49.368314035952280
 Root    376 :    49.640280894467670
 Root    377 :    50.125969858195630
 Root    378 :    50.156959005925640
 Root    379 :    50.338902727467050
 Root    380 :    50.550614980343280
 Root    381 :    50.733799503371090
 Root    382 :    50.936961255175140
 Root    383 :    51.002266687867130
 Root    384 :    51.108566148761180
 Root    385 :    51.176105939771330
 Root    386 :    51.455975343116910
 Root    387 :    51.565316138716960
 Root    388 :    51.566135065908430
 Root    389 :    51.850765877752830
 Root    390 :    52.063359573395090
 Root    391 :    52.125520960146050
 Root    392 :    52.590080297891170
 Root    393 :    52.608093540704530
 Root    394 :    52.758233797994220
 Root    395 :    52.971195682611320
 Root    396 :    53.146163116960790
 Root    397 :    53.163062305861390
 Root    398 :    53.250615603100780
 Root    399 :    53.391976032886800
 Root    400 :    53.749995366233310
 Root    401 :    53.859204512287390
 Root    402 :    53.861524064888310
 Root    403 :    54.007323770015650
 Root    404 :    54.073812570843950
 Root    405 :    54.080483436121900
 Root    406 :    54.161556594044220
 Root    407 :    54.183464524748290
 Root    408 :    54.454398857428820
 Root    409 :    54.748070830813050
 Root    410 :    54.800127629746250
 Root    411 :    54.841043539738170
 Root    412 :    54.844309305372750
 Root    413 :    55.116918857219490
 Root    414 :    55.252848306188290
 Root    415 :    55.269141718502990
 Root    416 :    55.714431727629070
 Root    417 :    56.172549971507080
 Root    418 :    56.594409883535050
 Root    419 :    56.665207755682320
 Root    420 :    56.840931773408020
 Root    421 :    56.843769813192670
 Root    422 :    56.995042662445130
 Root    423 :    57.060228008233690
 Root    424 :    57.106006658742000
 Root    425 :    57.126305036369110
 Root    426 :    57.247460299716390
 Root    427 :    57.252419252188520
 Root    428 :    57.333325014434460
 Root    429 :    57.460348742960460
 Root    430 :    57.517177208063470
 Root    431 :    57.596120553079190
 Root    432 :    57.658241956813040
 Root    433 :    58.171010383969280
 Root    434 :    58.286691129650340
 Root    435 :    58.571720418183520
 Root    436 :    58.716797935133930
 Root    437 :    58.742609124490680
 Root    438 :    58.829625839089780
 Root    439 :    58.863859238358450
 Root    440 :    59.227478754348450
 Root    441 :    59.280856435325230
 Root    442 :    59.358258481537780
 Root    443 :    59.799398565812740
 Root    444 :    60.160463049362030
 Root    445 :    60.413884294356610
 Root    446 :    60.560810711780650
 Root    447 :    60.576253799544870
 Root    448 :    60.899522309388790
 Root    449 :    60.976792028123650
 Root    450 :    61.021684350605330
 Root    451 :    61.241687745818330
 Root    452 :    61.267395522479420
 Root    453 :    61.297183921056010
 Root    454 :    61.573110794524520
 Root    455 :    61.866350700805440
 Root    456 :    61.971577842754160
 Root    457 :    62.175843180603910
 Root    458 :    62.706986931445180
 Root    459 :    62.730215628463510
 Root    460 :    62.778614698369870
 Root    461 :    62.883553116477740
 Root    462 :    63.011187587299180
 Root    463 :    63.392470290892380
 Root    464 :    63.399875102757960
 Root    465 :    63.503446570780650
 Root    466 :    64.278703567426530
 Root    467 :    64.582496630846710
 Root    468 :    64.592560814205360
 Root    469 :    64.736732003497850
 Root    470 :    64.816432143744920
 Root    471 :    64.904213297298100
 Root    472 :    64.997440881945070
 Root    473 :    65.356429262990840
 Root    474 :    65.633100121798900
 Root    475 :    65.643334377215450
 Root    476 :    65.680991067953730
 Root    477 :    65.700039804514860
 Root    478 :    65.861402642315570
 Root    479 :    66.370823302880780
 Root    480 :    66.654950247712680
 Root    481 :    66.700056752395500
 Root    482 :    66.808134988192460
 Root    483 :    67.365080517556280
 Root    484 :    68.048951501041340
 Root    485 :    68.135565598854400
 Root    486 :    68.206942564884600
 Root    487 :    68.274268892952880
 Root    488 :    68.581537293606670
 Root    489 :    68.618943693915640
 Root    490 :    68.619690446626520
 Root    491 :    68.710941953164730
 Root    492 :    68.965156982756470
 Root    493 :    69.059741133048760
 Root    494 :    69.109573721502810
 Root    495 :    69.324348752456870
 Root    496 :    69.626786316817320
 Root    497 :    69.648439870052900
 Root    498 :    69.845002124054430
 Root    499 :    70.372786554500000
 Root    500 :    70.412904945262640
 Root    501 :    70.994902003394270
 Root    502 :    71.001486029660710
 Root    503 :    71.072456508965120
 Root    504 :    71.241593886586730
 Root    505 :    71.247687016052780
 Root    506 :    71.251586156341970
 Root    507 :    71.603682779554700
 Root    508 :    71.959202502393540
 Root    509 :    72.073168963109440
 Root    510 :    72.214066149940480
 Root    511 :    72.626318117174820
 Root    512 :    72.634446236744080
 Root    513 :    72.693649934579990
 Root    514 :    72.751832413504320
 Root    515 :    72.941230768521960
 Root    516 :    73.144041737435530
 Root    517 :    73.156659526281500
 Root    518 :    73.347826493406420
 Root    519 :    73.383385412166970
 Root    520 :    74.004097321747710
 Root    521 :    74.048756602116460
 Root    522 :    74.101000608813780
 Root    523 :    74.321948288220200
 Root    524 :    74.445625841377340
 Root    525 :    74.507051468479150
 Root    526 :    74.522608465329340
 Root    527 :    74.532621492964880
 Root    528 :    74.677140487092500
 Root    529 :    74.741828868760280
 Root    530 :    75.113004698361820
 Root    531 :    75.324143719208370
 Root    532 :    75.557277616822060
 Root    533 :    76.255448715863300
 Root    534 :    76.281576163137840
 Root    535 :    76.387410410390700
 Root    536 :    76.778781360031660
 Root    537 :    77.193403952651080
 Root    538 :    77.292801909235340
 Root    539 :    77.615378246096000
 Root    540 :    78.151405501526370
 Root    541 :    78.175169929153670
 Root    542 :    78.243329046786560
 Root    543 :    78.305944689503250
 Root    544 :    78.559174200906710
 Root    545 :    78.728339176078190
 Root    546 :    78.846486584709210
 Root    547 :    80.334808309806550
 Root    548 :    80.362000535931530
 Root    549 :    80.901170443075300
 Root    550 :    82.016446850540400
 Root    551 :    82.941187399334620
 Root    552 :    83.962915444744670
 Root    553 :    84.382176444184670
 Root    554 :    84.622863604423960
 Root    555 :    85.342745456406770
 Root    556 :    85.408668894441420
 Root    557 :    85.732619554260320
 Root    558 :    86.278586432242880
 Root    559 :    86.443073736970460
 Root    560 :    86.682931837689950
 Root    561 :    86.933389012425120
 Root    562 :    87.041658717243270
 Root    563 :    87.200806504293410
 Root    564 :    87.805128965257500
 Root    565 :    88.119294253020610
 Root    566 :    89.827846402799540
 Root    567 :    89.933686921278180
 Root    568 :    90.006825424125370
 Root    569 :    90.034323066542070
 Root    570 :    90.091313370663240
 Root    571 :    90.159131094926540
 Root    572 :    90.561226635861570
 Root    573 :    91.306971592970340
 Root    574 :    92.270841559965530
 Root    575 :    92.380755404597250
 Root    576 :    93.438784992220150
 Root    577 :    93.497007943003170
 Root    578 :    93.624804931174860
 Root    579 :    93.921018818395350
 Root    580 :    93.999746019986860
 Root    581 :    94.308183118856310
 Root    582 :    94.310364555065450
 Root    583 :    95.569358752385980
 Root    584 :    95.786596717783380
 Root    585 :    97.163793300307660
 Root    586 :    97.324342097956200
 Root    587 :    97.477218479308430
 Root    588 :    98.174866426884820
 Root    589 :    98.449776060032860
 Root    590 :    98.632464088724050
 Root    591 :    98.637564524860150
 Root    592 :    99.251356014835740
 Root    593 :    99.381937445481340
 Root    594 :    99.492571926642410
 Root    595 :   100.290155479511200
 Root    596 :   100.428670759944100
 Root    597 :   100.443854043485100
 Root    598 :   100.535091275946200
 Root    599 :   100.795375807320400
 Root    600 :   100.905162553989000
 Root    601 :   101.029958357760800
 Root    602 :   101.097724537744800
 Root    603 :   101.503485461246800
 Root    604 :   101.654428163859900
 Root    605 :   102.115703639376700
 Root    606 :   102.308198931118000
 Root    607 :   102.387066620688900
 Root    608 :   102.668575347371900
 Root    609 :   102.973367256030900
 Root    610 :   103.152790033781900
 Root    611 :   103.407785307334800
 Root    612 :   103.606624241361100
 Root    613 :   103.632959795959100
 Root    614 :   103.638066566190700
 Root    615 :   103.894059235972700
 Root    616 :   104.159279422884100
 Root    617 :   104.415709784576900
 Root    618 :   104.428554998873800
 Root    619 :   104.622342027107400
 Root    620 :   104.657017224815700
 Root    621 :   104.825075068681400
 Root    622 :   105.008052300447000
 Root    623 :   105.119204227286800
 Root    624 :   105.259246260729500
 Root    625 :   105.704537520960300
 Root    626 :   105.871474400045100
 Root    627 :   106.045997676104800
 Root    628 :   106.189850315292400
 Root    629 :   106.411832071406400
 Root    630 :   106.794240501125300
 Root    631 :   107.280435179345200
 Root    632 :   107.377269945156000
 Root    633 :   107.476916345617200
 Root    634 :   107.833199284226800
 Root    635 :   107.977956306162300
 Root    636 :   108.098311845140600
 Root    637 :   108.366067469814600
 Root    638 :   108.514447629035500
 Root    639 :   108.829961864639400
 Root    640 :   108.997603939936900
 Root    641 :   109.243013316417400
 Root    642 :   109.402303426063200
 Root    643 :   109.491597478970900
 Root    644 :   109.726430790463400
 Root    645 :   109.877757628268900
 Root    646 :   109.987072182604200
 Root    647 :   110.833718156040600
 Root    648 :   110.868289489236400
 Root    649 :   111.540353854189200
 Root    650 :   111.614509436230100
 Root    651 :   111.743293618192300
 Root    652 :   112.421310621128000
 Root    653 :   113.091400000763100
 Root    654 :   113.158198672768100
 Root    655 :   114.243961473754400
 Root    656 :   114.513136356662600
 Root    657 :   114.792159140631500
 Root    658 :   115.481722513872700
 Root    659 :   115.846341545425700
 Root    660 :   117.166922096642900
 Root    661 :   117.242216603705600
 Root    662 :   117.245918593351000
 Root    663 :   117.364782306100800
 Root    664 :   117.760348179187400
 Root    665 :   118.277218465580700
 Root    666 :   120.237382973010200
 Root    667 :   120.691273655177600
 Root    668 :   120.736830891953500
 Root    669 :   121.052098491363300
 Root    670 :   121.149452128111100
 Root    671 :   121.617000016934400
 Root    672 :   121.982039373894700
 Root    673 :   122.099632125705400
 Root    674 :   122.153930095726700
 Root    675 :   122.480073310734800
 Root    676 :   122.980565508587800
 Root    677 :   123.410821186558700
 Root    678 :   123.938064434384600
 Root    679 :   123.939017546208900
 Root    680 :   124.193660725989400
 Root    681 :   124.685940941603400
 Root    682 :   125.409868306883500
 Root    683 :   126.788275397052700
 Root    684 :   128.265669860451700
 Root    685 :   128.914115889550700
 Root    686 :   130.446705177331900
 Root    687 :   134.157881433411900
 Root    688 :   135.673766534484300
 Root    689 :   137.499758441687500
 Root    690 :   138.954763701460600
 Convergence achieved for final wavefunctions.
 ***********************************************************************
 Excited states from <AA,BB:AA,BB> singles matrix:
 ***********************************************************************
 
 1PDM for each excited state written to RWF  633
 Ground to excited state transition densities written to RWF  633
 Ground to excited state transition electric dipole moments (Au):
       state          X           Y           Z        Dip. S.      Osc.
         1        -0.3589     -0.0000      0.0000      0.1288      0.0288
         2         0.0000      0.0000     -0.0000      0.0000      0.0000
         3         0.2731     -0.0000     -0.0000      0.0746      0.0190
         4        -0.0000     -0.0000     -0.5188      0.2691      0.0705
         5        -0.0000      0.3521      0.0000      0.1240      0.0330
         6        -0.0000      0.0000     -0.0427      0.0018      0.0005
         7         0.0000      0.0000     -0.0000      0.0000      0.0000
         8         0.0000      0.0000      0.2640      0.0697      0.0200
         9         0.0000     -0.1944      0.0000      0.0378      0.0111
        10         0.4342     -0.0000     -0.0000      0.1885      0.0554
        11         0.3919     -0.0000      0.0000      0.1536      0.0458
        12        -0.0000     -0.0000     -0.0000      0.0000      0.0000
        13        -0.0000     -0.0000      0.6391      0.4084      0.1239
        14         0.0000      0.5320     -0.0000      0.2830      0.0864
        15        -0.4288      0.0000      0.0000      0.1839      0.0564
        16        -0.0000     -0.0000      0.0000      0.0000      0.0000
        17         0.0000      0.0000     -0.0000      0.0000      0.0000
        18        -0.0000      0.1822     -0.0000      0.0332      0.0104
        19         0.1305      0.0000     -0.0000      0.0170      0.0054
        20         0.0000      0.3747      0.0000      0.1404      0.0451
        21         0.0000      0.0000      0.4159      0.1730      0.0560
        22         0.0000     -0.0292      0.0000      0.0009      0.0003
        23         0.0000      0.0000      0.0000      0.0000      0.0000
        24        -0.0000     -0.0000      0.1868      0.0349      0.0118
        25        -0.0000      0.0000      0.0000      0.0000      0.0000
        26         0.0000     -0.0000      0.1629      0.0265      0.0092
        27        -0.0000     -0.0000      0.0000      0.0000      0.0000
        28         0.0544      0.0000      0.0000      0.0030      0.0010
        29        -0.0000      0.5353     -0.0000      0.2866      0.1016
        30        -0.2797     -0.0000     -0.0000      0.0782      0.0278
        31        -0.0000      0.2073      0.0000      0.0430      0.0154
        32         0.0000     -0.0430     -0.0000      0.0018      0.0007
        33        -0.3355      0.0000      0.0000      0.1126      0.0406
        34        -0.4896      0.0000     -0.0000      0.2397      0.0869
        35         0.0000      0.0000     -0.3271      0.1070      0.0388
        36         0.1465      0.0000      0.0000      0.0215      0.0078
        37        -0.0000      0.0000      0.0000      0.0000      0.0000
        38        -0.0000      0.0000      0.0138      0.0002      0.0001
        39        -0.0000      0.0000      0.0000      0.0000      0.0000
        40         0.0000     -0.0000      0.1272      0.0162      0.0060
        41         0.0000      0.2423      0.0000      0.0587      0.0220
        42        -0.0000      0.0000      0.1724      0.0297      0.0113
        43        -0.0000     -0.0000     -0.0000      0.0000      0.0000
        44        -0.0000     -0.1872     -0.0000      0.0350      0.0133
        45        -0.5066      0.0000      0.0000      0.2567      0.0977
        46        -0.0000     -0.5877     -0.0000      0.3454      0.1320
        47        -0.0000      0.0000     -0.2888      0.0834      0.0320
        48         0.0663      0.0000      0.0000      0.0044      0.0017
        49         0.0000      0.2851     -0.0000      0.0813      0.0317
        50        -0.3143     -0.0000     -0.0000      0.0988      0.0388
        51        -0.0000     -0.0000      0.0000      0.0000      0.0000
        52        -0.0000      0.0000      0.5918      0.3503      0.1377
        53        -0.4281      0.0000     -0.0000      0.1833      0.0729
        54        -0.0000      0.6416     -0.0000      0.4116      0.1647
        55         0.0000     -0.0000     -0.0176      0.0003      0.0001
        56         0.0000      0.0000      0.3840      0.1475      0.0601
        57         0.0000     -0.3531      0.0000      0.1247      0.0510
        58        -0.0000     -0.0000     -0.0000      0.0000      0.0000
        59         0.0000      0.0000      0.2916      0.0851      0.0350
        60        -0.0000     -0.0000      0.0000      0.0000      0.0000
        61         0.1786      0.0000     -0.0000      0.0319      0.0132
        62        -0.0000     -0.3344     -0.0000      0.1118      0.0469
        63         0.0000     -0.0000     -0.1781      0.0317      0.0135
        64         0.0000     -0.0000     -0.3434      0.1179      0.0507
        65         0.0000      0.0000     -0.0000      0.0000      0.0000
        66         0.0000     -0.3562      0.0000      0.1269      0.0548
        67         0.4667      0.0000      0.0000      0.2178      0.0941
        68        -0.0000      0.0000      0.0546      0.0030      0.0013
        69        -0.2352      0.0000      0.0000      0.0553      0.0244
        70        -0.0000      0.0951      0.0000      0.0091      0.0040
        71         0.0000     -0.0000     -0.0000      0.0000      0.0000
        72        -0.0000     -0.0000     -0.0000      0.0000      0.0000
        73        -0.0000      0.0000     -0.0000      0.0000      0.0000
        74        -0.0000     -0.0000     -0.2033      0.0413      0.0185
        75         0.1437      0.0000      0.0000      0.0206      0.0093
        76        -0.0000     -0.0000     -0.0000      0.0000      0.0000
        77         0.1701     -0.0000      0.0000      0.0289      0.0131
        78         0.0000      0.4351      0.0000      0.1893      0.0855
        79         0.0000     -0.0000      0.3284      0.1079      0.0488
        80        -0.0000     -0.0000      0.0000      0.0000      0.0000
        81         0.3089     -0.0000     -0.0000      0.0954      0.0433
        82         0.0000     -0.0183      0.0000      0.0003      0.0002
        83        -0.0000     -0.0000     -0.3647      0.1330      0.0604
        84         0.0000     -0.3225      0.0000      0.1040      0.0473
        85         0.0000      0.0000      0.0650      0.0042      0.0019
        86         0.1428      0.0000      0.0000      0.0204      0.0093
        87        -0.0000     -0.0000      0.0822      0.0068      0.0031
        88         0.0000     -0.3057      0.0000      0.0934      0.0432
        89        -0.0000      0.0000      0.0887      0.0079      0.0036
        90         0.0000      0.0000      0.3896      0.1518      0.0705
        91        -0.0000     -0.0893      0.0000      0.0080      0.0037
        92        -0.0000      0.0000      0.3723      0.1386      0.0646
        93        -0.3135      0.0000     -0.0000      0.0983      0.0459
        94         0.0000      0.0000      0.0000      0.0000      0.0000
        95         0.0238      0.0000      0.0000      0.0006      0.0003
        96        -0.0000     -0.0000      0.0000      0.0000      0.0000
        97         0.0000     -0.0437      0.0000      0.0019      0.0009
        98        -0.0000     -0.0000      0.0000      0.0000      0.0000
        99         0.0000      0.0000      0.0000      0.0000      0.0000
       100         0.0000     -0.0000     -0.3265      0.1066      0.0511
       101         0.1203      0.0000     -0.0000      0.0145      0.0070
       102        -0.0000     -0.1063      0.0000      0.0113      0.0055
       103        -0.2154     -0.0000      0.0000      0.0464      0.0226
       104         0.0000     -0.0421      0.0000      0.0018      0.0009
       105         0.0440      0.0000     -0.0000      0.0019      0.0010
       106         0.0000     -0.0000     -0.0000      0.0000      0.0000
       107         0.0000     -0.0000      0.2418      0.0585      0.0289
       108        -0.1271      0.0000      0.0000      0.0162      0.0080
       109         0.0000     -0.5565      0.0000      0.3097      0.1554
       110         0.0000     -0.0000      0.0000      0.0000      0.0000
       111         0.0000      0.0000     -0.0374      0.0014      0.0007
       112         0.0000     -0.3848     -0.0000      0.1480      0.0756
       113        -0.0000      0.0939      0.0000      0.0088      0.0045
       114         0.2984      0.0000      0.0000      0.0890      0.0456
       115        -0.0000      0.0000      0.1775      0.0315      0.0162
       116        -0.0846     -0.0000      0.0000      0.0071      0.0037
       117        -0.0000     -0.0000     -0.5286      0.2794      0.1454
[...]
     13   0.000000D+00  0.000000D+00 -0.636623D+00  0.000000D+00  0.000000D+00
     14   0.000000D+00  0.127895D+00  0.000000D+00  0.000000D+00  0.000000D+00
     15   0.000000D+00  0.000000D+00  0.000000D+00 -0.219696D+00  0.000000D+00
     16   0.218945D+00  0.000000D+00  0.000000D+00  0.000000D+00  0.198766D+01
               621           622           623           624           625 
      1  -0.234970D+03 -0.234964D+03 -0.234959D+03 -0.234954D+03 -0.234938D+03
      2   0.000000D+00  0.000000D+00  0.000000D+00  0.150806D-01  0.000000D+00
      3   0.206594D+00  0.000000D+00  0.000000D+00  0.000000D+00  0.217148D+00
      4   0.000000D+00  0.000000D+00 -0.437548D-01  0.000000D+00  0.000000D+00
      5   0.000000D+00  0.000000D+00  0.000000D+00 -0.511427D-01  0.000000D+00
      6  -0.693821D+00  0.000000D+00  0.000000D+00  0.000000D+00 -0.732628D+00
      7   0.000000D+00  0.000000D+00  0.154690D+00  0.000000D+00  0.000000D+00
      8   0.309032D+00  0.000000D+00  0.000000D+00  0.000000D+00 -0.216405D+01
      9   0.000000D+00  0.000000D+00  0.000000D+00  0.489451D-01  0.000000D+00
     10   0.000000D+00  0.438904D+00  0.000000D+00  0.000000D+00  0.000000D+00
     11   0.000000D+00  0.000000D+00 -0.108767D-01  0.000000D+00  0.000000D+00
     12   0.000000D+00  0.000000D+00 -0.212225D+00  0.000000D+00  0.000000D+00
     13   0.000000D+00  0.000000D+00 -0.293714D+00  0.000000D+00  0.000000D+00
     14   0.000000D+00 -0.238224D+00  0.000000D+00  0.000000D+00  0.000000D+00
     15   0.000000D+00  0.000000D+00  0.000000D+00  0.585803D-01  0.000000D+00
     16   0.101476D+01  0.000000D+00  0.000000D+00  0.000000D+00 -0.148256D+01
               626           627           628           629           630 
      1  -0.234932D+03 -0.234925D+03 -0.234920D+03 -0.234912D+03 -0.234898D+03
      2   0.182713D+00  0.858539D-01  0.000000D+00  0.000000D+00  0.000000D+00
      3   0.000000D+00  0.000000D+00  0.000000D+00  0.000000D+00  0.000000D+00
      4   0.000000D+00  0.000000D+00  0.000000D+00 -0.121082D+00  0.189120D+00
      5  -0.589294D+00 -0.281521D+00  0.000000D+00  0.000000D+00  0.000000D+00
      6   0.000000D+00  0.000000D+00  0.000000D+00  0.000000D+00  0.000000D+00
      7   0.000000D+00  0.000000D+00  0.000000D+00  0.435264D+00 -0.625239D+00
      8   0.000000D+00  0.000000D+00  0.000000D+00  0.000000D+00  0.000000D+00
      9   0.277154D+00  0.120065D+00  0.000000D+00  0.000000D+00  0.000000D+00
     10   0.000000D+00  0.000000D+00 -0.762652D+00  0.000000D+00  0.000000D+00
     11   0.000000D+00  0.000000D+00  0.000000D+00 -0.262527D-01  0.138518D+00
     12   0.000000D+00  0.000000D+00  0.000000D+00 -0.272736D+01 -0.157788D+01
     13   0.000000D+00  0.000000D+00  0.000000D+00 -0.614168D+00  0.528762D+00
     14   0.000000D+00  0.000000D+00  0.588015D+00  0.000000D+00  0.000000D+00
     15   0.236676D+00 -0.534483D-01  0.000000D+00  0.000000D+00  0.000000D+00
     16   0.000000D+00  0.000000D+00  0.000000D+00  0.000000D+00  0.000000D+00
               631           632           633           634           635 
      1  -0.234880D+03 -0.234876D+03 -0.234873D+03 -0.234860D+03 -0.234854D+03
      2  -0.215841D+00  0.000000D+00  0.000000D+00  0.000000D+00  0.000000D+00
      3   0.000000D+00  0.000000D+00 -0.181078D-01  0.000000D+00 -0.371125D-01
      4   0.000000D+00 -0.272304D+00  0.000000D+00  0.000000D+00  0.000000D+00
      5   0.751976D+00  0.000000D+00  0.000000D+00  0.000000D+00  0.000000D+00
      6   0.000000D+00  0.000000D+00  0.718981D-01  0.000000D+00  0.126762D+00
      7   0.000000D+00  0.926578D+00  0.000000D+00  0.000000D+00  0.000000D+00
      8   0.000000D+00  0.000000D+00 -0.904516D-01  0.000000D+00  0.165146D+01
      9  -0.460057D+00  0.000000D+00  0.000000D+00  0.000000D+00  0.000000D+00
     10   0.000000D+00  0.000000D+00  0.000000D+00 -0.120848D+01  0.000000D+00
     11   0.000000D+00  0.173036D-01  0.000000D+00  0.000000D+00  0.000000D+00
     12   0.000000D+00  0.464976D+01  0.000000D+00  0.000000D+00  0.000000D+00
     13   0.000000D+00 -0.900968D+00  0.000000D+00  0.000000D+00  0.000000D+00
     14   0.000000D+00  0.000000D+00  0.000000D+00  0.134879D+01  0.000000D+00
     15  -0.306295D+00  0.000000D+00  0.000000D+00  0.000000D+00  0.000000D+00
     16   0.000000D+00  0.000000D+00 -0.331850D+00  0.000000D+00  0.179729D+01
               636           637           638           639           640 
      1  -0.234850D+03 -0.234840D+03 -0.234835D+03 -0.234823D+03 -0.234817D+03
      2   0.000000D+00  0.000000D+00  0.000000D+00  0.000000D+00  0.000000D+00
      3   0.000000D+00  0.000000D+00  0.167898D+00 -0.272629D+00  0.000000D+00
      4   0.000000D+00  0.000000D+00  0.000000D+00  0.000000D+00 -0.264494D-01
      5   0.000000D+00  0.000000D+00  0.000000D+00  0.000000D+00  0.000000D+00
      6   0.000000D+00  0.000000D+00 -0.611371D+00  0.952746D+00  0.000000D+00
      7   0.000000D+00  0.000000D+00  0.000000D+00  0.000000D+00  0.100263D+00
      8   0.000000D+00  0.000000D+00  0.748010D-01  0.172070D+01  0.000000D+00
      9   0.000000D+00  0.000000D+00  0.000000D+00  0.000000D+00  0.000000D+00
     10   0.145126D+00  0.265381D+01  0.000000D+00  0.000000D+00  0.000000D+00
     11   0.000000D+00  0.000000D+00  0.000000D+00  0.000000D+00  0.698772D-01
     12   0.000000D+00  0.000000D+00  0.000000D+00  0.000000D+00  0.277088D+00
     13   0.000000D+00  0.000000D+00  0.000000D+00  0.000000D+00 -0.540767D+00
     14  -0.316552D+00 -0.282680D+01  0.000000D+00  0.000000D+00  0.000000D+00
     15   0.000000D+00  0.000000D+00  0.000000D+00  0.000000D+00  0.000000D+00
     16   0.000000D+00  0.000000D+00  0.908813D+00  0.649443D+00  0.000000D+00
               641           642           643           644           645 
      1  -0.234808D+03 -0.234802D+03 -0.234799D+03 -0.234790D+03 -0.234785D+03
      2   0.899178D-01  0.000000D+00  0.000000D+00  0.000000D+00  0.000000D+00
      3   0.000000D+00  0.000000D+00  0.000000D+00  0.000000D+00 -0.257407D+00
      4   0.000000D+00 -0.193773D+00  0.392699D+00  0.000000D+00  0.000000D+00
      5  -0.278879D+00  0.000000D+00  0.000000D+00  0.000000D+00  0.000000D+00
      6   0.000000D+00  0.000000D+00  0.000000D+00  0.000000D+00  0.937765D+00
      7   0.000000D+00  0.698439D+00 -0.138235D+01  0.000000D+00  0.000000D+00
      8   0.000000D+00  0.000000D+00  0.000000D+00  0.000000D+00 -0.344888D+00
      9   0.700464D-01  0.000000D+00  0.000000D+00  0.000000D+00  0.000000D+00
     10   0.000000D+00  0.000000D+00  0.000000D+00 -0.247125D+01  0.000000D+00
     11   0.000000D+00 -0.296721D+00 -0.572193D-01  0.000000D+00  0.000000D+00
     12   0.000000D+00 -0.774600D+00  0.833537D+00  0.000000D+00  0.000000D+00
     13   0.000000D+00 -0.645214D+00  0.166170D+01  0.000000D+00  0.000000D+00
     14   0.000000D+00  0.000000D+00  0.000000D+00  0.257600D+01  0.000000D+00
     15   0.329274D+00  0.000000D+00  0.000000D+00  0.000000D+00  0.000000D+00
     16   0.000000D+00  0.000000D+00  0.000000D+00  0.000000D+00 -0.132960D+01
               646           647           648           649           650 
      1  -0.234781D+03 -0.234749D+03 -0.234748D+03 -0.234723D+03 -0.234721D+03
      2   0.251645D+00  0.188685D-01  0.000000D+00  0.559381D-02  0.000000D+00
      3   0.000000D+00  0.000000D+00  0.000000D+00  0.000000D+00 -0.879500D-01
      4   0.000000D+00  0.000000D+00  0.000000D+00  0.000000D+00  0.000000D+00
      5  -0.879012D+00 -0.487147D-01  0.000000D+00 -0.384413D-01  0.000000D+00
      6   0.000000D+00  0.000000D+00  0.000000D+00  0.000000D+00  0.318468D+00
      7   0.000000D+00  0.000000D+00  0.000000D+00  0.000000D+00  0.000000D+00
      8   0.000000D+00  0.000000D+00  0.000000D+00  0.000000D+00  0.106585D+01
      9   0.608587D+00  0.366573D-01  0.000000D+00  0.602007D-02  0.000000D+00
     10   0.000000D+00  0.000000D+00  0.189925D+00  0.000000D+00  0.000000D+00
     11   0.000000D+00  0.000000D+00  0.000000D+00  0.000000D+00  0.000000D+00
     12   0.000000D+00  0.000000D+00  0.000000D+00  0.000000D+00  0.000000D+00
     13   0.000000D+00  0.000000D+00  0.000000D+00  0.000000D+00  0.000000D+00
     14   0.000000D+00  0.000000D+00  0.494662D-01  0.000000D+00  0.000000D+00
     15   0.729334D+00  0.240800D-01  0.000000D+00 -0.636063D-01  0.000000D+00
     16   0.000000D+00  0.000000D+00  0.000000D+00  0.000000D+00  0.600451D+00
               651           652           653           654           655 
      1  -0.234716D+03 -0.234691D+03 -0.234666D+03 -0.234664D+03 -0.234624D+03
      2   0.000000D+00 -0.928144D-02 -0.517492D+00  0.000000D+00  0.000000D+00
      3   0.000000D+00  0.000000D+00  0.000000D+00  0.000000D+00  0.000000D+00
      4   0.448182D-01  0.000000D+00  0.000000D+00  0.000000D+00 -0.136470D+00
      5   0.000000D+00  0.606833D-01  0.188121D+01  0.000000D+00  0.000000D+00
      6   0.000000D+00  0.000000D+00  0.000000D+00  0.000000D+00  0.000000D+00
      7  -0.163044D+00  0.000000D+00  0.000000D+00  0.000000D+00  0.475157D+00
      8   0.000000D+00  0.000000D+00  0.000000D+00  0.000000D+00  0.000000D+00
      9   0.000000D+00 -0.234196D+00 -0.829303D+00  0.000000D+00  0.000000D+00
     10   0.000000D+00  0.000000D+00  0.000000D+00 -0.757634D+00  0.000000D+00
     11  -0.966682D-01  0.000000D+00  0.000000D+00  0.000000D+00 -0.409194D-01
     12  -0.219597D+01  0.000000D+00  0.000000D+00  0.000000D+00  0.529191D+01
     13   0.556485D+00  0.000000D+00  0.000000D+00  0.000000D+00 -0.680554D+00
     14   0.000000D+00  0.000000D+00  0.000000D+00  0.643838D+00  0.000000D+00
     15   0.000000D+00 -0.124888D+00 -0.112559D+01  0.000000D+00  0.000000D+00
     16   0.000000D+00  0.000000D+00  0.000000D+00  0.000000D+00  0.000000D+00
               656           657           658           659           660 
      1  -0.234614D+03 -0.234604D+03 -0.234579D+03 -0.234565D+03 -0.234517D+03
      2   0.000000D+00  0.000000D+00  0.000000D+00  0.000000D+00  0.420891D+00
      3  -0.173522D+00  0.000000D+00  0.000000D+00  0.000000D+00  0.000000D+00
      4   0.000000D+00  0.000000D+00  0.000000D+00 -0.629997D-02  0.000000D+00
      5   0.000000D+00  0.000000D+00  0.000000D+00  0.000000D+00 -0.159445D+01
      6   0.629403D+00  0.000000D+00  0.000000D+00  0.000000D+00  0.000000D+00
      7   0.000000D+00  0.000000D+00  0.000000D+00 -0.253761D-01  0.000000D+00
      8   0.381930D+01  0.000000D+00  0.000000D+00  0.000000D+00  0.000000D+00
      9   0.000000D+00  0.000000D+00  0.000000D+00  0.000000D+00  0.928709D+00
     10   0.000000D+00 -0.104073D+01  0.405413D+01  0.000000D+00  0.000000D+00
     11   0.000000D+00  0.000000D+00  0.000000D+00 -0.518285D-01  0.000000D+00
     12   0.000000D+00  0.000000D+00  0.000000D+00  0.310071D+01  0.000000D+00
     13   0.000000D+00  0.000000D+00  0.000000D+00 -0.439604D-01  0.000000D+00
     14   0.000000D+00  0.120115D+01 -0.442728D+01  0.000000D+00  0.000000D+00
     15   0.000000D+00  0.000000D+00  0.000000D+00  0.000000D+00  0.116400D+01
     16   0.320211D+01  0.000000D+00  0.000000D+00  0.000000D+00  0.000000D+00
               661           662           663           664           665 
      1  -0.234514D+03 -0.234514D+03 -0.234509D+03 -0.234495D+03 -0.234476D+03
      2   0.000000D+00  0.000000D+00 -0.731275D-01  0.000000D+00  0.000000D+00
      3   0.000000D+00  0.213128D+00  0.000000D+00  0.000000D+00  0.426014D+00
      4  -0.131914D+00  0.000000D+00  0.000000D+00  0.433779D+00  0.000000D+00
      5   0.000000D+00  0.000000D+00  0.273724D+00  0.000000D+00  0.000000D+00
      6   0.000000D+00 -0.798629D+00  0.000000D+00  0.000000D+00 -0.169137D+01
      7   0.509426D+00  0.000000D+00  0.000000D+00 -0.167131D+01  0.000000D+00
      8   0.000000D+00 -0.199053D+01  0.000000D+00  0.000000D+00 -0.637060D-01
      9   0.000000D+00  0.000000D+00 -0.109572D-01  0.000000D+00  0.000000D+00
     10   0.000000D+00  0.000000D+00  0.000000D+00  0.000000D+00  0.000000D+00
     11   0.134288D-01  0.000000D+00  0.000000D+00 -0.847017D-01  0.000000D+00
     12   0.276078D+01  0.000000D+00  0.000000D+00 -0.172849D+01  0.000000D+00
     13  -0.600491D+00  0.000000D+00  0.000000D+00  0.231528D+01  0.000000D+00
     14   0.000000D+00  0.000000D+00  0.000000D+00  0.000000D+00  0.000000D+00
     15   0.000000D+00  0.000000D+00  0.308765D-01  0.000000D+00  0.000000D+00
     16   0.000000D+00 -0.152330D+01  0.000000D+00  0.000000D+00  0.173998D+01
               666           667           668           669           670 
      1  -0.234404D+03 -0.234387D+03 -0.234386D+03 -0.234374D+03 -0.234370D+03
      2   0.000000D+00  0.000000D+00  0.000000D+00  0.000000D+00  0.493116D-02
      3   0.000000D+00  0.000000D+00  0.196745D+00  0.000000D+00  0.000000D+00
      4   0.000000D+00 -0.681952D-01  0.000000D+00  0.119986D+00  0.000000D+00
      5   0.000000D+00  0.000000D+00  0.000000D+00  0.000000D+00 -0.218006D-01
      6   0.000000D+00  0.000000D+00 -0.823097D+00  0.000000D+00  0.000000D+00
      7   0.000000D+00  0.255868D+00  0.000000D+00 -0.441500D+00  0.000000D+00
      8   0.000000D+00  0.000000D+00  0.201527D+01  0.000000D+00  0.000000D+00
      9   0.000000D+00  0.000000D+00  0.000000D+00  0.000000D+00  0.156630D-01
     10  -0.122263D+01  0.000000D+00  0.000000D+00  0.000000D+00  0.000000D+00
     11   0.000000D+00  0.421247D+00  0.000000D+00 -0.468989D-01  0.000000D+00
     12   0.000000D+00  0.290980D+00  0.000000D+00  0.250400D+01  0.000000D+00
     13   0.000000D+00 -0.592602D-01  0.000000D+00 -0.878221D-01  0.000000D+00
     14   0.148377D+01  0.000000D+00  0.000000D+00  0.000000D+00  0.000000D+00
     15   0.000000D+00  0.000000D+00  0.000000D+00  0.000000D+00  0.683603D+00
     16   0.000000D+00  0.000000D+00  0.270483D+01  0.000000D+00  0.000000D+00
               671           672           673           674           675 
      1  -0.234353D+03 -0.234340D+03 -0.234335D+03 -0.234333D+03 -0.234321D+03
      2   0.000000D+00  0.000000D+00  0.000000D+00  0.000000D+00  0.000000D+00
      3   0.000000D+00  0.000000D+00  0.000000D+00 -0.317481D-01  0.606379D-01
      4  -0.651103D-01 -0.208028D+00  0.000000D+00  0.000000D+00  0.000000D+00
      5   0.000000D+00  0.000000D+00  0.000000D+00  0.000000D+00  0.000000D+00
      6   0.000000D+00  0.000000D+00  0.000000D+00  0.113693D+00 -0.231928D+00
      7   0.243775D+00  0.931940D+00  0.000000D+00  0.000000D+00  0.000000D+00
      8   0.000000D+00  0.000000D+00  0.000000D+00  0.439716D+00 -0.602464D+00
      9   0.000000D+00  0.000000D+00  0.000000D+00  0.000000D+00  0.000000D+00
     10   0.000000D+00  0.000000D+00  0.184008D+00  0.000000D+00  0.000000D+00
     11  -0.802557D+00  0.198766D+00  0.000000D+00  0.000000D+00  0.000000D+00
     12   0.172362D+00 -0.684294D+01  0.000000D+00  0.000000D+00  0.000000D+00
     13   0.637074D+00 -0.122075D+01  0.000000D+00  0.000000D+00  0.000000D+00
     14   0.000000D+00  0.000000D+00 -0.707074D+00  0.000000D+00  0.000000D+00
     15   0.000000D+00  0.000000D+00  0.000000D+00  0.000000D+00  0.000000D+00
     16   0.000000D+00  0.000000D+00  0.000000D+00 -0.117614D+00 -0.561298D+00
               676           677           678           679           680 
      1  -0.234303D+03 -0.234287D+03 -0.234268D+03 -0.234268D+03 -0.234258D+03
      2   0.000000D+00  0.000000D+00  0.480137D-01  0.000000D+00  0.000000D+00
      3   0.000000D+00 -0.951093D-02  0.000000D+00  0.000000D+00  0.000000D+00
      4   0.000000D+00  0.000000D+00  0.000000D+00  0.000000D+00 -0.951165D-02
      5   0.000000D+00  0.000000D+00 -0.177451D+00  0.000000D+00  0.000000D+00
      6   0.000000D+00  0.286066D-01  0.000000D+00  0.000000D+00  0.000000D+00
      7   0.000000D+00  0.000000D+00  0.000000D+00  0.000000D+00  0.392029D-01
      8   0.000000D+00  0.149689D+00  0.000000D+00  0.000000D+00  0.000000D+00
      9   0.000000D+00  0.000000D+00  0.393314D-01  0.000000D+00  0.000000D+00
     10   0.429009D+00  0.000000D+00  0.000000D+00  0.521212D+00  0.000000D+00
     11   0.000000D+00  0.000000D+00  0.000000D+00  0.000000D+00  0.588487D+00
     12   0.000000D+00  0.000000D+00  0.000000D+00  0.000000D+00 -0.284723D+00
     13   0.000000D+00  0.000000D+00  0.000000D+00  0.000000D+00 -0.394654D+00
     14  -0.926766D-01  0.000000D+00  0.000000D+00 -0.193836D-01  0.000000D+00
     15   0.000000D+00  0.000000D+00 -0.539443D+00  0.000000D+00  0.000000D+00
     16   0.000000D+00  0.190866D+00  0.000000D+00  0.000000D+00  0.000000D+00
               681           682           683           684           685 
      1  -0.234240D+03 -0.234214D+03 -0.234163D+03 -0.234109D+03 -0.234085D+03
      2   0.000000D+00  0.953968D-01  0.335092D-01  0.000000D+00  0.000000D+00
      3  -0.117067D+00  0.000000D+00  0.000000D+00  0.000000D+00 -0.247114D-01
      4   0.000000D+00  0.000000D+00  0.000000D+00  0.000000D+00  0.000000D+00
      5   0.000000D+00 -0.370909D+00 -0.144708D+00  0.000000D+00  0.000000D+00
      6   0.601395D+00  0.000000D+00  0.000000D+00  0.000000D+00  0.108726D+00
      7   0.000000D+00  0.000000D+00  0.000000D+00  0.000000D+00  0.000000D+00
      8  -0.542325D+00  0.000000D+00  0.000000D+00  0.000000D+00  0.476508D+00
      9   0.000000D+00  0.200849D+00  0.954085D-01  0.000000D+00  0.000000D+00
     10   0.000000D+00  0.000000D+00  0.000000D+00  0.537462D+00  0.000000D+00
     11   0.000000D+00  0.000000D+00  0.000000D+00  0.000000D+00  0.000000D+00
     12   0.000000D+00  0.000000D+00  0.000000D+00  0.000000D+00  0.000000D+00
     13   0.000000D+00  0.000000D+00  0.000000D+00  0.000000D+00  0.000000D+00
     14   0.000000D+00  0.000000D+00  0.000000D+00 -0.235328D+00  0.000000D+00
     15   0.000000D+00 -0.555303D-01 -0.181770D+00  0.000000D+00  0.000000D+00
     16  -0.213140D+01  0.000000D+00  0.000000D+00  0.000000D+00  0.141488D+00
               686           687           688           689           690 
      1  -0.234029D+03 -0.233892D+03 -0.233837D+03 -0.233769D+03 -0.233716D+03
      2   0.000000D+00  0.000000D+00  0.000000D+00  0.000000D+00  0.000000D+00
      3   0.000000D+00  0.434963D-01  0.000000D+00  0.000000D+00 -0.397958D-02
      4  -0.515544D-01  0.000000D+00 -0.145167D-01  0.207961D-01  0.000000D+00
      5   0.000000D+00  0.000000D+00  0.000000D+00  0.000000D+00  0.000000D+00
      6   0.000000D+00 -0.243360D+00  0.000000D+00  0.000000D+00  0.105880D+00
      7   0.211924D+00  0.000000D+00  0.137859D+00 -0.112872D+00  0.000000D+00
      8   0.000000D+00  0.197225D+00  0.000000D+00  0.000000D+00 -0.132426D+00
      9   0.000000D+00  0.000000D+00  0.000000D+00  0.000000D+00  0.000000D+00
     10   0.000000D+00  0.000000D+00  0.000000D+00  0.000000D+00  0.000000D+00
     11   0.501063D-01  0.000000D+00 -0.221636D+00  0.158504D+00  0.000000D+00
     12   0.418947D+00  0.000000D+00 -0.799524D+00  0.205810D+00  0.000000D+00
     13   0.120720D+00  0.000000D+00 -0.258449D+00 -0.823280D-01  0.000000D+00
     14   0.000000D+00  0.000000D+00  0.000000D+00  0.000000D+00  0.000000D+00
     15   0.000000D+00  0.000000D+00  0.000000D+00  0.000000D+00  0.000000D+00
     16   0.000000D+00 -0.102310D-01  0.000000D+00  0.000000D+00 -0.129131D+00
 Unable to Open any file for archive entry.
 1\1\GINC-HEL25\SP\RB3LYP TD-FC\Gen\C1H2F2\SABYASACHI\21-Mar-2022\0\\#P
  TD(Nstates=10000) b3lyp/Gen SCF(maxcycles=100) Int(Grid=ultrafine)\\x
 GDB7_00001_tier4.com\\0,1\F,0,0.,1.098813,-0.28912\C,0,0.,0.,0.499944\
 F,0,0.,-1.098813,-0.28912\H,0,-0.911346,0.,1.102246\H,0,0.911346,0.,1.
 102246\\Version=EM64L-G16RevC.01\State=1-A1\HF=-238.8225231\RMSD=2.958
 e-09\PG=C02V [C2(C1),SGV(F2),SGV'(H2)]\\@
 The archive entry for this job was punched.


 VIRTUE IS LEARNED AT YOUR MOTHER'S KNEE,
 VICES ARE PICKED UP AT SOME OTHER JOINT.
 Job cpu time:       0 days  0 hours  2 minutes  8.8 seconds.
 Elapsed time:       0 days  0 hours  0 minutes 16.4 seconds.
 File lengths (MBytes):  RWF=    605 Int=      0 D2E=      0 Chk=    119 Scr=      1
 Normal termination of Gaussian 16 at Mon Mar 21 19:59:33 2022.
