 Entering Gaussian System, Link 0=g16
 Input=000017.com
 Output=000017.log
 Initial command:
 /home/sabyasachi/g16/l1.exe "/scratch/sabyasachi/PBS_7976019.helios/Gau-106630.inp" -scrdir="/scratch/sabyasachi/PBS_7976019.helios/"
 Entering Link 1 = /home/sabyasachi/g16/l1.exe PID=    106631.
  
 Copyright (c) 1988-2019, Gaussian, Inc.  All Rights Reserved.
  
 This is part of the Gaussian(R) 16 program.  It is based on
 the Gaussian(R) 09 system (copyright 2009, Gaussian, Inc.),
 the Gaussian(R) 03 system (copyright 2003, Gaussian, Inc.),
 the Gaussian(R) 98 system (copyright 1998, Gaussian, Inc.),
 the Gaussian(R) 94 system (copyright 1995, Gaussian, Inc.),
 the Gaussian 92(TM) system (copyright 1992, Gaussian, Inc.),
 the Gaussian 90(TM) system (copyright 1990, Gaussian, Inc.),
 the Gaussian 88(TM) system (copyright 1988, Gaussian, Inc.),
 the Gaussian 86(TM) system (copyright 1986, Carnegie Mellon
 University), and the Gaussian 82(TM) system (copyright 1983,
 Carnegie Mellon University). Gaussian is a federally registered
 trademark of Gaussian, Inc.
  
 This software contains proprietary and confidential information,
 including trade secrets, belonging to Gaussian, Inc.
  
 This software is provided under written license and may be
 used, copied, transmitted, or stored only in accord with that
 written license.
  
 The following legend is applicable only to US Government
 contracts under FAR:
  
                    RESTRICTED RIGHTS LEGEND
  
 Use, reproduction and disclosure by the US Government is
 subject to restrictions as set forth in subparagraphs (a)
 and (c) of the Commercial Computer Software - Restricted
 Rights clause in FAR 52.227-19.
  
 Gaussian, Inc.
 340 Quinnipiac St., Bldg. 40, Wallingford CT 06492
  
  
 ---------------------------------------------------------------
 Warning -- This program may not be used in any manner that
 competes with the business of Gaussian, Inc. or will provide
 assistance to any competitor of Gaussian, Inc.  The licensee
 of this program is prohibited from giving any competitor of
 Gaussian, Inc. access to this program.  By using this program,
 the user acknowledges that Gaussian, Inc. is engaged in the
 business of creating and licensing software in the field of
 computational chemistry and represents and warrants to the
 licensee that it is not a competitor of Gaussian, Inc. and that
 it will not use this program in any manner prohibited above.
 ---------------------------------------------------------------
  

 Cite this work as:
 Gaussian 16, Revision C.01,
 M. J. Frisch, G. W. Trucks, H. B. Schlegel, G. E. Scuseria, 
 M. A. Robb, J. R. Cheeseman, G. Scalmani, V. Barone, 
 G. A. Petersson, H. Nakatsuji, X. Li, M. Caricato, A. V. Marenich, 
 J. Bloino, B. G. Janesko, R. Gomperts, B. Mennucci, H. P. Hratchian, 
 J. V. Ortiz, A. F. Izmaylov, J. L. Sonnenberg, D. Williams-Young, 
 F. Ding, F. Lipparini, F. Egidi, J. Goings, B. Peng, A. Petrone, 
 T. Henderson, D. Ranasinghe, V. G. Zakrzewski, J. Gao, N. Rega, 
 G. Zheng, W. Liang, M. Hada, M. Ehara, K. Toyota, R. Fukuda, 
 J. Hasegawa, M. Ishida, T. Nakajima, Y. Honda, O. Kitao, H. Nakai, 
 T. Vreven, K. Throssell, J. A. Montgomery, Jr., J. E. Peralta, 
 F. Ogliaro, M. J. Bearpark, J. J. Heyd, E. N. Brothers, K. N. Kudin, 
 V. N. Staroverov, T. A. Keith, R. Kobayashi, J. Normand, 
 K. Raghavachari, A. P. Rendell, J. C. Burant, S. S. Iyengar, 
 J. Tomasi, M. Cossi, J. M. Millam, M. Klene, C. Adamo, R. Cammi, 
 J. W. Ochterski, R. L. Martin, K. Morokuma, O. Farkas, 
 J. B. Foresman, and D. J. Fox, Gaussian, Inc., Wallingford CT, 2019.
 
 ******************************************
 Gaussian 16:  EM64L-G16RevC.01  3-Jul-2019
                21-Mar-2022 
 ******************************************
 %mem=64gb
 %nproc=8
 Will use up to    8 processors via shared memory.
 ---------------------------------------------------------------------
 #P TD(Nstates=10000) b3lyp/Gen SCF(maxcycles=100) Int(Grid=ultrafine)
 ---------------------------------------------------------------------
 1/38=1,172=1/1;
 2/12=2,17=6,18=5,40=1/2;
 3/5=7,11=9,25=1,30=1,74=-5,75=-5/1,2,3,8;
 4//1;
 5/5=2,7=100,38=5/2;
 8/6=1,10=1,108=10000/1;
 9/41=10000,42=1,70=2/14;
 6/7=2,8=2,9=2,10=2/1;
 99/5=1,9=1/99;
 Leave Link    1 at Mon Mar 21 19:59:43 2022, MaxMem=  8589934592 cpu:               0.4 elap:               0.1
 (Enter /home/sabyasachi/g16/l101.exe)
 ---------------------
 xGDB7_00001_tier4.com
 ---------------------
 Symbolic Z-matrix:
 Charge =  0 Multiplicity = 1
 6                    -1.12284  -0.45232   0. 
 6                     0.        0.554     0. 
 9                     1.22528  -0.09824   0. 
 1                    -2.08331   0.06681   0. 
 1                    -1.0728   -1.08565   0.88615 
 1                    -1.0728   -1.08565  -0.88615 
 1                    -0.03079   1.18928   0.88872 
 1                    -0.03079   1.18928  -0.88872 
 
 ITRead=  0  0  0  0  0  0  0  0
 MicOpt= -1 -1 -1 -1 -1 -1 -1 -1
 NAtoms=      8 NQM=        8 NQMF=       0 NMMI=      0 NMMIF=      0
                NMic=       0 NMicF=      0.
                    Isotopes and Nuclear Properties:
 (Nuclear quadrupole moments (NQMom) in fm**2, nuclear magnetic moments (NMagM)
  in nuclear magnetons)

  Atom         1           2           3           4           5           6           7           8
 IAtWgt=          12          12          19           1           1           1           1           1
 AtmWgt=  12.0000000  12.0000000  18.9984033   1.0078250   1.0078250   1.0078250   1.0078250   1.0078250
 NucSpn=           0           0           1           1           1           1           1           1
 AtZEff=  -0.0000000  -0.0000000  -0.0000000  -0.0000000  -0.0000000  -0.0000000  -0.0000000  -0.0000000
 NQMom=    0.0000000   0.0000000   0.0000000   0.0000000   0.0000000   0.0000000   0.0000000   0.0000000
 NMagM=    0.0000000   0.0000000   2.6288670   2.7928460   2.7928460   2.7928460   2.7928460   2.7928460
 AtZNuc=   6.0000000   6.0000000   9.0000000   1.0000000   1.0000000   1.0000000   1.0000000   1.0000000
 Leave Link  101 at Mon Mar 21 19:59:43 2022, MaxMem=  8589934592 cpu:               0.6 elap:               0.1
 (Enter /home/sabyasachi/g16/l202.exe)
                          Input orientation:                          
 ---------------------------------------------------------------------
 Center     Atomic      Atomic             Coordinates (Angstroms)
 Number     Number       Type             X           Y           Z
 ---------------------------------------------------------------------
      1          6           0       -1.122844   -0.452320    0.000000
      2          6           0        0.000000    0.553997    0.000000
      3          9           0        1.225284   -0.098236    0.000000
      4          1           0       -2.083314    0.066805    0.000000
      5          1           0       -1.072796   -1.085651    0.886148
      6          1           0       -1.072796   -1.085651   -0.886148
      7          1           0       -0.030794    1.189278    0.888716
      8          1           0       -0.030794    1.189278   -0.888716
 ---------------------------------------------------------------------
                    Distance matrix (angstroms):
                    1          2          3          4          5
     1  C    0.000000
     2  C    1.507797   0.000000
     3  F    2.374675   1.388067   0.000000
     4  H    1.091784   2.139522   3.312712   0.000000
     5  H    1.090354   2.150487   2.653567   1.770469   0.000000
     6  H    1.090354   2.150487   2.653567   1.770469   1.772296
     7  H    2.162691   1.092862   2.006300   2.502519   2.502214
     8  H    2.162691   1.092862   2.006300   2.502519   3.067770
                    6          7          8
     6  H    0.000000
     7  H    3.067770   0.000000
     8  H    2.502214   1.777432   0.000000
 Stoichiometry    C2H5F
 Framework group  CS[SG(C2HF),X(H4)]
 Deg. of freedom    11
 Full point group                 CS      NOp   2
 Largest Abelian subgroup         CS      NOp   2
 Largest concise Abelian subgroup CS      NOp   2
                         Standard orientation:                         
 ---------------------------------------------------------------------
 Center     Atomic      Atomic             Coordinates (Angstroms)
 Number     Number       Type             X           Y           Z
 ---------------------------------------------------------------------
      1          6           0       -1.122844   -0.452320    0.000000
      2          6           0        0.000000    0.553997    0.000000
      3          9           0        1.225284   -0.098236    0.000000
      4          1           0       -2.083314    0.066805    0.000000
      5          1           0       -1.072796   -1.085651    0.886148
      6          1           0       -1.072796   -1.085651   -0.886148
      7          1           0       -0.030794    1.189278    0.888716
      8          1           0       -0.030794    1.189278   -0.888716
 ---------------------------------------------------------------------
 Rotational constants (GHZ):          36.5990005           9.3913155           8.2480707
 Leave Link  202 at Mon Mar 21 19:59:43 2022, MaxMem=  8589934592 cpu:               0.1 elap:               0.0
 (Enter /home/sabyasachi/g16/l301.exe)
 General basis read from cards:  (5D, 7F)
 Centers:       4      5      6      7      8
 S 3 1.00
     Exponent=  1.3010701000D+01 Coefficients=  1.9682158000D-02
     Exponent=  1.9622572000D+00 Coefficients=  1.3796524000D-01
     Exponent=  4.4453796000D-01 Coefficients=  4.7831935000D-01
 S 1 1.00
     Exponent=  1.2194962000D-01 Coefficients=  1.0000000000D+00
 P 1 1.00
     Exponent=  8.0000000000D-01 Coefficients=  1.0000000000D+00
 P 1 1.00
     Exponent=  1.1704099050D-01 Coefficients=  1.0000000000D+00
 ****
 Centers:       1      2
 S 5 1.00
     Exponent=  1.2384016938D+03 Coefficients=  5.4568832082D-03
     Exponent=  1.8629004992D+02 Coefficients=  4.0638409211D-02
     Exponent=  4.2251176346D+01 Coefficients=  1.8025593888D-01
     Exponent=  1.1676557932D+01 Coefficients=  4.6315121755D-01
     Exponent=  3.5930506482D+00 Coefficients=  4.4087173314D-01
 S 1 1.00
     Exponent=  4.0245147363D-01 Coefficients=  1.0000000000D+00
 S 1 1.00
     Exponent=  1.3090182668D-01 Coefficients=  1.0000000000D+00
 S 1 1.00
     Exponent=  6.7053540256D-02 Coefficients=  1.0000000000D+00
 P 3 1.00
     Exponent=  9.4680970621D+00 Coefficients=  3.8387871728D-02
     Exponent=  2.0103545142D+00 Coefficients=  2.1117025112D-01
     Exponent=  5.4771004707D-01 Coefficients=  5.1328172114D-01
 P 1 1.00
     Exponent=  1.5268613795D-01 Coefficients=  1.0000000000D+00
 D 1 1.00
     Exponent=  8.0000000000D-01 Coefficients=  1.0000000000D+00
 D 1 1.00
     Exponent=  1.1713185140D-01 Coefficients=  1.0000000000D+00
 ****
 Centers:       3
 S 5 1.00
     Exponent=  2.8948325990D+03 Coefficients= -5.3408255515D-03
     Exponent=  4.3541939120D+02 Coefficients= -3.9904258866D-02
     Exponent=  9.8843328866D+01 Coefficients= -1.7912768038D-01
     Exponent=  2.7485198001D+01 Coefficients= -4.6758090825D-01
     Exponent=  8.5405498171D+00 Coefficients= -4.4653131020D-01
 S 1 1.00
     Exponent=  1.0654578038D+00 Coefficients=  1.0000000000D+00
 S 1 1.00
     Exponent=  3.3247346748D-01 Coefficients=  1.0000000000D+00
 S 1 1.00
     Exponent=  9.8097752264D-02 Coefficients=  1.0000000000D+00
 P 3 1.00
     Exponent=  2.2696633924D+01 Coefficients= -4.5212874436D-02
     Exponent=  4.9872339257D+00 Coefficients= -2.3754317067D-01
     Exponent=  1.3491613954D+00 Coefficients= -5.1287353587D-01
 P 1 1.00
     Exponent=  3.4829881977D-01 Coefficients=  1.0000000000D+00
 P 1 1.00
     Exponent=  8.3372148304D-02 Coefficients=  1.0000000000D+00
 D 1 1.00
     Exponent=  1.4000000000D+00 Coefficients=  1.0000000000D+00
 D 1 1.00
     Exponent=  2.2301361948D-01 Coefficients=  1.0000000000D+00
 ****
 Ernie: Thresh=  0.10000D-02 Tol=  0.10000D-05 Strict=F.
 There are    72 symmetry adapted cartesian basis functions of A'  symmetry.
 There are    37 symmetry adapted cartesian basis functions of A"  symmetry.
 There are    66 symmetry adapted basis functions of A'  symmetry.
 There are    37 symmetry adapted basis functions of A"  symmetry.
   103 basis functions,   149 primitive gaussians,   109 cartesian basis functions
    13 alpha electrons       13 beta electrons
       nuclear repulsion energy        79.3301965124 Hartrees.
 IExCor=  402 DFT=T Ex+Corr=B3LYP ExCW=0 ScaHFX=  0.200000
 ScaDFX=  0.800000  0.720000  1.000000  0.810000 ScalE2=  1.000000  1.000000
 IRadAn=      5 IRanWt=     -1 IRanGd=            0 ICorTp=0 IEmpDi=  4
 NAtoms=    8 NActive=    8 NUniq=    6 SFac= 1.78D+00 NAtFMM=   60 NAOKFM=F Big=F
 Integral buffers will be    131072 words long.
 Regular integral format.
 Two-electron integral symmetry is turned on.
 Leave Link  301 at Mon Mar 21 19:59:43 2022, MaxMem=  8589934592 cpu:               0.5 elap:               0.1
 (Enter /home/sabyasachi/g16/l302.exe)
 NPDir=0 NMtPBC=     1 NCelOv=     1 NCel=       1 NClECP=     1 NCelD=      1
         NCelK=      1 NCelE2=     1 NClLst=     1 CellRange=     0.0.
 One-electron integrals computed using PRISM.
 One-electron integral symmetry used in STVInt
 NBasis=   103 RedAO= T EigKep=  3.43D-04  NBF=    66    37
 NBsUse=   103 1.00D-06 EigRej= -1.00D+00 NBFU=    66    37
 Precomputing XC quadrature grid using
 IXCGrd= 4 IRadAn=           5 IRanWt=          -1 IRanGd=           0 AccXCQ= 0.00D+00.
 Generated NRdTot=       0 NPtTot=           0 NUsed=           0 NTot=          32
 NSgBfM=   109   109   109   109   109 MxSgAt=     8 MxSgA2=     8.
 Leave Link  302 at Mon Mar 21 19:59:43 2022, MaxMem=  8589934592 cpu:               1.0 elap:               0.1
 (Enter /home/sabyasachi/g16/l303.exe)
 DipDrv:  MaxL=1.
 Leave Link  303 at Mon Mar 21 19:59:43 2022, MaxMem=  8589934592 cpu:               0.2 elap:               0.0
 (Enter /home/sabyasachi/g16/l308.exe)
 Leave Link  308 at Mon Mar 21 19:59:43 2022, MaxMem=  8589934592 cpu:               0.2 elap:               0.1
 (Enter /home/sabyasachi/g16/l401.exe)
 ExpMin= 6.71D-02 ExpMax= 2.89D+03 ExpMxC= 4.35D+02 IAcc=3 IRadAn=         5 AccDes= 0.00D+00
 Harris functional with IExCor=  402 and IRadAn=       5 diagonalized for initial guess.
 HarFok:  IExCor=  402 AccDes= 0.00D+00 IRadAn=         5 IDoV= 1 UseB2=F ITyADJ=14
 ICtDFT=  3500011 ScaDFX=  1.000000  1.000000  1.000000  1.000000
 FoFCou: FMM=F IPFlag=           0 FMFlag=      100000 FMFlg1=           0
         NFxFlg=           0 DoJE=T BraDBF=F KetDBF=T FulRan=T
         wScrn=  0.000000 ICntrl=       500 IOpCl=  0 I1Cent=   200000004 NGrid=           0
         NMat0=    1 NMatS0=      1 NMatT0=    0 NMatD0=    1 NMtDS0=    0 NMtDT0=    0
 Petite list used in FoFCou.
 Harris En= -178.951045991043    
 JPrj=0 DoOrth=F DoCkMO=F.
 Initial guess orbital symmetries:
       Occupied  (A') (A') (A') (A') (A') (A') (A") (A') (A') (A')
                 (A") (A') (A")
       Virtual   (A') (A') (A') (A") (A') (A") (A') (A') (A') (A")
                 (A") (A') (A') (A") (A') (A') (A') (A") (A') (A')
                 (A") (A") (A') (A') (A') (A") (A") (A') (A') (A")
                 (A") (A') (A") (A') (A') (A') (A") (A') (A') (A")
                 (A') (A') (A') (A") (A') (A') (A") (A') (A') (A")
                 (A') (A') (A") (A') (A") (A') (A') (A") (A") (A')
                 (A") (A") (A') (A') (A") (A') (A') (A") (A') (A")
                 (A') (A") (A') (A') (A") (A') (A') (A') (A") (A')
                 (A') (A') (A") (A') (A") (A') (A") (A") (A') (A')
 The electronic state of the initial guess is 1-A'.
 Leave Link  401 at Mon Mar 21 19:59:44 2022, MaxMem=  8589934592 cpu:               2.1 elap:               0.3
 (Enter /home/sabyasachi/g16/l502.exe)
 Keep R1 ints in memory in symmetry-blocked form, NReq=21838822.
 FoFCou: FMM=F IPFlag=           0 FMFlag=           0 FMFlg1=           0
         NFxFlg=           0 DoJE=F BraDBF=F KetDBF=F FulRan=T
         wScrn=  0.000000 ICntrl=       600 IOpCl=  0 I1Cent=           0 NGrid=           0
         NMat0=    1 NMatS0=   5356 NMatT0=    0 NMatD0=    1 NMtDS0=    0 NMtDT0=    0
 Petite list used in FoFCou.
 Closed shell SCF:
 Using DIIS extrapolation, IDIIS=  1040.
 NGot=  8589934592 LenX=  8582666380 LenY=  8582654058
 Requested convergence on RMS density matrix=1.00D-08 within 100 cycles.
 Requested convergence on MAX density matrix=1.00D-06.
 Requested convergence on             energy=1.00D-06.
 No special actions if energy rises.
 Integral accuracy reduced to 1.0D-05 until final iterations.

 Cycle   1  Pass 0  IDiag  1:
 E= -178.864995211716    
 DIIS: error= 2.80D-02 at cycle   1 NSaved=   1.
 NSaved= 1 IEnMin= 1 EnMin= -178.864995211716     IErMin= 1 ErrMin= 2.80D-02
 ErrMax= 2.80D-02  0.00D+00 EMaxC= 1.00D-01 BMatC= 7.41D-02 BMatP= 7.41D-02
 IDIUse=3 WtCom= 7.20D-01 WtEn= 2.80D-01
 Coeff-Com:  0.100D+01
 Coeff-En:   0.100D+01
 Coeff:      0.100D+01
 Gap=     0.337 Goal=   None    Shift=    0.000
 GapD=    0.337 DampG=1.000 DampE=0.500 DampFc=0.5000 IDamp=-1.
 Damping current iteration by 5.00D-01
 RMSDP=6.65D-03 MaxDP=1.80D-01              OVMax= 1.69D-01

 Cycle   2  Pass 0  IDiag  1:
 E= -178.900766545094     Delta-E=       -0.035771333378 Rises=F Damp=T
 DIIS: error= 5.72D-03 at cycle   2 NSaved=   2.
 NSaved= 2 IEnMin= 2 EnMin= -178.900766545094     IErMin= 2 ErrMin= 5.72D-03
 ErrMax= 5.72D-03  0.00D+00 EMaxC= 1.00D-01 BMatC= 2.91D-03 BMatP= 7.41D-02
 IDIUse=3 WtCom= 9.43D-01 WtEn= 5.72D-02
 Coeff-Com:  0.507D-01 0.949D+00
 Coeff-En:   0.862D-01 0.914D+00
 Coeff:      0.527D-01 0.947D+00
 Gap=     0.363 Goal=   None    Shift=    0.000
 RMSDP=1.86D-03 MaxDP=4.46D-02 DE=-3.58D-02 OVMax= 8.88D-02

 Cycle   3  Pass 0  IDiag  1:
 E= -178.942756702560     Delta-E=       -0.041990157467 Rises=F Damp=F
 DIIS: error= 1.34D-03 at cycle   3 NSaved=   3.
 NSaved= 3 IEnMin= 3 EnMin= -178.942756702560     IErMin= 3 ErrMin= 1.34D-03
 ErrMax= 1.34D-03  0.00D+00 EMaxC= 1.00D-01 BMatC= 3.25D-04 BMatP= 2.91D-03
 IDIUse=3 WtCom= 9.87D-01 WtEn= 1.34D-02
 Coeff-Com: -0.134D-01 0.210D+00 0.803D+00
 Coeff-En:   0.000D+00 0.000D+00 0.100D+01
 Coeff:     -0.133D-01 0.207D+00 0.806D+00
 Gap=     0.358 Goal=   None    Shift=    0.000
 RMSDP=3.02D-04 MaxDP=3.65D-03 DE=-4.20D-02 OVMax= 3.98D-03

 Cycle   4  Pass 0  IDiag  1:
 E= -178.943007721298     Delta-E=       -0.000251018738 Rises=F Damp=F
 DIIS: error= 4.85D-04 at cycle   4 NSaved=   4.
 NSaved= 4 IEnMin= 4 EnMin= -178.943007721298     IErMin= 4 ErrMin= 4.85D-04
 ErrMax= 4.85D-04  0.00D+00 EMaxC= 1.00D-01 BMatC= 3.06D-05 BMatP= 3.25D-04
 IDIUse=3 WtCom= 9.95D-01 WtEn= 4.85D-03
 Coeff-Com: -0.444D-02 0.357D-01 0.261D+00 0.708D+00
 Coeff-En:   0.000D+00 0.000D+00 0.000D+00 0.100D+01
 Coeff:     -0.442D-02 0.356D-01 0.259D+00 0.709D+00
 Gap=     0.359 Goal=   None    Shift=    0.000
 RMSDP=7.04D-05 MaxDP=1.55D-03 DE=-2.51D-04 OVMax= 1.72D-03

 Cycle   5  Pass 0  IDiag  1:
 E= -178.943020262542     Delta-E=       -0.000012541244 Rises=F Damp=F
 DIIS: error= 3.96D-04 at cycle   5 NSaved=   5.
 NSaved= 5 IEnMin= 5 EnMin= -178.943020262542     IErMin= 5 ErrMin= 3.96D-04
 ErrMax= 3.96D-04  0.00D+00 EMaxC= 1.00D-01 BMatC= 1.56D-05 BMatP= 3.06D-05
 IDIUse=3 WtCom= 9.96D-01 WtEn= 3.96D-03
 Coeff-Com: -0.168D-02 0.150D-02 0.883D-01 0.445D+00 0.467D+00
 Coeff-En:   0.000D+00 0.000D+00 0.000D+00 0.310D+00 0.690D+00
 Coeff:     -0.168D-02 0.149D-02 0.879D-01 0.444D+00 0.468D+00
 Gap=     0.358 Goal=   None    Shift=    0.000
 RMSDP=2.57D-05 MaxDP=7.27D-04 DE=-1.25D-05 OVMax= 7.56D-04

 Cycle   6  Pass 0  IDiag  1:
 E= -178.943030475534     Delta-E=       -0.000010212992 Rises=F Damp=F
 DIIS: error= 1.90D-05 at cycle   6 NSaved=   6.
 NSaved= 6 IEnMin= 6 EnMin= -178.943030475534     IErMin= 6 ErrMin= 1.90D-05
 ErrMax= 1.90D-05  0.00D+00 EMaxC= 1.00D-01 BMatC= 5.78D-08 BMatP= 1.56D-05
 IDIUse=1 WtCom= 1.00D+00 WtEn= 0.00D+00
 Coeff-Com: -0.282D-03-0.624D-03 0.190D-01 0.117D+00 0.139D+00 0.726D+00
 Coeff:     -0.282D-03-0.624D-03 0.190D-01 0.117D+00 0.139D+00 0.726D+00
 Gap=     0.358 Goal=   None    Shift=    0.000
 RMSDP=4.34D-06 MaxDP=6.37D-05 DE=-1.02D-05 OVMax= 8.37D-05

 Initial convergence to 1.0D-05 achieved.  Increase integral accuracy.
 Cycle   7  Pass 1  IDiag  1:
 E= -178.943030101284     Delta-E=        0.000000374250 Rises=F Damp=F
 DIIS: error= 4.69D-06 at cycle   1 NSaved=   1.
 NSaved= 1 IEnMin= 1 EnMin= -178.943030101284     IErMin= 1 ErrMin= 4.69D-06
 ErrMax= 4.69D-06  0.00D+00 EMaxC= 1.00D-01 BMatC= 3.40D-09 BMatP= 3.40D-09
 IDIUse=1 WtCom= 1.00D+00 WtEn= 0.00D+00
 Coeff-Com:  0.100D+01
 Coeff:      0.100D+01
 Gap=     0.358 Goal=   None    Shift=    0.000
 RMSDP=4.34D-06 MaxDP=6.37D-05 DE= 3.74D-07 OVMax= 2.93D-05

 Cycle   8  Pass 1  IDiag  1:
 E= -178.943030101543     Delta-E=       -0.000000000259 Rises=F Damp=F
 DIIS: error= 5.49D-06 at cycle   2 NSaved=   2.
 NSaved= 2 IEnMin= 2 EnMin= -178.943030101543     IErMin= 1 ErrMin= 4.69D-06
 ErrMax= 5.49D-06  0.00D+00 EMaxC= 1.00D-01 BMatC= 3.43D-09 BMatP= 3.40D-09
 IDIUse=1 WtCom= 1.00D+00 WtEn= 0.00D+00
 Coeff-Com:  0.501D+00 0.499D+00
 Coeff:      0.501D+00 0.499D+00
 Gap=     0.358 Goal=   None    Shift=    0.000
 RMSDP=7.13D-07 MaxDP=2.25D-05 DE=-2.59D-10 OVMax= 1.40D-05

 Cycle   9  Pass 1  IDiag  1:
 E= -178.943030104867     Delta-E=       -0.000000003325 Rises=F Damp=F
 DIIS: error= 5.25D-07 at cycle   3 NSaved=   3.
 NSaved= 3 IEnMin= 3 EnMin= -178.943030104867     IErMin= 3 ErrMin= 5.25D-07
 ErrMax= 5.25D-07  0.00D+00 EMaxC= 1.00D-01 BMatC= 3.74D-11 BMatP= 3.40D-09
 IDIUse=1 WtCom= 1.00D+00 WtEn= 0.00D+00
 Coeff-Com:  0.919D-01 0.138D+00 0.770D+00
 Coeff:      0.919D-01 0.138D+00 0.770D+00
 Gap=     0.358 Goal=   None    Shift=    0.000
 RMSDP=1.10D-07 MaxDP=1.46D-06 DE=-3.32D-09 OVMax= 1.93D-06

 Cycle  10  Pass 1  IDiag  1:
 E= -178.943030104895     Delta-E=       -0.000000000028 Rises=F Damp=F
 DIIS: error= 3.50D-07 at cycle   4 NSaved=   4.
 NSaved= 4 IEnMin= 4 EnMin= -178.943030104895     IErMin= 4 ErrMin= 3.50D-07
 ErrMax= 3.50D-07  0.00D+00 EMaxC= 1.00D-01 BMatC= 1.20D-11 BMatP= 3.74D-11
 IDIUse=1 WtCom= 1.00D+00 WtEn= 0.00D+00
 Coeff-Com:  0.120D-01 0.371D-01 0.408D+00 0.543D+00
 Coeff:      0.120D-01 0.371D-01 0.408D+00 0.543D+00
 Gap=     0.358 Goal=   None    Shift=    0.000
 RMSDP=3.25D-08 MaxDP=7.95D-07 DE=-2.77D-11 OVMax= 8.55D-07

 Cycle  11  Pass 1  IDiag  1:
 E= -178.943030104902     Delta-E=       -0.000000000007 Rises=F Damp=F
 DIIS: error= 1.02D-07 at cycle   5 NSaved=   5.
 NSaved= 5 IEnMin= 5 EnMin= -178.943030104902     IErMin= 5 ErrMin= 1.02D-07
 ErrMax= 1.02D-07  0.00D+00 EMaxC= 1.00D-01 BMatC= 1.24D-12 BMatP= 1.20D-11
 IDIUse=1 WtCom= 1.00D+00 WtEn= 0.00D+00
 Coeff-Com: -0.667D-02 0.125D-02 0.123D+00 0.287D+00 0.596D+00
 Coeff:     -0.667D-02 0.125D-02 0.123D+00 0.287D+00 0.596D+00
 Gap=     0.358 Goal=   None    Shift=    0.000
 RMSDP=1.03D-08 MaxDP=2.03D-07 DE=-7.28D-12 OVMax= 1.95D-07

 Cycle  12  Pass 1  IDiag  1:
 E= -178.943030104902     Delta-E=        0.000000000000 Rises=F Damp=F
 DIIS: error= 5.24D-09 at cycle   6 NSaved=   6.
 NSaved= 6 IEnMin= 5 EnMin= -178.943030104902     IErMin= 6 ErrMin= 5.24D-09
 ErrMax= 5.24D-09  0.00D+00 EMaxC= 1.00D-01 BMatC= 5.28D-15 BMatP= 1.24D-12
 IDIUse=1 WtCom= 1.00D+00 WtEn= 0.00D+00
 Coeff-Com: -0.189D-02-0.393D-03 0.227D-01 0.621D-01 0.146D+00 0.771D+00
 Coeff:     -0.189D-02-0.393D-03 0.227D-01 0.621D-01 0.146D+00 0.771D+00
 Gap=     0.358 Goal=   None    Shift=    0.000
 RMSDP=1.20D-09 MaxDP=1.60D-08 DE= 2.27D-13 OVMax= 1.90D-08

 SCF Done:  E(RB3LYP) =  -178.943030105     A.U. after   12 cycles
            NFock= 12  Conv=0.12D-08     -V/T= 2.0092
 KE= 1.773066896029D+02 PE=-5.790668371976D+02 EE= 1.434869209774D+02
 Leave Link  502 at Mon Mar 21 19:59:45 2022, MaxMem=  8589934592 cpu:              12.7 elap:               1.7
 (Enter /home/sabyasachi/g16/l801.exe)
 DoSCS=F DFT=T ScalE2(SS,OS)=  1.000000  1.000000
 ExpMin= 6.71D-02 ExpMax= 2.89D+03 ExpMxC= 4.35D+02 IAcc=3 IRadAn=         5 AccDes= 0.00D+00
 HarFok:  IExCor=  205 AccDes= 0.00D+00 IRadAn=         5 IDoV=-2 UseB2=F ITyADJ=14
 ICtDFT= 12500011 ScaDFX=  1.000000  1.000000  1.000000  1.000000
 Largest valence mixing into a core orbital is  7.10D-05
 Largest core mixing into a valence orbital is  1.99D-05
 Range of M.O.s used for correlation:     4   103
 NBasis=   103 NAE=    13 NBE=    13 NFC=     3 NFV=     0
 NROrb=    100 NOA=    10 NOB=    10 NVA=    90 NVB=    90

 **** Warning!!: The largest alpha MO coefficient is  0.23936824D+02

 Leave Link  801 at Mon Mar 21 19:59:45 2022, MaxMem=  8589934592 cpu:               0.5 elap:               0.1
 (Enter /home/sabyasachi/g16/l914.exe)
 RHF ground state
 Keep R1, R2, and R3 ints in memory in symmetry-blocked form, NReq=886480082.
 FoFCou: FMM=F IPFlag=           0 FMFlag=           0 FMFlg1=           0
         NFxFlg=           0 DoJE=F BraDBF=F KetDBF=F FulRan=T
         wScrn=  0.000000 ICntrl=       600 IOpCl=  0 I1Cent=           0 NGrid=           0
         NMat0=    1 NMatS0=   5356 NMatT0=    0 NMatD0=    1 NMtDS0=    0 NMtDT0=    0
 Petite list used in FoFCou.
 MDV=  8589934592 DFT=T DoStab=F Mixed=T DoRPA=T DoScal=F NonHer=T
 Making orbital integer symmetry assigments:
 Orbital symmetries:
       Occupied  (A') (A') (A') (A') (A') (A') (A') (A") (A') (A")
                 (A') (A') (A")
       Virtual   (A') (A') (A') (A") (A') (A") (A') (A') (A") (A')
                 (A") (A') (A') (A") (A') (A') (A") (A') (A') (A')
                 (A") (A') (A") (A') (A") (A') (A") (A') (A') (A")
                 (A") (A') (A") (A') (A') (A') (A") (A') (A') (A")
                 (A') (A') (A") (A') (A') (A') (A") (A') (A') (A")
                 (A') (A') (A") (A') (A") (A') (A") (A') (A") (A')
                 (A") (A") (A') (A') (A") (A') (A') (A") (A") (A')
                 (A') (A") (A') (A') (A") (A') (A') (A') (A") (A')
                 (A') (A') (A") (A') (A") (A') (A") (A") (A') (A')
   900 initial guesses have been made.
 Convergence on wavefunction:    0.001000000000000
 Davidson Disk Diagonalization:  ConvIn= 1.00D-03 SkipCon=T Conv= 1.00D-03.
 Max sub-space:  5400 roots to seek:  1800 dimension of matrix:         1800
 *** WARNING: Number of orthogonal guesses is          900
 Iteration     1 Dimension   900 NMult     0 NNew    900
 CISAX will form   900 AO SS matrices at one time.
 NMat=   900 NSing=   900 JSym2X=-1.
 New state      6 was old state      7
 New state      7 was old state      6
 New state      9 was old state     10
 New state     10 was old state      9
 New state     15 was old state     16
 New state     16 was old state     15
 New state     19 was old state     20
 New state     20 was old state     19
 New state     21 was old state     22
 New state     22 was old state     21
 New state     23 was old state     24
 New state     24 was old state     23
 New state     28 was old state     29
 New state     29 was old state     28
 New state     33 was old state     34
 New state     34 was old state     35
 New state     35 was old state     40
 New state     36 was old state     38
 New state     37 was old state     33
 New state     38 was old state     37
 New state     39 was old state     36
 New state     40 was old state     39
 New state     44 was old state     45
 New state     45 was old state     46
 New state     46 was old state     44
 New state     49 was old state     51
 New state     50 was old state     52
 New state     51 was old state     50
 New state     52 was old state     49
 New state     55 was old state     56
 New state     56 was old state     58
 New state     57 was old state     59
 New state     58 was old state     57
 New state     59 was old state     60
 New state     60 was old state     62
 New state     61 was old state     64
 New state     62 was old state     61
 New state     63 was old state     65
 New state     64 was old state     66
 New state     65 was old state     63
 New state     66 was old state     69
 New state     67 was old state     68
 New state     68 was old state     67
 New state     69 was old state     72
 New state     72 was old state     73
 New state     73 was old state     79
 New state     75 was old state     76
 New state     76 was old state     78
 New state     77 was old state     75
 New state     78 was old state     80
 New state     79 was old state     77
 New state     80 was old state     84
 New state     81 was old state     83
 New state     82 was old state     81
 New state     83 was old state     85
 New state     84 was old state     82
 New state     85 was old state     91
 New state     86 was old state     87
 New state     87 was old state     86
 New state     89 was old state     90
 New state     90 was old state     89
 New state     91 was old state     96
 New state     93 was old state     94
 New state     94 was old state     93
 New state     95 was old state     97
 New state     96 was old state     95
 New state     97 was old state    139
 New state     98 was old state    100
 New state    100 was old state     98
 New state    102 was old state    104
 New state    103 was old state    106
 New state    104 was old state    102
 New state    105 was old state    108
 New state    106 was old state    109
 New state    107 was old state    105
 New state    108 was old state    107
 New state    109 was old state    103
 New state    110 was old state    114
 New state    112 was old state    115
 New state    113 was old state    116
 New state    114 was old state    113
 New state    115 was old state    110
 New state    116 was old state    117
 New state    117 was old state    112
 New state    119 was old state    120
 New state    120 was old state    123
 New state    123 was old state    119
 New state    127 was old state    128
 New state    128 was old state    127
 New state    129 was old state    132
 New state    130 was old state    129
 New state    131 was old state    130
 New state    132 was old state    134
 New state    134 was old state    131
 New state    135 was old state    142
 New state    137 was old state    135
 New state    138 was old state    137
 New state    139 was old state    141
 New state    141 was old state    138
 New state    142 was old state    144
 New state    143 was old state    145
 New state    144 was old state    143
 New state    145 was old state    147
 New state    147 was old state    149
 New state    148 was old state    150
 New state    149 was old state    148
 New state    150 was old state    154
 New state    152 was old state    157
 New state    153 was old state    152
 New state    154 was old state    153
 New state    155 was old state    156
 New state    156 was old state    160
 New state    157 was old state    159
 New state    158 was old state    167
 New state    159 was old state    155
 New state    160 was old state    158
 New state    162 was old state    163
 New state    163 was old state    166
 New state    164 was old state    168
 New state    165 was old state    162
 New state    166 was old state    165
 New state    167 was old state    170
 New state    168 was old state    164
 New state    170 was old state    171
 New state    171 was old state    173
 New state    173 was old state    176
 New state    174 was old state    182
 New state    175 was old state    174
 New state    176 was old state    177
 New state    177 was old state    180
 New state    179 was old state    175
 New state    180 was old state    179
 New state    182 was old state    186
 New state    183 was old state    184
 New state    184 was old state    183
 New state    185 was old state    187
 New state    186 was old state    185
 New state    187 was old state    188
 New state    188 was old state    194
 New state    189 was old state    190
 New state    190 was old state    189
 New state    192 was old state    193
 New state    193 was old state    192
 New state    194 was old state    198
 New state    195 was old state    196
 New state    196 was old state    197
 New state    197 was old state    195
 New state    198 was old state    202
 New state    199 was old state    201
 New state    201 was old state    199
 New state    202 was old state    203
 New state    203 was old state    206
 New state    205 was old state    207
 New state    206 was old state    211
 New state    207 was old state    208
 New state    208 was old state    213
 New state    210 was old state    214
 New state    211 was old state    212
 New state    212 was old state    218
 New state    213 was old state    210
 New state    214 was old state    216
 New state    216 was old state    217
 New state    217 was old state    220
 New state    218 was old state    219
 New state    219 was old state    205
 New state    220 was old state    223
 New state    221 was old state    224
 New state    223 was old state    235
 New state    224 was old state    225
 New state    225 was old state    228
 New state    226 was old state    227
 New state    227 was old state    229
 New state    228 was old state    234
 New state    229 was old state    237
 New state    232 was old state    238
 New state    233 was old state    232
 New state    234 was old state    240
 New state    235 was old state    233
 New state    236 was old state    243
 New state    237 was old state    236
 New state    238 was old state    242
 New state    240 was old state    248
 New state    241 was old state    250
 New state    242 was old state    246
 New state    243 was old state    241
 New state    246 was old state    249
 New state    247 was old state    252
 New state    248 was old state    247
 New state    249 was old state    251
 New state    250 was old state    253
 New state    251 was old state    259
 New state    252 was old state    254
 New state    253 was old state    255
 New state    254 was old state    256
 New state    255 was old state    258
 New state    256 was old state    263
 New state    257 was old state    268
 New state    258 was old state    260
 New state    259 was old state    257
 New state    260 was old state    261
 New state    261 was old state    262
 New state    262 was old state    265
 New state    263 was old state    266
 New state    264 was old state    271
 New state    265 was old state    264
 New state    266 was old state    270
 New state    268 was old state    269
 New state    269 was old state    274
 New state    270 was old state    275
 New state    271 was old state    272
 New state    272 was old state    296
 New state    273 was old state    276
 New state    274 was old state    273
 New state    275 was old state    277
 New state    276 was old state    278
 New state    277 was old state    280
 New state    278 was old state    279
 New state    279 was old state    281
 New state    280 was old state    283
 New state    281 was old state    285
 New state    283 was old state    284
 New state    284 was old state    286
 New state    285 was old state    287
 New state    286 was old state    290
 New state    287 was old state    295
 New state    288 was old state    289
 New state    289 was old state    291
 New state    290 was old state    288
 New state    291 was old state    292
 New state    292 was old state    298
 New state    295 was old state    307
 New state    296 was old state    299
 New state    297 was old state    300
 New state    298 was old state    297
 New state    299 was old state    301
 New state    300 was old state    303
 New state    301 was old state    311
 New state    303 was old state    304
 New state    304 was old state    308
 New state    305 was old state    310
 New state    306 was old state    313
 New state    307 was old state    309
 New state    308 was old state    305
 New state    309 was old state    306
 New state    310 was old state    317
 New state    311 was old state    312
 New state    312 was old state    314
 New state    313 was old state    315
 New state    314 was old state    330
 No map to state    315
 New state    316 was old state    319
 New state    317 was old state    316
 New state    319 was old state    320
 No map to state    320
 New state    322 was old state    327
 New state    323 was old state    322
 New state    324 was old state    323
 New state    325 was old state    324
 New state    326 was old state    325
 New state    327 was old state    326
 New state    330 was old state    336
 New state    331 was old state    334
 New state    333 was old state    331
 New state    334 was old state    333
 New state    335 was old state    338
 New state    336 was old state    335
 New state    337 was old state    346
 New state    338 was old state    337
 New state    341 was old state    344
 New state    343 was old state    341
 New state    344 was old state    343
 New state    345 was old state    347
 New state    346 was old state    348
 New state    347 was old state    345
 New state    348 was old state    349
 New state    349 was old state    352
 New state    350 was old state    355
 New state    351 was old state    350
 No map to state    352
 New state    353 was old state    354
 New state    354 was old state    351
 New state    355 was old state    353
 New state    356 was old state    359
 New state    359 was old state    356
 New state    360 was old state    363
 New state    361 was old state    364
 New state    362 was old state    366
 New state    363 was old state    360
 New state    364 was old state    362
 New state    366 was old state    367
 New state    367 was old state    369
 New state    368 was old state    361
 New state    369 was old state    370
 New state    370 was old state    368
 New state    371 was old state    372
 New state    372 was old state    374
 New state    374 was old state    371
 New state    375 was old state    377
 New state    377 was old state    380
 New state    378 was old state    375
 New state    380 was old state    385
 New state    381 was old state    387
 New state    382 was old state    384
 New state    383 was old state    386
 New state    384 was old state    382
 New state    385 was old state    381
 New state    386 was old state    388
 New state    387 was old state    390
 New state    388 was old state    393
 New state    390 was old state    383
 New state    391 was old state    395
 New state    393 was old state    394
 New state    394 was old state    396
 New state    395 was old state    391
 New state    396 was old state    397
 New state    397 was old state    409
 New state    398 was old state    400
 New state    400 was old state    398
 New state    401 was old state    406
 New state    402 was old state    401
 New state    403 was old state    411
 New state    405 was old state    412
 New state    406 was old state    408
 New state    408 was old state    405
 New state    409 was old state    410
 New state    410 was old state    414
 New state    411 was old state    403
 New state    412 was old state    402
 New state    413 was old state    417
 New state    414 was old state    415
 New state    415 was old state    416
 New state    416 was old state    413
 New state    417 was old state    420
 New state    420 was old state    421
 New state    421 was old state    425
 New state    423 was old state    424
 New state    424 was old state    423
 New state    425 was old state    432
 New state    426 was old state    427
 New state    427 was old state    431
 New state    428 was old state    430
 New state    429 was old state    428
 New state    430 was old state    426
 New state    431 was old state    436
 New state    432 was old state    434
 New state    433 was old state    429
 New state    434 was old state    435
 New state    435 was old state    433
 New state    436 was old state    437
 New state    437 was old state    441
 New state    438 was old state    439
 New state    439 was old state    438
 New state    441 was old state    443
 New state    442 was old state    446
 New state    443 was old state    445
 New state    444 was old state    442
 New state    445 was old state    447
 New state    446 was old state    444
 New state    447 was old state    448
 New state    448 was old state    453
 New state    449 was old state    450
 New state    450 was old state    451
 New state    451 was old state    452
 New state    452 was old state    449
 New state    453 was old state    454
 New state    454 was old state    456
 New state    456 was old state    459
 New state    458 was old state    464
 New state    459 was old state    460
 New state    460 was old state    458
 New state    461 was old state    462
 New state    462 was old state    461
 New state    464 was old state    467
 New state    465 was old state    468
 New state    466 was old state    465
 New state    467 was old state    472
 New state    468 was old state    466
 New state    470 was old state    474
 New state    471 was old state    470
 New state    472 was old state    471
 New state    473 was old state    475
 New state    474 was old state    473
 New state    475 was old state    477
 New state    477 was old state    478
 New state    478 was old state    483
 New state    479 was old state    481
 New state    480 was old state    482
 New state    481 was old state    479
 New state    482 was old state    480
 New state    483 was old state    488
 New state    485 was old state    487
 New state    486 was old state    485
 New state    487 was old state    493
 New state    488 was old state    486
 New state    489 was old state    494
 New state    491 was old state    492
 New state    492 was old state    489
 New state    493 was old state    495
 New state    494 was old state    497
 New state    495 was old state    498
 New state    497 was old state    491
 New state    498 was old state    500
 New state    499 was old state    501
 New state    500 was old state    499
 New state    501 was old state    504
 New state    504 was old state    508
 New state    505 was old state    506
 New state    506 was old state    507
 New state    507 was old state    511
 New state    508 was old state    505
 New state    509 was old state    510
 New state    510 was old state    514
 New state    511 was old state    509
 New state    514 was old state    515
 New state    515 was old state    516
 New state    516 was old state    520
 New state    518 was old state    519
 New state    519 was old state    521
 New state    520 was old state    518
 New state    521 was old state    522
 New state    522 was old state    523
 New state    523 was old state    525
 New state    525 was old state    526
 New state    526 was old state    528
 New state    527 was old state    529
 New state    528 was old state    527
 New state    529 was old state    531
 New state    531 was old state    534
 No map to state    534
 New state    536 was old state    537
 New state    537 was old state    536
 New state    539 was old state    540
 New state    540 was old state    542
 New state    541 was old state    539
 New state    542 was old state    541
 New state    546 was old state    547
 New state    547 was old state    546
 New state    550 was old state    551
 New state    551 was old state    552
 New state    552 was old state    550
 New state    554 was old state    555
 New state    555 was old state    556
 New state    556 was old state    554
 New state    558 was old state    560
 New state    560 was old state    558
 New state    561 was old state    570
 New state    562 was old state    564
 New state    564 was old state    561
 New state    565 was old state    566
 New state    566 was old state    562
 New state    567 was old state    565
 New state    570 was old state    567
 New state    572 was old state    574
 New state    573 was old state    575
 New state    574 was old state    572
 New state    575 was old state    573
 New state    577 was old state    579
 New state    578 was old state    577
 New state    579 was old state    580
 New state    580 was old state    578
 New state    582 was old state    583
 New state    583 was old state    584
 New state    584 was old state    587
 New state    587 was old state    590
 New state    588 was old state    582
 New state    589 was old state    591
 New state    590 was old state    588
 New state    591 was old state    592
 New state    592 was old state    589
 New state    593 was old state    598
 New state    594 was old state    596
 New state    596 was old state    593
 New state    597 was old state    600
 New state    598 was old state    597
 New state    600 was old state    594
 New state    603 was old state    605
 New state    605 was old state    603
 New state    606 was old state    607
 New state    607 was old state    606
 New state    611 was old state    612
 New state    612 was old state    611
 New state    613 was old state    614
 New state    614 was old state    613
 New state    617 was old state    618
 New state    618 was old state    617
 New state    619 was old state    623
 New state    620 was old state    619
 New state    621 was old state    620
 New state    622 was old state    624
 New state    623 was old state    622
 New state    624 was old state    625
 New state    625 was old state    626
 New state    626 was old state    627
 New state    627 was old state    632
 New state    629 was old state    630
 New state    630 was old state    629
 New state    632 was old state    633
 New state    633 was old state    634
 New state    634 was old state    636
 New state    635 was old state    621
 New state    636 was old state    635
 New state    638 was old state    639
 New state    639 was old state    638
 New state    642 was old state    644
 New state    644 was old state    646
 New state    646 was old state    642
 New state    650 was old state    654
 New state    651 was old state    653
 New state    652 was old state    650
 New state    653 was old state    651
 New state    654 was old state    652
 New state    656 was old state    657
 New state    657 was old state    658
 New state    658 was old state    660
 New state    659 was old state    656
 New state    660 was old state    661
 New state    661 was old state    659
 New state    665 was old state    667
 New state    667 was old state    665
 New state    668 was old state    669
 New state    669 was old state    668
 New state    670 was old state    672
 New state    672 was old state    673
 New state    673 was old state    674
 New state    674 was old state    675
 New state    675 was old state    670
 New state    676 was old state    678
 New state    677 was old state    676
 New state    678 was old state    677
 New state    679 was old state    680
 New state    680 was old state    682
 New state    682 was old state    683
 New state    683 was old state    684
 New state    684 was old state    685
 New state    685 was old state    687
 New state    687 was old state    688
 New state    688 was old state    689
 New state    689 was old state    694
 New state    694 was old state    695
 New state    695 was old state    698
 New state    698 was old state    699
 New state    699 was old state    702
 New state    702 was old state    703
 New state    703 was old state    704
 New state    704 was old state    706
 New state    706 was old state    707
 No map to state    707
 New state    713 was old state    715
 New state    714 was old state    716
 New state    715 was old state    720
 New state    716 was old state    717
 New state    717 was old state    713
 New state    718 was old state    714
 New state    720 was old state    718
 New state    721 was old state    722
 New state    722 was old state    721
 New state    725 was old state    726
 New state    726 was old state    725
 New state    729 was old state    732
 New state    730 was old state    731
 New state    731 was old state    729
 New state    732 was old state    735
 New state    733 was old state    730
 New state    735 was old state    736
 New state    736 was old state    733
 New state    738 was old state    740
 New state    739 was old state    738
 New state    740 was old state    739
 New state    746 was old state    748
 New state    747 was old state    746
 New state    748 was old state    749
 New state    749 was old state    747
 New state    754 was old state    755
 New state    755 was old state    757
 New state    756 was old state    754
 New state    757 was old state    758
 New state    758 was old state    759
 New state    759 was old state    762
 New state    760 was old state    765
 New state    761 was old state    760
 New state    762 was old state    761
 New state    763 was old state    766
 New state    764 was old state    763
 New state    765 was old state    756
 New state    766 was old state    764
 New state    780 was old state    781
 New state    781 was old state    780
 New state    783 was old state    784
 New state    784 was old state    785
 New state    785 was old state    783
 New state    789 was old state    790
 New state    790 was old state    791
 New state    791 was old state    789
 New state    802 was old state    805
 New state    803 was old state    802
 New state    805 was old state    806
 New state    806 was old state    803
 New state    807 was old state    810
 New state    808 was old state    809
 New state    809 was old state    807
 New state    810 was old state    808
 New state    813 was old state    816
 New state    815 was old state    817
 New state    816 was old state    813
 New state    817 was old state    815
 New state    823 was old state    825
 New state    825 was old state    823
 New state    826 was old state    829
 New state    828 was old state    826
 New state    829 was old state    828
 New state    830 was old state    831
 New state    831 was old state    830
 New state    835 was old state    836
 New state    836 was old state    835
 New state    837 was old state    838
 New state    838 was old state    837
 New state    839 was old state    841
 New state    840 was old state    843
 New state    841 was old state    839
 New state    842 was old state    840
 New state    843 was old state    846
 New state    845 was old state    842
 New state    846 was old state    845
 New state    847 was old state    854
 New state    848 was old state    852
 New state    849 was old state    847
 New state    850 was old state    855
 New state    851 was old state    848
 New state    852 was old state    849
 New state    854 was old state    851
 New state    855 was old state    850
 New state    856 was old state    858
 New state    858 was old state    859
 New state    859 was old state    861
 New state    860 was old state    865
 New state    861 was old state    867
 New state    862 was old state    863
 New state    863 was old state    866
 New state    865 was old state    868
 New state    866 was old state    869
 New state    867 was old state    862
 New state    868 was old state    872
 New state    869 was old state    871
 New state    871 was old state    873
 New state    872 was old state    875
 New state    873 was old state    874
 New state    874 was old state    876
 New state    875 was old state    883
 New state    876 was old state    884
 New state    883 was old state    886
 New state    884 was old state    887
 New state    886 was old state    890
 New state    887 was old state    891
 No map to state    890
 New state    891 was old state    893
 New state    893 was old state    894
 No map to state    894
 New state    897 was old state    898
 New state    898 was old state    897
 Excitation Energies [eV] at current iteration:
 Root      1 :     8.684640229151277
 Root      2 :     8.983940778529790
 Root      3 :     9.503589436069426
 Root      4 :     9.738305877099847
 Root      5 :     9.930889576851543
 Root      6 :    10.144486393421210
 Root      7 :    10.292575037578850
 Root      8 :    10.372062009240660
 Root      9 :    10.410860056504060
 Root     10 :    10.475351127684800
 Root     11 :    10.840055773703470
 Root     12 :    11.037104624872230
 Root     13 :    11.262022178596070
 Root     14 :    11.286763426479190
 Root     15 :    11.390733901609640
 Root     16 :    11.502602260571150
 Root     17 :    11.513654303016420
 Root     18 :    11.542634762320560
 Root     19 :    11.788042571669650
 Root     20 :    11.854583304179850
 Root     21 :    11.858297207263140
 Root     22 :    11.887347907395250
 Root     23 :    11.988293931678370
 Root     24 :    12.077919751516420
 Root     25 :    12.159919507496290
 Root     26 :    12.334861061333550
 Root     27 :    12.423015998549640
 Root     28 :    12.483134472778700
 Root     29 :    12.623589726009040
 Root     30 :    12.625150956027760
 Root     31 :    12.799982089296310
 Root     32 :    12.896511064837750
 Root     33 :    12.925068539554270
 Root     34 :    13.051857876041440
 Root     35 :    13.063096189468730
 Root     36 :    13.105119217228780
 Root     37 :    13.133087005531430
 Root     38 :    13.194760839282700
 Root     39 :    13.241655654544970
 Root     40 :    13.298598570387450
 Root     41 :    13.372177650521430
 Root     42 :    13.389312623015420
 Root     43 :    13.498475110107450
 Root     44 :    13.549750748510390
 Root     45 :    13.590470429558730
 Root     46 :    13.683255624233740
 Root     47 :    13.832671577221570
 Root     48 :    13.993375054175040
 Root     49 :    14.021435425799470
 Root     50 :    14.091771846946150
 Root     51 :    14.123538749974240
 Root     52 :    14.204509843217470
 Root     53 :    14.383196431875830
 Root     54 :    14.398397798418020
 Root     55 :    14.447153621431330
 Root     56 :    14.478823260732460
 Root     57 :    14.531523605310180
 Root     58 :    14.548670091450790
 Root     59 :    14.586244507810980
 Root     60 :    14.611086471576110
 Root     61 :    14.681776242229330
 Root     62 :    14.706705739078860
 Root     63 :    14.849784553488380
 Root     64 :    14.869494409466530
 Root     65 :    14.892948204865970
 Root     66 :    14.950922556857690
 Root     67 :    15.006663369995540
 Root     68 :    15.100335987753840
 Root     69 :    15.140420061465510
 Root     70 :    15.342896662356840
 Root     71 :    15.398361330411340
 Root     72 :    15.511663043698500
 Root     73 :    15.606698070125950
 Root     74 :    15.620049716819290
 Root     75 :    15.812586649345080
 Root     76 :    15.816211094232260
 Root     77 :    15.902115686551450
 Root     78 :    15.903714732789770
 Root     79 :    15.943980548654460
 Root     80 :    15.964937263648150
 Root     81 :    16.011995793204950
 Root     82 :    16.036941084264190
 Root     83 :    16.095759860030790
 Root     84 :    16.130419086766070
 Root     85 :    16.172847099397880
 Root     86 :    16.188933887455800
 Root     87 :    16.243592402744110
 Root     88 :    16.273563890922380
 Root     89 :    16.411680922729680
 Root     90 :    16.439714729900860
 Root     91 :    16.523480769946650
 Root     92 :    16.583901830021370
 Root     93 :    16.744722372963860
 Root     94 :    16.760781328273370
 Root     95 :    16.777936403001780
 Root     96 :    16.785775161026060
 Root     97 :    16.952341683688110
 Root     98 :    17.132922965432900
 Root     99 :    17.136815240010810
 Root    100 :    17.188238956376150
 Root    101 :    17.271194725552110
 Root    102 :    17.298224404172380
 Root    103 :    17.313434309138540
 Root    104 :    17.330738891902230
 Root    105 :    17.360925672939930
 Root    106 :    17.416130134900220
 Root    107 :    17.456700065699270
 Root    108 :    17.531485558122380
 Root    109 :    17.562439063127820
 Root    110 :    17.568759776376820
 Root    111 :    17.632203198698090
 Root    112 :    17.670193542305010
 Root    113 :    17.707990122289410
 Root    114 :    17.715598291339280
 Root    115 :    17.723271485756640
 Root    116 :    17.789177082173160
 Root    117 :    17.867338048857590
 Root    118 :    17.917808228021410
 Root    119 :    17.949731017594450
 Root    120 :    17.980888571285630
 Root    121 :    18.033863206469730
 Root    122 :    18.084381720756570
 Root    123 :    18.111019650771240
 Root    124 :    18.157229634908780
 Root    125 :    18.211994709936650
 Root    126 :    18.315286655923170
 Root    127 :    18.366280799823140
 Root    128 :    18.461889759350430
 Root    129 :    18.483829407556260
 Root    130 :    18.497637772179140
 Root    131 :    18.602399405251180
 Root    132 :    18.696705220560570
 Root    133 :    18.739810930011020
 Root    134 :    18.829783568559490
 Root    135 :    18.851502113645030
 Root    136 :    18.866553091316920
 Root    137 :    18.874742584344200
 Root    138 :    18.895386596892250
 Root    139 :    18.971408547314580
 Root    140 :    18.975943536267420
 Root    141 :    19.035689848050770
 Root    142 :    19.141361612476350
 Root    143 :    19.183335668986700
 Root    144 :    19.205645764963500
 Root    145 :    19.238993366316150
 Root    146 :    19.246536428607240
 Root    147 :    19.333039279715290
 Root    148 :    19.340773031401310
 Root    149 :    19.349176724493140
 Root    150 :    19.418823713947160
 Root    151 :    19.424270806582970
 Root    152 :    19.520822536780840
 Root    153 :    19.521832434155450
 Root    154 :    19.705372750640870
 Root    155 :    19.794084707391290
 Root    156 :    19.829423605852560
 Root    157 :    19.898008960871940
 Root    158 :    19.961615006361070
 Root    159 :    20.010124467212370
 Root    160 :    20.026472752219660
 Root    161 :    20.079908457903000
 Root    162 :    20.097779272531570
 Root    163 :    20.160059230495450
 Root    164 :    20.163962662975400
 Root    165 :    20.173196008036270
 Root    166 :    20.211575659547770
 Root    167 :    20.254190016825650
 Root    168 :    20.367835240509630
 Root    169 :    20.388923149120710
 Root    170 :    20.432992210019310
 Root    171 :    20.468108312548200
 Root    172 :    20.520774865396480
 Root    173 :    20.539805618919050
 Root    174 :    20.612164184183090
 Root    175 :    20.629528111001670
 Root    176 :    20.688597461332560
 Root    177 :    20.741540030295340
 Root    178 :    20.747115041859000
 Root    179 :    20.787433243790810
 Root    180 :    20.815427162275190
 Root    181 :    20.904285949069680
 Root    182 :    20.916966441924440
 Root    183 :    20.945204363255050
 Root    184 :    20.957101667031030
 Root    185 :    21.055302244826040
 Root    186 :    21.136198329313600
 Root    187 :    21.167606531846210
 Root    188 :    21.186011566893520
 Root    189 :    21.198034969426140
 Root    190 :    21.281221366298940
 Root    191 :    21.326213109941790
 Root    192 :    21.422435129116660
 Root    193 :    21.496470510112610
 Root    194 :    21.549505748833980
 Root    195 :    21.568639043311380
 Root    196 :    21.600244643413830
 Root    197 :    21.602112823816990
 Root    198 :    21.676512537840360
 Root    199 :    21.693141066659580
 Root    200 :    21.697749218350960
 Root    201 :    21.735262088862920
 Root    202 :    21.805702929953690
 Root    203 :    21.808446921914690
 Root    204 :    21.845464708603650
 Root    205 :    21.948711103249890
 Root    206 :    21.982558862901770
 Root    207 :    21.992880289230480
 Root    208 :    22.039869867277610
 Root    209 :    22.092869033602960
 Root    210 :    22.100530496806670
 Root    211 :    22.131256698883750
 Root    212 :    22.157790511592610
 Root    213 :    22.178507414714860
 Root    214 :    22.242472697974120
 Root    215 :    22.267514753077360
 Root    216 :    22.296567485156840
 Root    217 :    22.335949869957770
 Root    218 :    22.350362471598690
 Root    219 :    22.367293941688150
 Root    220 :    22.392927408036500
 Root    221 :    22.443260140491480
 Root    222 :    22.471202267076160
 Root    223 :    22.527420904776890
 Root    224 :    22.570635488346590
 Root    225 :    22.642673867560000
 Root    226 :    22.697487798976110
 Root    227 :    22.722889380508560
 Root    228 :    22.784812859321630
 Root    229 :    22.818123153854280
 Root    230 :    22.843189365645780
 Root    231 :    22.880297960688260
 Root    232 :    22.925833283465220
 Root    233 :    22.927138623928960
 Root    234 :    22.979463333817740
 Root    235 :    23.017665075243140
 Root    236 :    23.044890033108270
 Root    237 :    23.051032662818610
 Root    238 :    23.169415056593130
 Root    239 :    23.172545296366360
 Root    240 :    23.202780645330810
 Root    241 :    23.239777126177490
 Root    242 :    23.328082632872030
 Root    243 :    23.330193502064420
 Root    244 :    23.463867257725480
 Root    245 :    23.478926707593330
 Root    246 :    23.492616433129530
 Root    247 :    23.544601838612700
 Root    248 :    23.568295494468020
 Root    249 :    23.642121412391210
 Root    250 :    23.742131661732740
 Root    251 :    23.818748669697640
 Root    252 :    23.853472134148130
 Root    253 :    23.946537559046860
 Root    254 :    24.030607808329230
 Root    255 :    24.062190858871340
 Root    256 :    24.110011794295440
 Root    257 :    24.114609407553320
 Root    258 :    24.243374522648170
 Root    259 :    24.248581680739520
 Root    260 :    24.410598154102150
 Root    261 :    24.421623692868400
 Root    262 :    24.457963858458270
 Root    263 :    24.526368286382350
 Root    264 :    24.559431290717730
 Root    265 :    24.570755761658570
 Root    266 :    24.729629999593490
 Root    267 :    24.775437661643570
 Root    268 :    24.782278114045990
 Root    269 :    24.891662330001700
 Root    270 :    24.925844856974910
 Root    271 :    25.014417595398840
 Root    272 :    25.041332525000350
 Root    273 :    25.079243398992250
 Root    274 :    25.103909490703850
 Root    275 :    25.182845401776800
 Root    276 :    25.250175717148320
 Root    277 :    25.252635376904780
 Root    278 :    25.401033862552070
 Root    279 :    25.439310799005630
 Root    280 :    25.482404966956850
 Root    281 :    25.547895872858880
 Root    282 :    25.552985999511120
 Root    283 :    25.666616781893620
 Root    284 :    25.701047649323620
 Root    285 :    25.714724365011030
 Root    286 :    25.745665926774880
 Root    287 :    25.783875338544380
 Root    288 :    25.795728186041110
 Root    289 :    25.918265579252250
 Root    290 :    25.980870381122270
 Root    291 :    26.018543195696470
 Root    292 :    26.201853035023480
 Root    293 :    26.222067939738610
 Root    294 :    26.271434517769610
 Root    295 :    26.352540296931630
 Root    296 :    26.397647758247070
 Root    297 :    26.503479544314440
 Root    298 :    26.507762056048200
 Root    299 :    26.598431640289010
 Root    300 :    26.702437171292440
 Root    301 :    26.708701475225150
 Root    302 :    26.880512938642320
 Root    303 :    26.892692891139070
 Root    304 :    26.974749760259220
 Root    305 :    27.364891124179170
 Root    306 :    27.397230075869050
 Root    307 :    27.443018990188140
 Root    308 :    27.510921661110150
 Root    309 :    27.567328364411580
 Root    310 :    27.646517209811790
 Root    311 :    27.717340264799330
 Root    312 :    27.826338603268620
 Root    313 :    27.940910941102710
 Root    314 :    28.107037671131150
 Root    315 :    28.110566796119630
 Root    316 :    28.200353842011410
 Root    317 :    28.282318991361090
 Root    318 :    28.691833264703090
 Root    319 :    28.725254501714520
 Root    320 :    28.848117569027760
 Root    321 :    28.875877161763420
 Root    322 :    28.942828547881950
 Root    323 :    29.068024480539660
 Root    324 :    29.136159101741890
 Root    325 :    29.176868214840870
 Root    326 :    29.181245391821570
 Root    327 :    29.222606584651490
 Root    328 :    29.240643984265330
 Root    329 :    29.402489849893410
 Root    330 :    29.411909984215810
 Root    331 :    29.500627443439170
 Root    332 :    29.716637439672440
 Root    333 :    29.749062253652450
 Root    334 :    29.827711262671130
 Root    335 :    29.835907025460960
 Root    336 :    29.963987234091310
 Root    337 :    29.993505665737060
 Root    338 :    30.043085207464320
 Root    339 :    30.189775860149110
 Root    340 :    30.249565854766470
 Root    341 :    30.348240005483540
 Root    342 :    30.436269751847670
 Root    343 :    30.484565278751540
 Root    344 :    30.553945516958670
 Root    345 :    30.702912364314680
 Root    346 :    30.833112333474410
 Root    347 :    30.977342090441430
 Root    348 :    31.016114556424050
 Root    349 :    31.129425255639950
 Root    350 :    31.177472388826160
 Root    351 :    31.199936539249060
 Root    352 :    31.271808292970340
 Root    353 :    31.351881650599260
 Root    354 :    31.497913727347420
 Root    355 :    31.577450586217530
 Root    356 :    31.654830414620780
 Root    357 :    31.749257242720900
 Root    358 :    31.821010998998520
 Root    359 :    31.932128175745560
 Root    360 :    31.954871364534100
 Root    361 :    32.125248987472370
 Root    362 :    32.129918606097780
 Root    363 :    32.174506291842730
 Root    364 :    32.223629704575920
 Root    365 :    32.256584681536620
 Root    366 :    32.299911358133660
 Root    367 :    32.333188541553600
 Root    368 :    32.342237007653370
 Root    369 :    32.415660102368000
 Root    370 :    32.471371070612520
 Root    371 :    32.577922955519600
 Root    372 :    32.761309174200130
 Root    373 :    32.776579071653810
 Root    374 :    32.794917901909330
 Root    375 :    32.882947318573660
 Root    376 :    32.946597325598860
 Root    377 :    33.105009057883040
 Root    378 :    33.159402558486140
 Root    379 :    33.303053821405310
 Root    380 :    33.393435772389080
 Root    381 :    33.403711381185930
 Root    382 :    33.467079225449620
 Root    383 :    33.534437358727180
 Root    384 :    33.599734949873420
 Root    385 :    33.627347623381890
 Root    386 :    33.688218692908560
 Root    387 :    33.773418913935760
 Root    388 :    33.880018356441800
 Root    389 :    33.892448191660530
 Root    390 :    33.898131711832280
 Root    391 :    34.023080582123440
 Root    392 :    34.024355724049780
 Root    393 :    34.070718881734760
 Root    394 :    34.109443328248630
 Root    395 :    34.196248544494100
 Root    396 :    34.206779205009410
 Root    397 :    34.315803260998900
 Root    398 :    34.487970181849700
 Root    399 :    34.587075638614020
 Root    400 :    34.658953806048260
 Root    401 :    34.668919259384610
 Root    402 :    34.730663166293070
 Root    403 :    34.759534087283790
 Root    404 :    34.830239676889280
 Root    405 :    34.863889163375690
 Root    406 :    34.897412722493840
 Root    407 :    34.920928741857700
 Root    408 :    34.953823107800620
 Root    409 :    35.004371191113680
 Root    410 :    35.014718601306760
 Root    411 :    35.081105973964230
 Root    412 :    35.097097944034150
 Root    413 :    35.209894808441830
 Root    414 :    35.279098555548850
 Root    415 :    35.338362737940340
 Root    416 :    35.510693743228150
 Root    417 :    35.571584009327390
 Root    418 :    35.704464517640200
 Root    419 :    35.810359465123800
 Root    420 :    36.003328128437350
 Root    421 :    36.026394576021510
 Root    422 :    36.087583855071120
 Root    423 :    36.148032137469780
 Root    424 :    36.212687537212410
 Root    425 :    36.370865190529070
 Root    426 :    36.411770600530200
 Root    427 :    36.450834079298910
 Root    428 :    36.529123656056620
 Root    429 :    36.599928877870550
 Root    430 :    36.609722328410790
 Root    431 :    36.817214339427490
 Root    432 :    36.828096875423010
 Root    433 :    36.917873080164450
 Root    434 :    37.096820920958470
 Root    435 :    37.126165555051860
 Root    436 :    37.135547160228900
 Root    437 :    37.400259363602620
 Root    438 :    37.417279648689120
 Root    439 :    37.437235321168880
 Root    440 :    37.493275078611060
 Root    441 :    37.604493436964840
 Root    442 :    37.734101608540030
 Root    443 :    37.832055426878480
 Root    444 :    37.837757443278510
 Root    445 :    37.981084264750940
 Root    446 :    38.053761837388850
 Root    447 :    38.238617701492340
 Root    448 :    38.316581632853330
 Root    449 :    38.339565439013970
 Root    450 :    38.475220136659930
 Root    451 :    38.481907176893320
 Root    452 :    38.590948859035280
 Root    453 :    38.746684079062140
 Root    454 :    38.911735027088080
 Root    455 :    39.011889314385620
 Root    456 :    39.043063025621690
 Root    457 :    39.086025303845840
 Root    458 :    39.216865401173650
 Root    459 :    39.230637664743750
 Root    460 :    39.309958819048430
 Root    461 :    39.378894791248440
 Root    462 :    39.397535211452010
 Root    463 :    39.503328807087410
 Root    464 :    39.515373175881930
 Root    465 :    39.707422198816570
 Root    466 :    39.747734373637560
 Root    467 :    39.775743966486330
 Root    468 :    39.924106825259140
 Root    469 :    40.032036438758930
 Root    470 :    40.144141684551160
 Root    471 :    40.145495373669870
 Root    472 :    40.177301822695430
 Root    473 :    40.264068707851480
 Root    474 :    40.452462134627260
 Root    475 :    40.573408219815110
 Root    476 :    40.693801120687890
 Root    477 :    40.694578896466470
 Root    478 :    40.788186286863290
 Root    479 :    40.870484200573500
 Root    480 :    40.919211644440790
 Root    481 :    41.048992002022610
 Root    482 :    41.094032396388290
 Root    483 :    41.271959180667000
 Root    484 :    41.304052977687250
 Root    485 :    41.509574210061060
 Root    486 :    41.742182015076220
 Root    487 :    41.799403880065140
 Root    488 :    41.808162581389290
 Root    489 :    41.843364448864440
 Root    490 :    41.858900279979440
 Root    491 :    41.882199760235550
 Root    492 :    41.936508908186190
 Root    493 :    41.937855989862000
 Root    494 :    42.069120748136020
 Root    495 :    42.129931356809370
 Root    496 :    42.210002078751140
 Root    497 :    42.291304780911690
 Root    498 :    42.549558420867040
 Root    499 :    42.662885113476140
 Root    500 :    42.734286480535860
 Root    501 :    42.985043673330390
 Root    502 :    43.133936861548850
 Root    503 :    43.152555669557970
 Root    504 :    43.238797916380230
 Root    505 :    43.417185593008130
 Root    506 :    43.483404555403670
 Root    507 :    43.518545867024930
 Root    508 :    43.616393202679430
 Root    509 :    43.685095496510500
 Root    510 :    43.736229465288030
 Root    511 :    43.844793172796700
 Root    512 :    43.928312156158790
 Root    513 :    44.027278560174570
 Root    514 :    44.036613739830980
 Root    515 :    44.406063012301200
 Root    516 :    44.528321245125260
 Root    517 :    44.561548029098390
 Root    518 :    44.587047148792090
 Root    519 :    44.731089955251500
 Root    520 :    44.912179549563800
 Root    521 :    45.147184429855380
 Root    522 :    45.272728132690500
 Root    523 :    45.443515685276950
 Root    524 :    45.555553860560410
 Root    525 :    45.760001829690960
 Root    526 :    45.813892994335740
 Root    527 :    45.875691359186530
 Root    528 :    46.028367767196930
 Root    529 :    46.199016166383370
 Root    530 :    46.241567976324570
 Root    531 :    46.394955141207050
 Root    532 :    46.404405251481080
 Root    533 :    46.523907680724240
 Root    534 :    46.806319133627060
 Root    535 :    48.096357466032760
 Root    536 :    49.122937760001010
 Root    537 :    49.174192631101520
 Root    538 :    49.350340301631050
 Root    539 :    49.871475750432810
 Root    540 :    49.975708360058700
 Root    541 :    49.982236039589840
 Root    542 :    50.084407967483010
 Root    543 :    50.260681962497910
 Root    544 :    50.568122427853240
 Root    545 :    50.570808992070670
 Root    546 :    51.022806565599990
 Root    547 :    51.086785331821640
 Root    548 :    51.159559497340800
 Root    549 :    51.488069775638070
 Root    550 :    51.531811446699670
 Root    551 :    51.682823932921860
 Root    552 :    51.691575707166010
 Root    553 :    51.931964880483700
 Root    554 :    51.937305263217430
 Root    555 :    52.125460529529600
 Root    556 :    52.173404652447920
 Root    557 :    52.414261604021390
 Root    558 :    52.626551157370560
 Root    559 :    52.738388745398270
 Root    560 :    52.798038381435730
 Root    561 :    52.843338652523680
 Root    562 :    53.055944154892270
 Root    563 :    53.162089584688970
 Root    564 :    53.219605134775890
 Root    565 :    53.259977870871310
 Root    566 :    53.310334904494040
 Root    567 :    53.373473609509340
 Root    568 :    53.512272514069480
 Root    569 :    53.543176115525210
 Root    570 :    53.720362222091600
 Root    571 :    54.170468170518590
 Root    572 :    54.295950842138550
 Root    573 :    54.361408998755100
 Root    574 :    54.484837867314700
 Root    575 :    54.562727627112600
 Root    576 :    54.581470233285470
 Root    577 :    54.724865499387600
 Root    578 :    54.744594225344510
 Root    579 :    54.806854349614370
 Root    580 :    54.965267704306240
 Root    581 :    55.088853277972010
 Root    582 :    55.470013854598830
 Root    583 :    55.475160949759730
 Root    584 :    55.522900978786190
 Root    585 :    55.686253553535270
 Root    586 :    55.759887272038330
 Root    587 :    56.054982508416180
 Root    588 :    56.252028290937550
 Root    589 :    56.368757828808020
 Root    590 :    56.433958743309980
 Root    591 :    56.492450609396620
 Root    592 :    56.912808893901460
 Root    593 :    57.203956876019550
 Root    594 :    57.553426197667140
 Root    595 :    57.566368083490790
 Root    596 :    57.622425656591870
 Root    597 :    57.738825972224540
 Root    598 :    57.816965983282150
 Root    599 :    57.837917295107190
 Root    600 :    57.865496864918860
 Root    601 :    57.910829217986140
 Root    602 :    57.961593814482810
 Root    603 :    58.143567417210630
 Root    604 :    58.232057454081800
 Root    605 :    58.335987081125410
 Root    606 :    58.434240703261540
 Root    607 :    58.692457629728090
 Root    608 :    58.801339417715720
 Root    609 :    59.241734297804770
 Root    610 :    59.335468937628770
 Root    611 :    59.465775142086510
 Root    612 :    59.520764692187350
 Root    613 :    59.657252937348280
 Root    614 :    59.701292577295640
 Root    615 :    59.762644975522960
 Root    616 :    60.188060545056220
 Root    617 :    60.268243164880230
 Root    618 :    60.352115188645880
 Root    619 :    60.833138324442370
 Root    620 :    60.838396482942310
 Root    621 :    60.891640697912090
 Root    622 :    61.034687820882230
 Root    623 :    61.058368568907580
 Root    624 :    61.211853361545540
 Root    625 :    61.226864477464080
 Root    626 :    61.368420112218790
 Root    627 :    61.379982079404680
 Root    628 :    61.435492041964460
 Root    629 :    61.641964220279390
 Root    630 :    61.679422737073140
 Root    631 :    61.732292549753160
 Root    632 :    61.739406926274850
 Root    633 :    61.824661422209440
 Root    634 :    61.891948362642130
 Root    635 :    61.949397004988680
 Root    636 :    62.029997791174200
 Root    637 :    62.186255309041440
 Root    638 :    62.213932126601930
 Root    639 :    62.248966827023100
 Root    640 :    62.310777727991240
 Root    641 :    62.374048708990600
 Root    642 :    62.678099433765240
 Root    643 :    62.693182678768700
 Root    644 :    62.789319597684890
 Root    645 :    62.853450953138090
 Root    646 :    62.894344709877420
 Root    647 :    63.088254188900330
 Root    648 :    63.355444187702590
 Root    649 :    63.472656178174020
 Root    650 :    63.664840089280100
 Root    651 :    63.686437071852810
 Root    652 :    63.695873449234430
 Root    653 :    63.785265351884360
 Root    654 :    63.979685109801810
 Root    655 :    64.083998726852940
 Root    656 :    64.170863203524450
 Root    657 :    64.202883313945180
 Root    658 :    64.411047988911850
 Root    659 :    64.446350051795530
 Root    660 :    64.644662886413300
 Root    661 :    64.703426389893010
 Root    662 :    64.808928945398080
 Root    663 :    64.827927018527130
 Root    664 :    65.085092131801620
 Root    665 :    65.161567484244460
 Root    666 :    65.253536668162250
 Root    667 :    65.324413912615700
 Root    668 :    65.562269097539840
 Root    669 :    65.572416248527380
 Root    670 :    65.601445008220370
 Root    671 :    65.711432783483930
 Root    672 :    65.756330414086050
 Root    673 :    65.866950798041940
 Root    674 :    65.905984210292540
 Root    675 :    66.046355178865100
 Root    676 :    66.221910096002470
 Root    677 :    66.304595952043780
 Root    678 :    66.439887673633410
 Root    679 :    66.790132717183670
 Root    680 :    67.067099453499080
 Root    681 :    67.123910228778370
 Root    682 :    67.442940191481330
 Root    683 :    67.567716462571680
 Root    684 :    67.696926344271990
 Root    685 :    67.838349609956980
 Root    686 :    67.863543355510050
 Root    687 :    68.164362304628750
 Root    688 :    68.624260209393430
 Root    689 :    68.839371044425860
 Root    690 :    68.884966256057770
 Root    691 :    68.963972348623530
 Root    692 :    69.041050560277580
 Root    693 :    69.088594484848090
 Root    694 :    69.288634973502010
 Root    695 :    69.324116939390790
 Root    696 :    69.742109585299450
 Root    697 :    69.830738644464920
 Root    698 :    69.935758578508610
 Root    699 :    70.388949462873750
 Root    700 :    70.530085750732370
 Root    701 :    70.696483405978820
 Root    702 :    71.257681855690780
 Root    703 :    71.295028690791750
 Root    704 :    71.586554994101760
 Root    705 :    71.854215562060050
 Root    706 :    71.995059581168790
 Root    707 :    72.122751019468450
 Root    708 :    72.137803285366160
 Root    709 :    72.413411333303430
 Root    710 :    72.545084313014980
 Root    711 :    72.651558022135790
 Root    712 :    73.022949115523280
 Root    713 :    73.037954333301440
 Root    714 :    73.162470737795300
 Root    715 :    73.193868349317090
 Root    716 :    73.277847599377910
 Root    717 :    73.333710175917730
 Root    718 :    73.405532176913880
 Root    719 :    73.472133952306110
 Root    720 :    73.794158216814550
 Root    721 :    73.933791016509090
 Root    722 :    74.012215700138500
 Root    723 :    74.372893323374750
 Root    724 :    74.609941747929700
 Root    725 :    74.670135678200790
 Root    726 :    74.899291483037630
 Root    727 :    74.908443806987140
 Root    728 :    74.941658114341120
 Root    729 :    75.085634450222190
 Root    730 :    75.151347887615930
 Root    731 :    75.251683723854330
 Root    732 :    75.384275352127090
 Root    733 :    75.485773246625230
 Root    734 :    75.839548362372350
 Root    735 :    76.085559839285920
 Root    736 :    76.227341681328970
 Root    737 :    76.349420720031050
 Root    738 :    76.415212327818750
 Root    739 :    76.545476498245110
 Root    740 :    76.556233922799580
 Root    741 :    76.887205772792230
 Root    742 :    77.223736839906610
 Root    743 :    77.425593744645180
 Root    744 :    77.453573416817250
 Root    745 :    77.513836818340920
 Root    746 :    77.717577353881040
 Root    747 :    77.745354418853740
 Root    748 :    78.254867251611330
 Root    749 :    78.360010318457940
 Root    750 :    78.616605600093810
 Root    751 :    78.634031405072920
 Root    752 :    78.703551471365100
[...]
     14  -0.397039D+00  0.000000D+00  0.000000D+00 -0.947025D-01 -0.391414D+00
     15   0.000000D+00  0.568246D-01 -0.446508D+00  0.000000D+00  0.000000D+00
     16   0.000000D+00  0.115358D-01 -0.115887D+00  0.000000D+00  0.000000D+00
               831           832           833           834           835 
      1  -0.175416D+03 -0.175392D+03 -0.175387D+03 -0.175385D+03 -0.175361D+03
      2   0.000000D+00 -0.191798D-01  0.159943D-01  0.000000D+00  0.000000D+00
      3   0.000000D+00  0.617226D-02  0.302183D-01  0.000000D+00  0.000000D+00
      4  -0.227238D-01  0.000000D+00  0.000000D+00 -0.290381D-01  0.549751D-01
      5   0.000000D+00  0.111093D+00 -0.219847D-01  0.000000D+00  0.000000D+00
      6   0.000000D+00 -0.144400D-01 -0.946215D-01  0.000000D+00  0.000000D+00
      7   0.117895D+00  0.000000D+00  0.000000D+00  0.855376D-01 -0.146677D+00
      8  -0.102375D+00  0.000000D+00  0.000000D+00  0.135564D+00 -0.635672D-02
      9  -0.319874D+00  0.000000D+00  0.000000D+00 -0.211148D+00 -0.295582D+00
     10   0.000000D+00  0.137905D+00 -0.174223D+00  0.000000D+00  0.000000D+00
     11   0.000000D+00  0.465432D+00 -0.122334D+00  0.000000D+00  0.000000D+00
     12   0.000000D+00 -0.573512D+00 -0.643692D+00  0.000000D+00  0.000000D+00
     13   0.000000D+00 -0.611207D+00 -0.309432D+00  0.000000D+00  0.000000D+00
     14   0.000000D+00 -0.126760D+00 -0.292948D+00  0.000000D+00  0.000000D+00
     15   0.496957D+00  0.000000D+00  0.000000D+00  0.161040D+00  0.346315D+00
     16  -0.187772D+00  0.000000D+00  0.000000D+00  0.208355D+00 -0.468580D-01
               836           837           838           839           840 
      1  -0.175344D+03 -0.175314D+03 -0.175311D+03 -0.175300D+03 -0.175299D+03
      2  -0.466205D-01 -0.656120D-01  0.284822D-02  0.000000D+00  0.183426D-01
      3   0.322043D-02  0.188349D-01 -0.788129D-02  0.000000D+00  0.199568D-01
      4   0.000000D+00  0.000000D+00  0.000000D+00  0.668284D-02  0.000000D+00
      5   0.193193D+00  0.170681D+00 -0.284177D-01  0.000000D+00 -0.475585D-01
      6  -0.525270D-01 -0.731053D-01  0.369456D-01  0.000000D+00 -0.420210D-01
      7   0.000000D+00  0.000000D+00  0.000000D+00 -0.202660D-01  0.000000D+00
      8   0.000000D+00  0.000000D+00  0.000000D+00  0.468672D-02  0.000000D+00
      9   0.000000D+00  0.000000D+00  0.000000D+00  0.472750D-01  0.000000D+00
     10  -0.193780D+00  0.248408D+00  0.242828D+00  0.000000D+00  0.111481D+00
     11   0.579992D+00 -0.309325D+00 -0.330859D+00  0.000000D+00 -0.767057D-01
     12  -0.339143D+00  0.361141D+00  0.217010D+00  0.000000D+00 -0.136870D-01
     13  -0.713274D+00 -0.136960D+00  0.204818D+00  0.000000D+00  0.210117D-01
     14  -0.565836D+00  0.363530D-01  0.247910D+00  0.000000D+00  0.230276D+00
     15   0.000000D+00  0.000000D+00  0.000000D+00 -0.473554D-01  0.000000D+00
     16   0.000000D+00  0.000000D+00  0.000000D+00  0.122508D-02  0.000000D+00
               841           842           843           844           845 
      1  -0.175298D+03 -0.175275D+03 -0.175228D+03 -0.175221D+03 -0.175221D+03
      2   0.184092D-01  0.000000D+00  0.000000D+00  0.000000D+00  0.744373D-01
      3   0.460638D-01  0.000000D+00  0.000000D+00  0.000000D+00  0.154742D+00
      4   0.000000D+00  0.252584D-01  0.374133D-01  0.161358D+00  0.000000D+00
      5  -0.290026D-01  0.000000D+00  0.000000D+00  0.000000D+00 -0.243904D+00
      6  -0.108536D+00  0.000000D+00  0.000000D+00  0.000000D+00 -0.517218D+00
      7   0.000000D+00 -0.871735D-01 -0.137316D+00 -0.545496D+00  0.000000D+00
      8   0.000000D+00  0.286109D+00 -0.167827D+00  0.870120D-01  0.000000D+00
      9   0.000000D+00 -0.251380D+00  0.634590D+00  0.103056D+01  0.000000D+00
     10   0.831559D-01  0.000000D+00  0.000000D+00  0.000000D+00 -0.100659D+01
     11   0.335295D+00  0.000000D+00  0.000000D+00  0.000000D+00 -0.103193D+01
     12   0.340048D-01  0.000000D+00  0.000000D+00  0.000000D+00 -0.273219D-01
     13   0.281784D-01  0.000000D+00  0.000000D+00  0.000000D+00  0.209580D-01
     14   0.211844D+00  0.000000D+00  0.000000D+00  0.000000D+00 -0.957406D+00
     15   0.000000D+00  0.237004D+00 -0.712048D+00 -0.960423D+00  0.000000D+00
     16   0.000000D+00  0.581136D-01 -0.959887D-01  0.314398D-01  0.000000D+00
               846           847           848           849           850 
      1  -0.175212D+03 -0.175211D+03 -0.175205D+03 -0.175198D+03 -0.175195D+03
      2   0.000000D+00  0.000000D+00  0.296092D-02  0.782992D-02  0.000000D+00
      3   0.000000D+00  0.000000D+00  0.446156D-01  0.178726D-02  0.000000D+00
      4   0.215484D-01  0.157723D-01  0.000000D+00  0.000000D+00 -0.647912D-02
      5   0.000000D+00  0.000000D+00 -0.174518D-01 -0.407895D-01  0.000000D+00
      6   0.000000D+00  0.000000D+00 -0.154653D+00 -0.848811D-02  0.000000D+00
      7  -0.521857D-01 -0.525220D-01  0.000000D+00  0.000000D+00  0.240365D-01
      8  -0.635114D-01 -0.260586D-01  0.000000D+00  0.000000D+00 -0.123822D-01
      9  -0.315607D-01  0.971407D-01  0.000000D+00  0.000000D+00 -0.319368D-02
     10   0.000000D+00  0.000000D+00 -0.412670D+00  0.239987D-02  0.000000D+00
     11   0.000000D+00  0.000000D+00  0.158232D+00 -0.332876D+00  0.000000D+00
     12   0.000000D+00  0.000000D+00 -0.648628D-01  0.185719D+00  0.000000D+00
     13   0.000000D+00  0.000000D+00 -0.973599D-02  0.152831D+00  0.000000D+00
     14   0.000000D+00  0.000000D+00 -0.337201D+00 -0.178463D-01  0.000000D+00
     15   0.851112D-01 -0.330748D-01  0.000000D+00  0.000000D+00 -0.506778D-01
     16  -0.695573D-01 -0.108433D+00  0.000000D+00  0.000000D+00  0.521194D-01
               851           852           853           854           855 
      1  -0.175191D+03 -0.175188D+03 -0.175185D+03 -0.175180D+03 -0.175179D+03
      2  -0.160512D-01  0.000000D+00  0.322178D-01  0.424720D-01  0.000000D+00
      3   0.110710D-01  0.000000D+00 -0.734360D-01  0.789840D-01  0.000000D+00
      4   0.000000D+00 -0.174630D-01  0.000000D+00  0.000000D+00  0.102899D+00
      5   0.493584D-01  0.000000D+00 -0.106376D+00 -0.145139D+00  0.000000D+00
      6  -0.438044D-01  0.000000D+00  0.205362D+00 -0.267543D+00  0.000000D+00
      7   0.000000D+00  0.644194D-01  0.000000D+00  0.000000D+00 -0.345096D+00
      8   0.000000D+00  0.235902D-01  0.000000D+00  0.000000D+00  0.108843D-01
      9   0.000000D+00 -0.157062D+00  0.000000D+00  0.000000D+00  0.803989D+00
     10   0.751080D-01  0.000000D+00 -0.431208D+00 -0.663394D+00  0.000000D+00
     11  -0.400244D-01  0.000000D+00  0.287899D+00 -0.327251D+00  0.000000D+00
     12   0.659633D-01  0.000000D+00 -0.214221D+00 -0.627393D-01  0.000000D+00
     13  -0.541082D-01  0.000000D+00  0.171745D+00  0.278557D-01  0.000000D+00
     14  -0.614618D-02  0.000000D+00 -0.218801D+00 -0.633063D+00  0.000000D+00
     15   0.000000D+00  0.102417D+00  0.000000D+00  0.000000D+00 -0.739024D+00
     16   0.000000D+00  0.115261D-01  0.000000D+00  0.000000D+00 -0.424547D-01
               856           857           858           859           860 
      1  -0.175148D+03 -0.175139D+03 -0.175139D+03 -0.175127D+03 -0.175117D+03
      2   0.000000D+00 -0.289044D-01  0.000000D+00 -0.960766D-01 -0.914399D-03
      3   0.000000D+00 -0.126808D+00  0.000000D+00  0.809056D-02 -0.406920D-01
      4   0.457976D-01  0.000000D+00 -0.134280D+00  0.000000D+00  0.000000D+00
      5   0.000000D+00  0.984552D-01  0.000000D+00  0.318404D+00  0.355295D-02
      6   0.000000D+00  0.417068D+00  0.000000D+00 -0.300094D-01  0.128217D+00
      7  -0.163632D+00  0.000000D+00  0.406236D+00  0.000000D+00  0.000000D+00
      8   0.322181D-01  0.000000D+00 -0.911922D-02  0.000000D+00  0.000000D+00
      9   0.741535D+00  0.000000D+00  0.346829D-01  0.000000D+00  0.000000D+00
     10   0.000000D+00  0.923628D+00  0.000000D+00 -0.620889D-01  0.207183D+00
     11   0.000000D+00  0.335136D+00  0.000000D+00  0.179230D+01  0.135689D+00
     12   0.000000D+00 -0.556152D-01  0.000000D+00  0.905432D-01  0.183296D+00
     13   0.000000D+00  0.598464D-01  0.000000D+00 -0.624776D-01 -0.838348D-01
     14   0.000000D+00  0.877530D+00  0.000000D+00 -0.373037D+00  0.252540D+00
     15  -0.616761D+00  0.000000D+00 -0.583060D-01  0.000000D+00  0.000000D+00
     16   0.345633D-01  0.000000D+00  0.179595D-01  0.000000D+00  0.000000D+00
               861           862           863           864           865 
      1  -0.175115D+03 -0.175101D+03 -0.175096D+03 -0.175096D+03 -0.175085D+03
      2   0.000000D+00  0.000000D+00  0.118033D-03  0.000000D+00  0.000000D+00
      3   0.000000D+00  0.000000D+00 -0.249706D-02  0.000000D+00  0.000000D+00
      4   0.922653D-02  0.144926D-01  0.000000D+00  0.189539D-01 -0.614493D-01
      5   0.000000D+00  0.000000D+00 -0.937874D-02  0.000000D+00  0.000000D+00
      6   0.000000D+00  0.000000D+00  0.127712D-02  0.000000D+00  0.000000D+00
      7  -0.304225D-01 -0.611133D-01  0.000000D+00 -0.648733D-01  0.191715D+00
      8   0.366210D-01 -0.698485D-02  0.000000D+00  0.252117D-01  0.220323D-01
      9   0.931555D-01  0.248296D+00  0.000000D+00  0.702351D-01 -0.455524D+00
     10   0.000000D+00  0.000000D+00  0.560520D-01  0.000000D+00  0.000000D+00
     11   0.000000D+00  0.000000D+00  0.102404D+00  0.000000D+00  0.000000D+00
     12   0.000000D+00  0.000000D+00  0.405751D-01  0.000000D+00  0.000000D+00
     13   0.000000D+00  0.000000D+00 -0.225487D-01  0.000000D+00  0.000000D+00
     14   0.000000D+00  0.000000D+00  0.348683D-01  0.000000D+00  0.000000D+00
     15  -0.937205D-01 -0.283669D+00  0.000000D+00 -0.599012D-01  0.334443D+00
     16  -0.714567D-01  0.428326D-03  0.000000D+00 -0.285018D-01  0.829112D-01
               866           867           868           869           870 
      1  -0.175085D+03 -0.175056D+03 -0.175052D+03 -0.175029D+03 -0.175006D+03
      2  -0.837300D-01  0.150497D+00  0.000000D+00 -0.324779D-01 -0.311405D-01
      3   0.806881D-01  0.541222D-01  0.000000D+00  0.877795D-01  0.239420D-01
      4   0.000000D+00  0.000000D+00  0.994190D-01  0.000000D+00  0.000000D+00
      5   0.297275D+00 -0.516272D+00  0.000000D+00  0.108421D+00  0.113039D+00
      6  -0.274011D+00 -0.180555D+00  0.000000D+00 -0.306570D+00 -0.773900D-01
      7   0.000000D+00  0.000000D+00 -0.328013D+00  0.000000D+00  0.000000D+00
      8   0.000000D+00  0.000000D+00  0.571766D-01  0.000000D+00  0.000000D+00
      9   0.000000D+00  0.000000D+00  0.749403D+00  0.000000D+00  0.000000D+00
     10  -0.338401D+00 -0.511313D+00  0.000000D+00 -0.656795D+00 -0.353938D-01
     11   0.168414D+01 -0.207449D+01  0.000000D+00  0.926370D+00  0.625750D+00
     12   0.232411D+00 -0.770640D-01  0.000000D+00  0.830905D-01 -0.221555D+00
     13  -0.127461D-01  0.267848D-01  0.000000D+00 -0.589964D-02 -0.697391D-01
     14  -0.664316D+00 -0.157409D+00  0.000000D+00 -0.656593D+00 -0.110092D+00
     15   0.000000D+00  0.000000D+00 -0.717599D+00  0.000000D+00  0.000000D+00
     16   0.000000D+00  0.000000D+00  0.449490D-01  0.000000D+00  0.000000D+00
               871           872           873           874           875 
      1  -0.175002D+03 -0.174972D+03 -0.174965D+03 -0.174963D+03 -0.174938D+03
      2   0.000000D+00  0.203998D+00 -0.118968D+00  0.000000D+00  0.000000D+00
      3   0.000000D+00 -0.195187D+00  0.115830D-01  0.000000D+00  0.000000D+00
      4  -0.163350D-01  0.000000D+00  0.000000D+00  0.851741D-01 -0.318847D+00
      5   0.000000D+00 -0.718259D+00  0.424589D+00  0.000000D+00  0.000000D+00
      6   0.000000D+00  0.690728D+00 -0.381305D-01  0.000000D+00  0.000000D+00
      7   0.619798D-01  0.000000D+00  0.000000D+00 -0.306400D+00  0.111390D+01
      8  -0.136834D-01  0.000000D+00  0.000000D+00  0.100593D+00 -0.236567D+00
      9  -0.200628D+00  0.000000D+00  0.000000D+00  0.732107D+00 -0.259084D+01
     10   0.000000D+00  0.152932D+01 -0.143041D-01  0.000000D+00  0.000000D+00
     11   0.000000D+00 -0.341383D+01  0.210610D+01  0.000000D+00  0.000000D+00
     12   0.000000D+00 -0.282065D+00  0.148170D+00  0.000000D+00  0.000000D+00
     13   0.000000D+00 -0.139514D+00 -0.960871D-01  0.000000D+00  0.000000D+00
     14   0.000000D+00  0.184385D+01 -0.598676D-01  0.000000D+00  0.000000D+00
     15   0.125868D+00  0.000000D+00  0.000000D+00 -0.841273D+00  0.261738D+01
     16   0.412405D-01  0.000000D+00  0.000000D+00 -0.301785D-01 -0.303181D+00
               876           877           878           879           880 
      1  -0.174923D+03 -0.174872D+03 -0.174867D+03 -0.174858D+03 -0.174821D+03
      2   0.195716D+00  0.000000D+00  0.184232D-01  0.346455D-01 -0.101424D-02
      3   0.250686D+00  0.000000D+00  0.257865D-01  0.115335D+00 -0.116329D-01
      4   0.000000D+00 -0.147351D+00  0.000000D+00  0.000000D+00  0.000000D+00
      5  -0.683394D+00  0.000000D+00 -0.536732D-01 -0.127987D+00 -0.157583D-02
      6  -0.874975D+00  0.000000D+00 -0.737702D-01 -0.403543D+00  0.394983D-01
      7   0.000000D+00  0.509329D+00  0.000000D+00  0.000000D+00  0.000000D+00
      8   0.000000D+00 -0.100604D+00  0.000000D+00  0.000000D+00  0.000000D+00
      9   0.000000D+00 -0.116028D+01  0.000000D+00  0.000000D+00  0.000000D+00
     10  -0.224057D+01  0.000000D+00 -0.172835D-01 -0.938563D+00  0.129371D-01
     11  -0.341656D+01  0.000000D+00  0.148621D-01 -0.702623D+00  0.368225D-01
     12   0.500539D+00  0.000000D+00 -0.243215D+00  0.276074D+00  0.120351D+00
     13  -0.708572D-01  0.000000D+00  0.114768D+00  0.423469D-02 -0.146695D+00
     14  -0.205247D+01  0.000000D+00 -0.243857D-01 -0.915603D+00  0.788335D-01
     15   0.000000D+00  0.135736D+01  0.000000D+00  0.000000D+00  0.000000D+00
     16   0.000000D+00 -0.184782D+00  0.000000D+00  0.000000D+00  0.000000D+00
               881           882           883           884           885 
      1  -0.174819D+03 -0.174804D+03 -0.174757D+03 -0.174747D+03 -0.174743D+03
      2   0.000000D+00  0.000000D+00  0.000000D+00 -0.112940D+00  0.433278D-01
      3   0.000000D+00  0.000000D+00  0.000000D+00 -0.249308D+00  0.671810D-01
      4  -0.103145D-01  0.275617D-01 -0.246281D+00  0.000000D+00  0.000000D+00
      5   0.000000D+00  0.000000D+00  0.000000D+00  0.421972D+00 -0.157620D+00
      6   0.000000D+00  0.000000D+00  0.000000D+00  0.915268D+00 -0.244684D+00
      7   0.298941D-01 -0.100039D+00  0.906189D+00  0.000000D+00  0.000000D+00
      8   0.380729D-01 -0.595104D-01 -0.100355D+00  0.000000D+00  0.000000D+00
      9   0.282409D-01  0.119891D+00 -0.187822D+01  0.000000D+00  0.000000D+00
     10   0.000000D+00  0.000000D+00  0.000000D+00  0.199635D+01 -0.626975D+00
     11   0.000000D+00  0.000000D+00  0.000000D+00  0.199087D+01 -0.535438D+00
     12   0.000000D+00  0.000000D+00  0.000000D+00 -0.212785D+00  0.286911D-01
     13   0.000000D+00  0.000000D+00  0.000000D+00 -0.967758D-01 -0.155332D+00
     14   0.000000D+00  0.000000D+00  0.000000D+00  0.194372D+01 -0.478440D+00
     15  -0.945942D-01 -0.106864D+00  0.192194D+01  0.000000D+00  0.000000D+00
     16  -0.131552D+00  0.143355D+00 -0.164797D+00  0.000000D+00  0.000000D+00
               886           887           888           889           890 
      1  -0.174736D+03 -0.174719D+03 -0.174708D+03 -0.174687D+03 -0.174685D+03
      2   0.000000D+00  0.769551D-01  0.000000D+00  0.246465D-01  0.000000D+00
      3   0.000000D+00  0.144679D+00  0.000000D+00 -0.158754D+00  0.000000D+00
      4  -0.129943D+00  0.000000D+00 -0.333730D-01  0.000000D+00 -0.285343D+00
      5   0.000000D+00 -0.279418D+00  0.000000D+00 -0.115671D+00  0.000000D+00
      6   0.000000D+00 -0.523846D+00  0.000000D+00  0.606450D+00  0.000000D+00
      7   0.472196D+00  0.000000D+00  0.109904D+00  0.000000D+00  0.105502D+01
      8  -0.381107D-03  0.000000D+00  0.635178D-01  0.000000D+00 -0.161920D+00
      9  -0.980865D+00  0.000000D+00 -0.424972D-01  0.000000D+00 -0.239346D+01
     10   0.000000D+00 -0.105190D+01  0.000000D+00  0.133119D+01  0.000000D+00
     11   0.000000D+00 -0.137419D+01  0.000000D+00 -0.163835D+00  0.000000D+00
     12   0.000000D+00  0.204715D+00  0.000000D+00 -0.396315D+00  0.000000D+00
     13   0.000000D+00 -0.914368D-02  0.000000D+00  0.155506D-01  0.000000D+00
     14   0.000000D+00 -0.114120D+01  0.000000D+00  0.145781D+01  0.000000D+00
     15   0.111362D+01  0.000000D+00 -0.898006D-01  0.000000D+00  0.260502D+01
     16  -0.104060D+00  0.000000D+00  0.731676D-02  0.000000D+00 -0.243379D+00
               891           892           893           894           895 
      1  -0.174643D+03 -0.174613D+03 -0.174566D+03 -0.174467D+03 -0.174439D+03
      2  -0.192899D+00  0.000000D+00  0.280778D+00  0.152013D+00  0.105183D-01
      3  -0.169539D+00  0.000000D+00 -0.182251D+00 -0.646356D-01  0.661544D-02
      4   0.000000D+00  0.156513D+00  0.000000D+00  0.000000D+00  0.000000D+00
      5   0.731826D+00  0.000000D+00 -0.113049D+01 -0.683512D+00 -0.428019D-01
      6   0.638841D+00  0.000000D+00  0.730399D+00  0.301738D+00 -0.253098D-01
      7   0.000000D+00 -0.601857D+00  0.000000D+00  0.000000D+00  0.000000D+00
      8   0.000000D+00  0.187631D+00  0.000000D+00  0.000000D+00  0.000000D+00
      9   0.000000D+00  0.151201D+01  0.000000D+00  0.000000D+00  0.000000D+00
     10   0.170300D+01  0.000000D+00  0.152785D+01  0.520605D+00 -0.891106D-01
     11   0.352813D+01  0.000000D+00 -0.483972D+01 -0.378068D+01 -0.299223D+00
     12  -0.568314D+00  0.000000D+00 -0.232825D+00 -0.138856D+00 -0.631062D+00
     13   0.443051D-01  0.000000D+00  0.366914D-01  0.835632D-01  0.709211D+00
     14   0.166180D+01  0.000000D+00  0.173057D+01  0.120477D+01 -0.319649D+00
     15   0.000000D+00 -0.171980D+01  0.000000D+00  0.000000D+00  0.000000D+00
     16   0.000000D+00  0.273335D+00  0.000000D+00  0.000000D+00  0.000000D+00
               896           897           898           899           900 
      1  -0.174437D+03 -0.174354D+03 -0.174343D+03 -0.174337D+03 -0.173963D+03
      2   0.000000D+00  0.000000D+00  0.119023D-01  0.300267D-01  0.298442D-01
      3   0.000000D+00  0.000000D+00 -0.382436D-02  0.600265D-01 -0.103746D-01
      4  -0.712787D-03 -0.736071D-01  0.000000D+00  0.000000D+00  0.000000D+00
      5   0.000000D+00  0.000000D+00 -0.107998D+00 -0.113640D+00 -0.206966D+00
      6   0.000000D+00  0.000000D+00  0.485314D-01 -0.238233D+00  0.862732D-01
      7   0.140528D-03  0.286372D+00  0.000000D+00  0.000000D+00  0.000000D+00
      8   0.205695D-01 -0.421160D-01  0.000000D+00  0.000000D+00  0.000000D+00
      9   0.311862D-01 -0.637661D+00  0.000000D+00  0.000000D+00  0.000000D+00
     10   0.000000D+00  0.000000D+00  0.176531D+00 -0.555596D+00  0.172763D+00
     11   0.000000D+00  0.000000D+00 -0.125671D+01 -0.378241D-01 -0.615353D+00
     12   0.000000D+00  0.000000D+00 -0.235770D+00 -0.259868D+00 -0.703192D-01
     13   0.000000D+00  0.000000D+00  0.953566D-01 -0.840704D-01 -0.175051D+00
     14   0.000000D+00  0.000000D+00  0.612150D+00 -0.199538D+00 -0.260070D-01
     15   0.318272D+00  0.162187D+00  0.000000D+00  0.000000D+00  0.000000D+00
     16   0.649216D+00  0.231962D+00  0.000000D+00  0.000000D+00  0.000000D+00
 Unable to Open any file for archive entry.
 1\1\GINC-HEL23\SP\RB3LYP TD-FC\Gen\C2H5F1\SABYASACHI\21-Mar-2022\0\\#P
  TD(Nstates=10000) b3lyp/Gen SCF(maxcycles=100) Int(Grid=ultrafine)\\x
 GDB7_00001_tier4.com\\0,1\C,0,-1.122844,-0.45232,0.\C,0,0.,0.553997,0.
 \F,0,1.225284,-0.098236,0.\H,0,-2.083314,0.066805,0.\H,0,-1.072796,-1.
 085651,0.886148\H,0,-1.072796,-1.085651,-0.886148\H,0,-0.030794,1.1892
 78,0.888716\H,0,-0.030794,1.189278,-0.888716\\Version=EM64L-G16RevC.01
 \State=1-A'\HF=-178.9430301\RMSD=1.195e-09\PG=CS [SG(C2H1F1),X(H4)]\\@
 The archive entry for this job was punched.


 LIVE PURE, SPEAK TRUE, RIGHT WRONG, FOLLOW THE KING...
 ELSE, WHEREFORE BORN......
           IDYLLS OF THE KING, TENNYSON
 Job cpu time:       0 days  0 hours  9 minutes 22.6 seconds.
 Elapsed time:       0 days  0 hours  1 minutes 10.6 seconds.
 File lengths (MBytes):  RWF=   1039 Int=      0 D2E=      0 Chk=    234 Scr=      1
 Normal termination of Gaussian 16 at Mon Mar 21 20:00:54 2022.
