 Entering Gaussian System, Link 0=g16
 Input=000031.com
 Output=000031.log
 Initial command:
 /home/sabyasachi/g16/l1.exe "/scratch/sabyasachi/PBS_7976033.helios/Gau-106759.inp" -scrdir="/scratch/sabyasachi/PBS_7976033.helios/"
 Entering Link 1 = /home/sabyasachi/g16/l1.exe PID=    106760.
  
 Copyright (c) 1988-2019, Gaussian, Inc.  All Rights Reserved.
  
 This is part of the Gaussian(R) 16 program.  It is based on
 the Gaussian(R) 09 system (copyright 2009, Gaussian, Inc.),
 the Gaussian(R) 03 system (copyright 2003, Gaussian, Inc.),
 the Gaussian(R) 98 system (copyright 1998, Gaussian, Inc.),
 the Gaussian(R) 94 system (copyright 1995, Gaussian, Inc.),
 the Gaussian 92(TM) system (copyright 1992, Gaussian, Inc.),
 the Gaussian 90(TM) system (copyright 1990, Gaussian, Inc.),
 the Gaussian 88(TM) system (copyright 1988, Gaussian, Inc.),
 the Gaussian 86(TM) system (copyright 1986, Carnegie Mellon
 University), and the Gaussian 82(TM) system (copyright 1983,
 Carnegie Mellon University). Gaussian is a federally registered
 trademark of Gaussian, Inc.
  
 This software contains proprietary and confidential information,
 including trade secrets, belonging to Gaussian, Inc.
  
 This software is provided under written license and may be
 used, copied, transmitted, or stored only in accord with that
 written license.
  
 The following legend is applicable only to US Government
 contracts under FAR:
  
                    RESTRICTED RIGHTS LEGEND
  
 Use, reproduction and disclosure by the US Government is
 subject to restrictions as set forth in subparagraphs (a)
 and (c) of the Commercial Computer Software - Restricted
 Rights clause in FAR 52.227-19.
  
 Gaussian, Inc.
 340 Quinnipiac St., Bldg. 40, Wallingford CT 06492
  
  
 ---------------------------------------------------------------
 Warning -- This program may not be used in any manner that
 competes with the business of Gaussian, Inc. or will provide
 assistance to any competitor of Gaussian, Inc.  The licensee
 of this program is prohibited from giving any competitor of
 Gaussian, Inc. access to this program.  By using this program,
 the user acknowledges that Gaussian, Inc. is engaged in the
 business of creating and licensing software in the field of
 computational chemistry and represents and warrants to the
 licensee that it is not a competitor of Gaussian, Inc. and that
 it will not use this program in any manner prohibited above.
 ---------------------------------------------------------------
  

 Cite this work as:
 Gaussian 16, Revision C.01,
 M. J. Frisch, G. W. Trucks, H. B. Schlegel, G. E. Scuseria, 
 M. A. Robb, J. R. Cheeseman, G. Scalmani, V. Barone, 
 G. A. Petersson, H. Nakatsuji, X. Li, M. Caricato, A. V. Marenich, 
 J. Bloino, B. G. Janesko, R. Gomperts, B. Mennucci, H. P. Hratchian, 
 J. V. Ortiz, A. F. Izmaylov, J. L. Sonnenberg, D. Williams-Young, 
 F. Ding, F. Lipparini, F. Egidi, J. Goings, B. Peng, A. Petrone, 
 T. Henderson, D. Ranasinghe, V. G. Zakrzewski, J. Gao, N. Rega, 
 G. Zheng, W. Liang, M. Hada, M. Ehara, K. Toyota, R. Fukuda, 
 J. Hasegawa, M. Ishida, T. Nakajima, Y. Honda, O. Kitao, H. Nakai, 
 T. Vreven, K. Throssell, J. A. Montgomery, Jr., J. E. Peralta, 
 F. Ogliaro, M. J. Bearpark, J. J. Heyd, E. N. Brothers, K. N. Kudin, 
 V. N. Staroverov, T. A. Keith, R. Kobayashi, J. Normand, 
 K. Raghavachari, A. P. Rendell, J. C. Burant, S. S. Iyengar, 
 J. Tomasi, M. Cossi, J. M. Millam, M. Klene, C. Adamo, R. Cammi, 
 J. W. Ochterski, R. L. Martin, K. Morokuma, O. Farkas, 
 J. B. Foresman, and D. J. Fox, Gaussian, Inc., Wallingford CT, 2019.
 
 ******************************************
 Gaussian 16:  EM64L-G16RevC.01  3-Jul-2019
                21-Mar-2022 
 ******************************************
 %mem=64gb
 %nproc=8
 Will use up to    8 processors via shared memory.
 ---------------------------------------------------------------------
 #P TD(Nstates=10000) b3lyp/Gen SCF(maxcycles=100) Int(Grid=ultrafine)
 ---------------------------------------------------------------------
 1/38=1,172=1/1;
 2/12=2,17=6,18=5,40=1/2;
 3/5=7,11=9,25=1,30=1,74=-5,75=-5/1,2,3,8;
 4//1;
 5/5=2,7=100,38=5/2;
 8/6=1,10=1,108=10000/1;
 9/41=10000,42=1,70=2/14;
 6/7=2,8=2,9=2,10=2/1;
 99/5=1,9=1/99;
 Leave Link    1 at Mon Mar 21 20:00:01 2022, MaxMem=  8589934592 cpu:               0.3 elap:               0.0
 (Enter /home/sabyasachi/g16/l101.exe)
 ---------------------
 xGDB7_00001_tier4.com
 ---------------------
 Symbolic Z-matrix:
 Charge =  0 Multiplicity = 1
 6                     0.51685   0.69483   0. 
 6                    -0.86017   0.1002    0. 
 6                     0.34331  -0.79502   0. 
 1                     0.86651   1.16486   0.90918 
 1                     0.86651   1.16486  -0.90918 
 1                    -1.44205   0.16796  -0.90918 
 1                    -1.44205   0.16797   0.90918 
 1                     0.57557  -1.33284  -0.90918 
 1                     0.57557  -1.33284   0.90918 
 
 ITRead=  0  0  0  0  0  0  0  0  0
 MicOpt= -1 -1 -1 -1 -1 -1 -1 -1 -1
 NAtoms=      9 NQM=        9 NQMF=       0 NMMI=      0 NMMIF=      0
                NMic=       0 NMicF=      0.
                    Isotopes and Nuclear Properties:
 (Nuclear quadrupole moments (NQMom) in fm**2, nuclear magnetic moments (NMagM)
  in nuclear magnetons)

  Atom         1           2           3           4           5           6           7           8           9
 IAtWgt=          12          12          12           1           1           1           1           1           1
 AtmWgt=  12.0000000  12.0000000  12.0000000   1.0078250   1.0078250   1.0078250   1.0078250   1.0078250   1.0078250
 NucSpn=           0           0           0           1           1           1           1           1           1
 AtZEff=  -0.0000000  -0.0000000  -0.0000000  -0.0000000  -0.0000000  -0.0000000  -0.0000000  -0.0000000  -0.0000000
 NQMom=    0.0000000   0.0000000   0.0000000   0.0000000   0.0000000   0.0000000   0.0000000   0.0000000   0.0000000
 NMagM=    0.0000000   0.0000000   0.0000000   2.7928460   2.7928460   2.7928460   2.7928460   2.7928460   2.7928460
 AtZNuc=   6.0000000   6.0000000   6.0000000   1.0000000   1.0000000   1.0000000   1.0000000   1.0000000   1.0000000
 Leave Link  101 at Mon Mar 21 20:00:01 2022, MaxMem=  8589934592 cpu:               0.6 elap:               0.1
 (Enter /home/sabyasachi/g16/l202.exe)
                          Input orientation:                          
 ---------------------------------------------------------------------
 Center     Atomic      Atomic             Coordinates (Angstroms)
 Number     Number       Type             X           Y           Z
 ---------------------------------------------------------------------
      1          6           0        0.516845    0.694830    0.000000
      2          6           0       -0.860166    0.100195    0.000000
      3          6           0        0.343308   -0.795021    0.000000
      4          1           0        0.866514    1.164858    0.909176
      5          1           0        0.866513    1.164859   -0.909176
      6          1           0       -1.442047    0.167964   -0.909177
      7          1           0       -1.442048    0.167965    0.909176
      8          1           0        0.575574   -1.332837   -0.909179
      9          1           0        0.575574   -1.332837    0.909179
 ---------------------------------------------------------------------
                    Distance matrix (angstroms):
                    1          2          3          4          5
     1  C    0.000000
     2  C    1.499917   0.000000
     3  C    1.499924   1.499920   0.000000
     4  H    1.081571   2.222956   2.222942   0.000000
     5  H    1.081571   2.222955   2.222943   1.818352   0.000000
     6  H    2.222937   1.081564   2.222934   3.103169   2.514607
     7  H    2.222937   1.081564   2.222935   2.514608   3.103169
     8  H    2.222946   2.222957   1.081573   3.103150   2.514584
     9  H    2.222946   2.222957   1.081573   2.514583   3.103151
                    6          7          8          9
     6  H    0.000000
     7  H    1.818353   0.000000
     8  H    2.514597   3.103163   0.000000
     9  H    3.103162   2.514598   1.818358   0.000000
 Stoichiometry    C3H6
 Framework group  CS[SG(C3),X(H6)]
 Deg. of freedom    12
 Full point group                 CS      NOp   2
 Largest Abelian subgroup         CS      NOp   2
 Largest concise Abelian subgroup CS      NOp   2
                         Standard orientation:                         
 ---------------------------------------------------------------------
 Center     Atomic      Atomic             Coordinates (Angstroms)
 Number     Number       Type             X           Y           Z
 ---------------------------------------------------------------------
      1          6           0        0.000000    0.865978    0.000000
      2          6           0        0.749967   -0.432983    0.000000
      3          6           0       -0.749954   -0.432999    0.000000
      4          1           0       -0.000033    1.451806   -0.909176
      5          1           0       -0.000033    1.451806    0.909176
      6          1           0        1.257295   -0.725894    0.909177
      7          1           0        1.257295   -0.725894   -0.909177
      8          1           0       -1.257302   -0.725899    0.909179
      9          1           0       -1.257302   -0.725899   -0.909179
 ---------------------------------------------------------------------
 Rotational constants (GHZ):          20.3211092          20.3210941          12.7163454
 Leave Link  202 at Mon Mar 21 20:00:01 2022, MaxMem=  8589934592 cpu:               0.1 elap:               0.0
 (Enter /home/sabyasachi/g16/l301.exe)
 General basis read from cards:  (5D, 7F)
 Centers:       4      5      6      7      8      9
 S 3 1.00
     Exponent=  1.3010701000D+01 Coefficients=  1.9682158000D-02
     Exponent=  1.9622572000D+00 Coefficients=  1.3796524000D-01
     Exponent=  4.4453796000D-01 Coefficients=  4.7831935000D-01
 S 1 1.00
     Exponent=  1.2194962000D-01 Coefficients=  1.0000000000D+00
 P 1 1.00
     Exponent=  8.0000000000D-01 Coefficients=  1.0000000000D+00
 P 1 1.00
     Exponent=  1.1704099050D-01 Coefficients=  1.0000000000D+00
 ****
 Centers:       1      2      3
 S 5 1.00
     Exponent=  1.2384016938D+03 Coefficients=  5.4568832082D-03
     Exponent=  1.8629004992D+02 Coefficients=  4.0638409211D-02
     Exponent=  4.2251176346D+01 Coefficients=  1.8025593888D-01
     Exponent=  1.1676557932D+01 Coefficients=  4.6315121755D-01
     Exponent=  3.5930506482D+00 Coefficients=  4.4087173314D-01
 S 1 1.00
     Exponent=  4.0245147363D-01 Coefficients=  1.0000000000D+00
 S 1 1.00
     Exponent=  1.3090182668D-01 Coefficients=  1.0000000000D+00
 S 1 1.00
     Exponent=  6.7053540256D-02 Coefficients=  1.0000000000D+00
 P 3 1.00
     Exponent=  9.4680970621D+00 Coefficients=  3.8387871728D-02
     Exponent=  2.0103545142D+00 Coefficients=  2.1117025112D-01
     Exponent=  5.4771004707D-01 Coefficients=  5.1328172114D-01
 P 1 1.00
     Exponent=  1.5268613795D-01 Coefficients=  1.0000000000D+00
 D 1 1.00
     Exponent=  8.0000000000D-01 Coefficients=  1.0000000000D+00
 D 1 1.00
     Exponent=  1.1713185140D-01 Coefficients=  1.0000000000D+00
 ****
 Ernie: Thresh=  0.10000D-02 Tol=  0.10000D-05 Strict=F.
 There are    72 symmetry adapted cartesian basis functions of A'  symmetry.
 There are    42 symmetry adapted cartesian basis functions of A"  symmetry.
 There are    66 symmetry adapted basis functions of A'  symmetry.
 There are    42 symmetry adapted basis functions of A"  symmetry.
   108 basis functions,   156 primitive gaussians,   114 cartesian basis functions
    12 alpha electrons       12 beta electrons
       nuclear repulsion energy        76.0150796331 Hartrees.
 IExCor=  402 DFT=T Ex+Corr=B3LYP ExCW=0 ScaHFX=  0.200000
 ScaDFX=  0.800000  0.720000  1.000000  0.810000 ScalE2=  1.000000  1.000000
 IRadAn=      5 IRanWt=     -1 IRanGd=            0 ICorTp=0 IEmpDi=  4
 NAtoms=    9 NActive=    9 NUniq=    6 SFac= 2.25D+00 NAtFMM=   60 NAOKFM=F Big=F
 Integral buffers will be    131072 words long.
 Regular integral format.
 Two-electron integral symmetry is turned on.
 Leave Link  301 at Mon Mar 21 20:00:01 2022, MaxMem=  8589934592 cpu:               0.5 elap:               0.1
 (Enter /home/sabyasachi/g16/l302.exe)
 NPDir=0 NMtPBC=     1 NCelOv=     1 NCel=       1 NClECP=     1 NCelD=      1
         NCelK=      1 NCelE2=     1 NClLst=     1 CellRange=     0.0.
 One-electron integrals computed using PRISM.
 One-electron integral symmetry used in STVInt
 NBasis=   108 RedAO= T EigKep=  1.77D-04  NBF=    66    42
 NBsUse=   108 1.00D-06 EigRej= -1.00D+00 NBFU=    66    42
 Precomputing XC quadrature grid using
 IXCGrd= 4 IRadAn=           5 IRanWt=          -1 IRanGd=           0 AccXCQ= 0.00D+00.
 Generated NRdTot=       0 NPtTot=           0 NUsed=           0 NTot=          32
 NSgBfM=   114   114   114   114   114 MxSgAt=     9 MxSgA2=     9.
 Leave Link  302 at Mon Mar 21 20:00:01 2022, MaxMem=  8589934592 cpu:               1.1 elap:               0.2
 (Enter /home/sabyasachi/g16/l303.exe)
 DipDrv:  MaxL=1.
 Leave Link  303 at Mon Mar 21 20:00:01 2022, MaxMem=  8589934592 cpu:               0.2 elap:               0.0
 (Enter /home/sabyasachi/g16/l308.exe)
 Leave Link  308 at Mon Mar 21 20:00:01 2022, MaxMem=  8589934592 cpu:               0.2 elap:               0.1
 (Enter /home/sabyasachi/g16/l401.exe)
 ExpMin= 6.71D-02 ExpMax= 1.24D+03 ExpMxC= 1.86D+02 IAcc=3 IRadAn=         5 AccDes= 0.00D+00
 Harris functional with IExCor=  402 and IRadAn=       5 diagonalized for initial guess.
 HarFok:  IExCor=  402 AccDes= 0.00D+00 IRadAn=         5 IDoV= 1 UseB2=F ITyADJ=14
 ICtDFT=  3500011 ScaDFX=  1.000000  1.000000  1.000000  1.000000
 FoFCou: FMM=F IPFlag=           0 FMFlag=      100000 FMFlg1=           0
         NFxFlg=           0 DoJE=T BraDBF=F KetDBF=T FulRan=T
         wScrn=  0.000000 ICntrl=       500 IOpCl=  0 I1Cent=   200000004 NGrid=           0
         NMat0=    1 NMatS0=      1 NMatT0=    0 NMatD0=    1 NMtDS0=    0 NMtDT0=    0
 Petite list used in FoFCou.
 Harris En= -117.850432656120    
 JPrj=0 DoOrth=F DoCkMO=F.
 Initial guess orbital symmetries:
       Occupied  (A') (A') (A') (A') (A') (A') (A") (A') (A") (A")
                 (A') (A')
       Virtual   (A') (A') (A") (A') (A') (A') (A") (A") (A') (A')
                 (A") (A') (A') (A') (A") (A") (A') (A') (A') (A')
                 (A") (A") (A') (A') (A") (A") (A') (A") (A") (A')
                 (A') (A') (A') (A') (A") (A") (A") (A') (A') (A')
                 (A') (A') (A") (A") (A") (A') (A") (A') (A') (A")
                 (A") (A') (A') (A') (A') (A") (A') (A') (A') (A')
                 (A') (A") (A") (A') (A") (A") (A') (A') (A") (A")
                 (A") (A") (A") (A') (A') (A') (A") (A") (A') (A')
                 (A') (A') (A') (A') (A") (A") (A") (A') (A') (A')
                 (A") (A') (A') (A') (A") (A")
 The electronic state of the initial guess is 1-A'.
 Leave Link  401 at Mon Mar 21 20:00:02 2022, MaxMem=  8589934592 cpu:               2.3 elap:               0.3
 (Enter /home/sabyasachi/g16/l502.exe)
 Keep R1 ints in memory in symmetry-blocked form, NReq=26033091.
 FoFCou: FMM=F IPFlag=           0 FMFlag=           0 FMFlg1=           0
         NFxFlg=           0 DoJE=F BraDBF=F KetDBF=F FulRan=T
         wScrn=  0.000000 ICntrl=       600 IOpCl=  0 I1Cent=           0 NGrid=           0
         NMat0=    1 NMatS0=   5886 NMatT0=    0 NMatD0=    1 NMtDS0=    0 NMtDT0=    0
 Petite list used in FoFCou.
 Closed shell SCF:
 Using DIIS extrapolation, IDIIS=  1040.
 NGot=  8589934592 LenX=  8581199601 LenY=  8581186164
 Requested convergence on RMS density matrix=1.00D-08 within 100 cycles.
 Requested convergence on MAX density matrix=1.00D-06.
 Requested convergence on             energy=1.00D-06.
 No special actions if energy rises.
 Integral accuracy reduced to 1.0D-05 until final iterations.

 Cycle   1  Pass 0  IDiag  1:
 E= -117.698453854760    
 DIIS: error= 3.79D-02 at cycle   1 NSaved=   1.
 NSaved= 1 IEnMin= 1 EnMin= -117.698453854760     IErMin= 1 ErrMin= 3.79D-02
 ErrMax= 3.79D-02  0.00D+00 EMaxC= 1.00D-01 BMatC= 1.04D-01 BMatP= 1.04D-01
 IDIUse=3 WtCom= 6.21D-01 WtEn= 3.79D-01
 Coeff-Com:  0.100D+01
 Coeff-En:   0.100D+01
 Coeff:      0.100D+01
 Gap=     0.220 Goal=   None    Shift=    0.000
 GapD=    0.220 DampG=1.000 DampE=0.500 DampFc=0.5000 IDamp=-1.
 Damping current iteration by 5.00D-01
 RMSDP=8.53D-03 MaxDP=1.44D-01              OVMax= 1.85D-01

 Cycle   2  Pass 0  IDiag  1:
 E= -117.745457096311     Delta-E=       -0.047003241551 Rises=F Damp=T
 DIIS: error= 9.21D-03 at cycle   2 NSaved=   2.
 NSaved= 2 IEnMin= 2 EnMin= -117.745457096311     IErMin= 2 ErrMin= 9.21D-03
 ErrMax= 9.21D-03  0.00D+00 EMaxC= 1.00D-01 BMatC= 5.80D-03 BMatP= 1.04D-01
 IDIUse=3 WtCom= 9.08D-01 WtEn= 9.21D-02
 Coeff-Com:  0.124D+00 0.876D+00
 Coeff-En:   0.213D+00 0.787D+00
 Coeff:      0.132D+00 0.868D+00
 Gap=     0.327 Goal=   None    Shift=    0.000
 RMSDP=3.06D-03 MaxDP=3.52D-02 DE=-4.70D-02 OVMax= 1.13D-01

 Cycle   3  Pass 0  IDiag  1:
 E= -117.818287918459     Delta-E=       -0.072830822148 Rises=F Damp=F
 DIIS: error= 3.26D-03 at cycle   3 NSaved=   3.
 NSaved= 3 IEnMin= 3 EnMin= -117.818287918459     IErMin= 3 ErrMin= 3.26D-03
 ErrMax= 3.26D-03  0.00D+00 EMaxC= 1.00D-01 BMatC= 4.77D-04 BMatP= 5.80D-03
 IDIUse=3 WtCom= 9.67D-01 WtEn= 3.26D-02
 Coeff-Com:  0.147D-02 0.197D+00 0.801D+00
 Coeff-En:   0.000D+00 0.000D+00 0.100D+01
 Coeff:      0.142D-02 0.191D+00 0.808D+00
 Gap=     0.330 Goal=   None    Shift=    0.000
 RMSDP=7.52D-04 MaxDP=1.25D-02 DE=-7.28D-02 OVMax= 6.47D-03

 Cycle   4  Pass 0  IDiag  1:
 E= -117.818712667614     Delta-E=       -0.000424749155 Rises=F Damp=F
 DIIS: error= 3.46D-04 at cycle   4 NSaved=   4.
 NSaved= 4 IEnMin= 4 EnMin= -117.818712667614     IErMin= 4 ErrMin= 3.46D-04
 ErrMax= 3.46D-04  0.00D+00 EMaxC= 1.00D-01 BMatC= 9.48D-06 BMatP= 4.77D-04
 IDIUse=3 WtCom= 9.97D-01 WtEn= 3.46D-03
 Coeff-Com: -0.515D-02 0.601D-02 0.134D+00 0.865D+00
 Coeff-En:   0.000D+00 0.000D+00 0.000D+00 0.100D+01
 Coeff:     -0.513D-02 0.599D-02 0.133D+00 0.866D+00
 Gap=     0.329 Goal=   None    Shift=    0.000
 RMSDP=1.04D-04 MaxDP=1.82D-03 DE=-4.25D-04 OVMax= 8.71D-04

 Cycle   5  Pass 0  IDiag  1:
 E= -117.818722404388     Delta-E=       -0.000009736775 Rises=F Damp=F
 DIIS: error= 1.01D-05 at cycle   5 NSaved=   5.
 NSaved= 5 IEnMin= 5 EnMin= -117.818722404388     IErMin= 5 ErrMin= 1.01D-05
 ErrMax= 1.01D-05  0.00D+00 EMaxC= 1.00D-01 BMatC= 1.43D-08 BMatP= 9.48D-06
 IDIUse=1 WtCom= 1.00D+00 WtEn= 0.00D+00
 Coeff-Com: -0.921D-04-0.960D-03-0.122D-02 0.316D-01 0.971D+00
 Coeff:     -0.921D-04-0.960D-03-0.122D-02 0.316D-01 0.971D+00
 Gap=     0.329 Goal=   None    Shift=    0.000
 RMSDP=6.23D-06 MaxDP=1.00D-04 DE=-9.74D-06 OVMax= 4.74D-05

 Initial convergence to 1.0D-05 achieved.  Increase integral accuracy.
 Cycle   6  Pass 1  IDiag  1:
 E= -117.818724813796     Delta-E=       -0.000002409407 Rises=F Damp=F
 DIIS: error= 2.17D-06 at cycle   1 NSaved=   1.
 NSaved= 1 IEnMin= 1 EnMin= -117.818724813796     IErMin= 1 ErrMin= 2.17D-06
 ErrMax= 2.17D-06  0.00D+00 EMaxC= 1.00D-01 BMatC= 8.84D-10 BMatP= 8.84D-10
 IDIUse=1 WtCom= 1.00D+00 WtEn= 0.00D+00
 Coeff-Com:  0.100D+01
 Coeff:      0.100D+01
 Gap=     0.329 Goal=   None    Shift=    0.000
 RMSDP=6.23D-06 MaxDP=1.00D-04 DE=-2.41D-06 OVMax= 2.34D-05

 Cycle   7  Pass 1  IDiag  1:
 E= -117.818724815774     Delta-E=       -0.000000001978 Rises=F Damp=F
 DIIS: error= 7.60D-07 at cycle   2 NSaved=   2.
 NSaved= 2 IEnMin= 2 EnMin= -117.818724815774     IErMin= 2 ErrMin= 7.60D-07
 ErrMax= 7.60D-07  0.00D+00 EMaxC= 1.00D-01 BMatC= 3.97D-11 BMatP= 8.84D-10
 IDIUse=1 WtCom= 1.00D+00 WtEn= 0.00D+00
 Coeff-Com:  0.140D-01 0.986D+00
 Coeff:      0.140D-01 0.986D+00
 Gap=     0.329 Goal=   None    Shift=    0.000
 RMSDP=3.79D-07 MaxDP=9.92D-06 DE=-1.98D-09 OVMax= 3.21D-06

 Cycle   8  Pass 1  IDiag  1:
 E= -117.818724815776     Delta-E=       -0.000000000002 Rises=F Damp=F
 DIIS: error= 7.50D-07 at cycle   3 NSaved=   3.
 NSaved= 3 IEnMin= 3 EnMin= -117.818724815776     IErMin= 3 ErrMin= 7.50D-07
 ErrMax= 7.50D-07  0.00D+00 EMaxC= 1.00D-01 BMatC= 4.14D-11 BMatP= 3.97D-11
 IDIUse=1 WtCom= 1.00D+00 WtEn= 0.00D+00
 Coeff-Com: -0.316D-01 0.521D+00 0.511D+00
 Coeff:     -0.316D-01 0.521D+00 0.511D+00
 Gap=     0.329 Goal=   None    Shift=    0.000
 RMSDP=7.42D-08 MaxDP=1.54D-06 DE=-2.42D-12 OVMax= 1.85D-06

 Cycle   9  Pass 1  IDiag  1:
 E= -117.818724815819     Delta-E=       -0.000000000043 Rises=F Damp=F
 DIIS: error= 9.33D-08 at cycle   4 NSaved=   4.
 NSaved= 4 IEnMin= 4 EnMin= -117.818724815819     IErMin= 4 ErrMin= 9.33D-08
 ErrMax= 9.33D-08  0.00D+00 EMaxC= 1.00D-01 BMatC= 5.75D-13 BMatP= 3.97D-11
 IDIUse=1 WtCom= 1.00D+00 WtEn= 0.00D+00
 Coeff-Com: -0.113D-01 0.141D+00 0.187D+00 0.683D+00
 Coeff:     -0.113D-01 0.141D+00 0.187D+00 0.683D+00
 Gap=     0.329 Goal=   None    Shift=    0.000
 RMSDP=1.61D-08 MaxDP=3.47D-07 DE=-4.34D-11 OVMax= 2.27D-07

 Cycle  10  Pass 1  IDiag  1:
 E= -117.818724815820     Delta-E=       -0.000000000000 Rises=F Damp=F
 DIIS: error= 8.01D-09 at cycle   5 NSaved=   5.
 NSaved= 5 IEnMin= 5 EnMin= -117.818724815820     IErMin= 5 ErrMin= 8.01D-09
 ErrMax= 8.01D-09  0.00D+00 EMaxC= 1.00D-01 BMatC= 4.35D-15 BMatP= 5.75D-13
 IDIUse=1 WtCom= 1.00D+00 WtEn= 0.00D+00
 Coeff-Com: -0.334D-03 0.597D-03 0.641D-02 0.733D-01 0.920D+00
 Coeff:     -0.334D-03 0.597D-03 0.641D-02 0.733D-01 0.920D+00
 Gap=     0.329 Goal=   None    Shift=    0.000
 RMSDP=2.15D-09 MaxDP=3.33D-08 DE=-3.69D-13 OVMax= 5.74D-08

 SCF Done:  E(RB3LYP) =  -117.818724816     A.U. after   10 cycles
            NFock= 10  Conv=0.22D-08     -V/T= 2.0129
 KE= 1.163135436786D+02 PE=-4.234179637956D+02 EE= 1.132706156681D+02
 Leave Link  502 at Mon Mar 21 20:00:03 2022, MaxMem=  8589934592 cpu:              12.5 elap:               1.6
 (Enter /home/sabyasachi/g16/l801.exe)
 DoSCS=F DFT=T ScalE2(SS,OS)=  1.000000  1.000000
 ExpMin= 6.71D-02 ExpMax= 1.24D+03 ExpMxC= 1.86D+02 IAcc=3 IRadAn=         5 AccDes= 0.00D+00
 HarFok:  IExCor=  205 AccDes= 0.00D+00 IRadAn=         5 IDoV=-2 UseB2=F ITyADJ=14
 ICtDFT= 12500011 ScaDFX=  1.000000  1.000000  1.000000  1.000000
 Largest valence mixing into a core orbital is  7.38D-05
 Largest core mixing into a valence orbital is  1.63D-05
 Range of M.O.s used for correlation:     4   108
 NBasis=   108 NAE=    12 NBE=    12 NFC=     3 NFV=     0
 NROrb=    105 NOA=     9 NOB=     9 NVA=    96 NVB=    96

 **** Warning!!: The largest alpha MO coefficient is  0.36050308D+02

 Leave Link  801 at Mon Mar 21 20:00:03 2022, MaxMem=  8589934592 cpu:               0.5 elap:               0.1
 (Enter /home/sabyasachi/g16/l914.exe)
 RHF ground state
 Keep R1, R2, and R3 ints in memory in symmetry-blocked form, NReq=926497889.
 FoFCou: FMM=F IPFlag=           0 FMFlag=           0 FMFlg1=           0
         NFxFlg=           0 DoJE=F BraDBF=F KetDBF=F FulRan=T
         wScrn=  0.000000 ICntrl=       600 IOpCl=  0 I1Cent=           0 NGrid=           0
         NMat0=    1 NMatS0=   5886 NMatT0=    0 NMatD0=    1 NMtDS0=    0 NMtDT0=    0
 Petite list used in FoFCou.
 MDV=  8589934592 DFT=T DoStab=F Mixed=T DoRPA=T DoScal=F NonHer=T
 Making orbital integer symmetry assigments:
 Orbital symmetries:
       Occupied  (A') (A') (A') (A') (A') (A') (A") (A') (A") (A")
                 (A') (A')
       Virtual   (A') (A') (A') (A") (A') (A') (A") (A") (A') (A')
                 (A') (A') (A") (A") (A") (A') (A') (A') (A') (A")
                 (A') (A") (A") (A") (A') (A') (A') (A') (A') (A')
                 (A') (A") (A") (A') (A") (A") (A") (A') (A') (A')
                 (A') (A') (A") (A") (A") (A") (A') (A') (A') (A")
                 (A") (A') (A') (A') (A') (A") (A') (A') (A') (A')
                 (A') (A") (A") (A") (A") (A') (A') (A') (A") (A")
                 (A") (A") (A") (A') (A') (A') (A') (A") (A") (A')
                 (A') (A') (A') (A') (A") (A") (A") (A') (A') (A")
                 (A') (A') (A') (A') (A") (A")
   864 initial guesses have been made.
 Convergence on wavefunction:    0.001000000000000
 Davidson Disk Diagonalization:  ConvIn= 1.00D-03 SkipCon=T Conv= 1.00D-03.
 Max sub-space:  5184 roots to seek:  1728 dimension of matrix:         1728
 *** WARNING: Number of orthogonal guesses is          864
 Iteration     1 Dimension   864 NMult     0 NNew    864
 CISAX will form   864 AO SS matrices at one time.
 NMat=   864 NSing=   864 JSym2X=-1.
 New state      3 was old state      4
 New state      4 was old state      3
 New state      5 was old state      6
 New state      6 was old state      5
 New state     13 was old state     14
 New state     14 was old state     15
 New state     15 was old state     13
 New state     17 was old state     19
 New state     18 was old state     20
 New state     19 was old state     17
 New state     20 was old state     18
 New state     21 was old state     22
 New state     22 was old state     23
 New state     23 was old state     21
 New state     25 was old state     26
 New state     26 was old state     25
 New state     27 was old state     28
 New state     28 was old state     29
 New state     29 was old state     30
 New state     30 was old state     27
 New state     31 was old state     35
 New state     32 was old state     36
 New state     33 was old state     32
 New state     34 was old state     31
 New state     35 was old state     33
 New state     36 was old state     34
 New state     40 was old state     41
 New state     41 was old state     40
 New state     42 was old state     43
 New state     43 was old state     42
 New state     44 was old state     46
 New state     45 was old state     44
 New state     46 was old state     47
 New state     47 was old state     48
 New state     48 was old state     49
 New state     49 was old state     54
 New state     52 was old state     55
 New state     54 was old state     52
 New state     55 was old state     56
 New state     56 was old state     45
 New state     62 was old state     63
 New state     63 was old state     68
 New state     64 was old state     65
 New state     65 was old state     66
 New state     66 was old state     64
 New state     67 was old state     62
 New state     68 was old state     67
 New state     69 was old state     70
 New state     70 was old state     69
 New state     71 was old state     78
 New state     74 was old state     71
 New state     75 was old state     74
 New state     76 was old state     75
 New state     78 was old state     76
 New state     79 was old state     86
 New state     80 was old state     79
 New state     81 was old state     80
 New state     82 was old state     81
 New state     83 was old state     82
 New state     84 was old state     83
 New state     85 was old state     89
 New state     86 was old state     90
 New state     87 was old state     84
 New state     88 was old state     85
 New state     89 was old state     87
 New state     90 was old state     88
 New state     91 was old state     93
 New state     92 was old state     94
 New state     93 was old state     95
 New state     94 was old state     96
 New state     95 was old state     97
 New state     96 was old state     98
 New state     97 was old state    100
 New state     98 was old state    101
 New state     99 was old state    102
 New state    100 was old state    107
 New state    101 was old state    108
 New state    102 was old state     99
 New state    103 was old state    109
 New state    104 was old state    110
 New state    105 was old state    104
 New state    106 was old state    103
 New state    107 was old state    105
 New state    108 was old state    106
 New state    109 was old state    129
 New state    110 was old state    128
 New state    116 was old state    117
 New state    117 was old state    130
 New state    118 was old state    116
 New state    119 was old state    118
 New state    120 was old state    122
 New state    121 was old state    119
 New state    122 was old state    125
 New state    123 was old state    126
 New state    124 was old state    131
 New state    125 was old state    120
 New state    126 was old state    121
 New state    127 was old state    123
 New state    128 was old state    124
 New state    129 was old state    127
 New state    130 was old state    138
 New state    131 was old state    139
 New state    136 was old state    137
 New state    137 was old state    136
 New state    138 was old state    141
 New state    139 was old state    146
 New state    140 was old state    145
 New state    141 was old state    140
 New state    142 was old state    144
 New state    143 was old state    151
 New state    144 was old state    143
 New state    145 was old state    142
 New state    146 was old state    154
 New state    147 was old state    152
 New state    148 was old state    147
 New state    149 was old state    148
 New state    151 was old state    149
 New state    152 was old state    159
 New state    153 was old state    160
 New state    154 was old state    153
 New state    157 was old state    174
 New state    158 was old state    173
 New state    159 was old state    158
 New state    160 was old state    157
 New state    161 was old state    162
 New state    162 was old state    163
 New state    163 was old state    161
 New state    164 was old state    167
 New state    165 was old state    164
 New state    166 was old state    169
 New state    167 was old state    171
 New state    168 was old state    170
 New state    169 was old state    166
 New state    170 was old state    165
 New state    171 was old state    172
 New state    172 was old state    168
 New state    173 was old state    175
 New state    174 was old state    176
 New state    175 was old state    224
 New state    176 was old state    223
 New state    177 was old state    181
 New state    178 was old state    182
 New state    179 was old state    177
 New state    180 was old state    178
 New state    181 was old state    179
 New state    182 was old state    180
 New state    183 was old state    191
 New state    184 was old state    190
 New state    185 was old state    187
 New state    186 was old state    194
 New state    187 was old state    193
 New state    188 was old state    195
 New state    189 was old state    183
 New state    190 was old state    185
 New state    191 was old state    186
 New state    192 was old state    188
 New state    193 was old state    189
 New state    194 was old state    205
 New state    195 was old state    184
 New state    196 was old state    202
 New state    197 was old state    203
 New state    198 was old state    207
 New state    202 was old state    212
 New state    203 was old state    197
 New state    204 was old state    196
 New state    205 was old state    210
 New state    206 was old state    211
 New state    207 was old state    214
 New state    209 was old state    206
 New state    210 was old state    209
 New state    211 was old state    204
 New state    212 was old state    213
 New state    213 was old state    217
 New state    214 was old state    218
 New state    215 was old state    219
 New state    216 was old state    215
 New state    217 was old state    216
 New state    218 was old state    222
 New state    219 was old state    221
 New state    221 was old state    192
 New state    222 was old state    230
 New state    223 was old state    225
 New state    224 was old state    226
 New state    225 was old state    234
 New state    226 was old state    232
 New state    227 was old state    231
 New state    228 was old state    229
 New state    229 was old state    244
 New state    230 was old state    237
 New state    231 was old state    238
 New state    232 was old state    227
 New state    233 was old state    228
 New state    234 was old state    235
 New state    235 was old state    233
 New state    237 was old state    239
 New state    238 was old state    241
 New state    239 was old state    247
 New state    240 was old state    248
 New state    241 was old state    242
 New state    242 was old state    243
 New state    243 was old state    249
 New state    244 was old state    245
 New state    245 was old state    246
 New state    246 was old state    252
 New state    247 was old state    250
 New state    248 was old state    240
 New state    249 was old state    253
 New state    250 was old state    254
 New state    251 was old state    256
 New state    252 was old state    255
 New state    253 was old state    257
 New state    254 was old state    258
 New state    255 was old state    251
 New state    256 was old state    259
 New state    257 was old state    260
 New state    258 was old state    262
 New state    259 was old state    261
 New state    260 was old state    264
 New state    261 was old state    263
 New state    262 was old state    267
 New state    263 was old state    268
 New state    264 was old state    265
 New state    265 was old state    266
 New state    266 was old state    270
 New state    267 was old state    280
 New state    268 was old state    281
 New state    269 was old state    273
 New state    270 was old state    271
 New state    271 was old state    272
 New state    272 was old state    269
 New state    273 was old state    278
 New state    274 was old state    279
 New state    275 was old state    276
 New state    276 was old state    277
 New state    277 was old state    274
 New state    278 was old state    275
 New state    279 was old state    282
 New state    280 was old state    283
 New state    281 was old state    284
 New state    282 was old state    285
 New state    283 was old state    288
 New state    284 was old state    287
 New state    285 was old state    289
 New state    286 was old state    290
 New state    287 was old state    299
 New state    288 was old state    300
 New state    289 was old state    292
 New state    290 was old state    291
 No map to state    291
 New state    292 was old state    293
 New state    293 was old state    286
 New state    294 was old state    298
 New state    297 was old state    294
 New state    298 was old state    307
 New state    299 was old state    308
 New state    300 was old state    297
 New state    304 was old state    313
 New state    305 was old state    314
 New state    306 was old state    311
 New state    307 was old state    312
 New state    308 was old state    309
 New state    309 was old state    310
 New state    310 was old state    316
 New state    311 was old state    317
 New state    312 was old state    318
 New state    313 was old state    315
 New state    314 was old state    321
 New state    315 was old state    322
 New state    316 was old state    320
 New state    317 was old state    319
 New state    318 was old state    329
 New state    319 was old state    304
 New state    320 was old state    325
 New state    321 was old state    323
 New state    322 was old state    324
 New state    323 was old state    327
 New state    324 was old state    334
 New state    325 was old state    335
 New state    326 was old state    330
 New state    327 was old state    331
 New state    328 was old state    332
 New state    329 was old state    333
 New state    330 was old state    351
 New state    331 was old state    350
 New state    332 was old state    326
 New state    333 was old state    336
 New state    334 was old state    337
 New state    335 was old state    328
 New state    336 was old state    347
 New state    337 was old state    346
 New state    340 was old state    342
 New state    341 was old state    343
 New state    342 was old state    340
 New state    343 was old state    341
 No map to state    344
 No map to state    345
 New state    346 was old state    344
 New state    347 was old state    345
 New state    350 was old state    352
 New state    351 was old state    361
 New state    352 was old state    359
 New state    355 was old state    357
 New state    356 was old state    355
 New state    357 was old state    358
 New state    358 was old state    356
 New state    359 was old state    362
 No map to state    361
 No map to state    362
 New state    367 was old state    373
 New state    368 was old state    374
 New state    369 was old state    367
 New state    370 was old state    368
 New state    371 was old state    381
 New state    372 was old state    369
 New state    373 was old state    370
 New state    374 was old state    371
 New state    375 was old state    372
 New state    376 was old state    375
 New state    377 was old state    376
 New state    379 was old state    377
 New state    380 was old state    383
 New state    381 was old state    384
 New state    382 was old state    379
 New state    383 was old state    380
 New state    384 was old state    386
 New state    385 was old state    382
 New state    386 was old state    385
 New state    388 was old state    390
 New state    389 was old state    388
 New state    390 was old state    393
 New state    392 was old state    389
 New state    393 was old state    392
 New state    394 was old state    395
 New state    395 was old state    396
 New state    396 was old state    394
 New state    399 was old state    401
 New state    400 was old state    402
 New state    401 was old state    404
 New state    402 was old state    403
 New state    403 was old state    399
 New state    404 was old state    400
 New state    408 was old state    412
 New state    409 was old state    413
 New state    410 was old state    409
 New state    411 was old state    408
 New state    412 was old state    425
 New state    413 was old state    410
 New state    414 was old state    411
 New state    415 was old state    426
 New state    416 was old state    428
 New state    417 was old state    427
 New state    418 was old state    420
 New state    419 was old state    421
 New state    420 was old state    418
 New state    421 was old state    419
 New state    422 was old state    417
 New state    423 was old state    422
 New state    424 was old state    423
 New state    425 was old state    429
 New state    426 was old state    430
 New state    427 was old state    424
 New state    428 was old state    431
 New state    429 was old state    432
 New state    430 was old state    450
 New state    431 was old state    451
 New state    432 was old state    434
 New state    433 was old state    435
 New state    434 was old state    440
 New state    435 was old state    441
 New state    436 was old state    433
 New state    437 was old state    444
 New state    440 was old state    416
 New state    441 was old state    437
 New state    442 was old state    436
 New state    443 was old state    442
 New state    444 was old state    443
 New state    446 was old state    447
 New state    447 was old state    446
 New state    450 was old state    452
 New state    451 was old state    453
 New state    452 was old state    462
 New state    453 was old state    461
 New state    461 was old state    472
 New state    462 was old state    473
 New state    465 was old state    468
 New state    466 was old state    465
 New state    467 was old state    466
 New state    468 was old state    469
 New state    469 was old state    467
 New state    470 was old state    471
 New state    471 was old state    470
 New state    472 was old state    474
 New state    473 was old state    475
 New state    474 was old state    476
 New state    475 was old state    477
 New state    476 was old state    480
 New state    477 was old state    478
 New state    478 was old state    479
 New state    479 was old state    489
 New state    480 was old state    490
 New state    481 was old state    491
 New state    482 was old state    485
 New state    483 was old state    486
 New state    484 was old state    487
 New state    485 was old state    482
 New state    486 was old state    484
 New state    487 was old state    488
 New state    488 was old state    481
 New state    489 was old state    498
 New state    490 was old state    499
 New state    491 was old state    483
 New state    494 was old state    495
 New state    495 was old state    494
 New state    498 was old state    506
 New state    499 was old state    502
 New state    502 was old state    505
 New state    505 was old state    509
 New state    506 was old state    508
 New state    507 was old state    510
 New state    508 was old state    511
 New state    509 was old state    524
 New state    510 was old state    526
 New state    511 was old state    507
 New state    514 was old state    515
 New state    515 was old state    514
 New state    520 was old state    521
 New state    521 was old state    522
 New state    522 was old state    520
 New state    524 was old state    534
 No map to state    526
 New state    529 was old state    532
 New state    530 was old state    533
 New state    531 was old state    530
 New state    532 was old state    529
 New state    533 was old state    531
 New state    534 was old state    536
 New state    536 was old state    537
 New state    537 was old state    540
 New state    538 was old state    541
 New state    539 was old state    538
 New state    540 was old state    539
 New state    541 was old state    549
 New state    549 was old state    551
 New state    550 was old state    556
 New state    551 was old state    554
 New state    552 was old state    555
 New state    553 was old state    557
 New state    554 was old state    559
 New state    555 was old state    550
 New state    556 was old state    552
 New state    557 was old state    553
 No map to state    558
 New state    559 was old state    558
 New state    560 was old state    562
 New state    561 was old state    560
 New state    562 was old state    561
 New state    563 was old state    564
 New state    564 was old state    563
 New state    565 was old state    566
 New state    566 was old state    565
 New state    567 was old state    571
 New state    568 was old state    572
 New state    569 was old state    567
 New state    570 was old state    568
 New state    571 was old state    570
 New state    572 was old state    569
 New state    574 was old state    576
 New state    575 was old state    574
 New state    576 was old state    575
 New state    579 was old state    580
 New state    580 was old state    581
 New state    581 was old state    579
 New state    582 was old state    583
 New state    583 was old state    584
 New state    584 was old state    585
 New state    585 was old state    586
 New state    586 was old state    582
 New state    592 was old state    594
 New state    593 was old state    595
 New state    594 was old state    592
 New state    595 was old state    593
 New state    598 was old state    599
 New state    599 was old state    598
 New state    602 was old state    610
 New state    603 was old state    613
 New state    604 was old state    611
 New state    605 was old state    614
 New state    606 was old state    615
 New state    607 was old state    609
 New state    608 was old state    604
 New state    609 was old state    605
 New state    610 was old state    608
 New state    611 was old state    602
 New state    612 was old state    603
 New state    613 was old state    612
 New state    614 was old state    607
 New state    615 was old state    606
 New state    620 was old state    621
 New state    621 was old state    620
 New state    623 was old state    624
 New state    624 was old state    623
 New state    626 was old state    628
 New state    627 was old state    626
 New state    628 was old state    627
 New state    629 was old state    631
 New state    630 was old state    629
 New state    631 was old state    630
 New state    632 was old state    633
 New state    633 was old state    632
 New state    635 was old state    637
 New state    636 was old state    635
 New state    637 was old state    636
 New state    643 was old state    645
 New state    644 was old state    643
 New state    645 was old state    648
 New state    646 was old state    649
 New state    647 was old state    644
 New state    648 was old state    646
 New state    649 was old state    647
 New state    652 was old state    654
 New state    653 was old state    655
 New state    654 was old state    656
 New state    655 was old state    657
 New state    656 was old state    652
 New state    657 was old state    653
 New state    658 was old state    659
 New state    659 was old state    660
 New state    660 was old state    661
 New state    661 was old state    658
 New state    670 was old state    677
 New state    671 was old state    678
 New state    672 was old state    670
 New state    673 was old state    672
 New state    675 was old state    673
 New state    676 was old state    680
 New state    677 was old state    679
 New state    678 was old state    671
 New state    679 was old state    676
 New state    680 was old state    675
 New state    683 was old state    685
 New state    684 was old state    683
 New state    685 was old state    684
 New state    687 was old state    688
 New state    688 was old state    687
 New state    692 was old state    693
 New state    693 was old state    694
 New state    694 was old state    692
 New state    696 was old state    697
 New state    697 was old state    698
 New state    698 was old state    696
 New state    704 was old state    706
 New state    705 was old state    707
 New state    706 was old state    704
 New state    707 was old state    705
 New state    716 was old state    717
 New state    717 was old state    716
 New state    720 was old state    722
 New state    721 was old state    720
 New state    722 was old state    721
 New state    723 was old state    725
 New state    724 was old state    723
 New state    725 was old state    724
 New state    726 was old state    727
 New state    727 was old state    726
 New state    728 was old state    730
 New state    729 was old state    731
 New state    730 was old state    733
 New state    731 was old state    728
 New state    732 was old state    729
 New state    733 was old state    732
 New state    735 was old state    737
 New state    736 was old state    735
 New state    737 was old state    736
 New state    740 was old state    742
 New state    741 was old state    740
 New state    742 was old state    741
 New state    751 was old state    752
 New state    752 was old state    753
 New state    753 was old state    751
 New state    762 was old state    766
 New state    763 was old state    767
 New state    764 was old state    762
 New state    765 was old state    763
 New state    766 was old state    765
 New state    767 was old state    764
 New state    769 was old state    771
 New state    770 was old state    769
 New state    771 was old state    770
 New state    779 was old state    781
 New state    781 was old state    782
 New state    782 was old state    779
 New state    791 was old state    793
 New state    792 was old state    794
 New state    793 was old state    791
 New state    794 was old state    792
 New state    799 was old state    801
 New state    800 was old state    802
 New state    801 was old state    799
 New state    802 was old state    800
 New state    807 was old state    809
 New state    808 was old state    807
 New state    809 was old state    808
 New state    810 was old state    812
 New state    811 was old state    810
 New state    812 was old state    811
 New state    813 was old state    814
 New state    814 was old state    815
 New state    815 was old state    813
 New state    817 was old state    818
 New state    818 was old state    817
 New state    819 was old state    820
 New state    820 was old state    819
 New state    821 was old state    823
 New state    822 was old state    821
 New state    823 was old state    822
 New state    831 was old state    832
 New state    832 was old state    831
 New state    833 was old state    835
 New state    834 was old state    836
 New state    835 was old state    837
 New state    836 was old state    833
 New state    837 was old state    834
 New state    842 was old state    843
 New state    843 was old state    842
 New state    847 was old state    849
 New state    848 was old state    847
 New state    849 was old state    848
 New state    852 was old state    855
 New state    853 was old state    852
 New state    854 was old state    853
 New state    855 was old state    854
 New state    859 was old state    860
 New state    860 was old state    859
 Excitation Energies [eV] at current iteration:
 Root      1 :     7.903134212546218
 Root      2 :     7.903311335949336
 Root      3 :     8.510813404800828
 Root      4 :     8.579246289550346
 Root      5 :     8.614077721113572
 Root      6 :     8.614082202381763
 Root      7 :     8.715690851901551
 Root      8 :     8.715872676977108
 Root      9 :     9.669671545006260
 Root     10 :     9.669776592894639
 Root     11 :     9.991291716263262
 Root     12 :     9.991464386307527
 Root     13 :    10.357014356507980
 Root     14 :    10.360988587456110
 Root     15 :    10.360994001069380
 Root     16 :    10.388189546217220
 Root     17 :    10.711234358606100
 Root     18 :    10.711341284612220
 Root     19 :    10.863440794498650
 Root     20 :    10.863561476795170
 Root     21 :    10.884712033759280
 Root     22 :    10.974045400174150
 Root     23 :    10.974049474775100
 Root     24 :    11.016905587264330
 Root     25 :    11.540392311672460
 Root     26 :    11.540400495107010
 Root     27 :    11.544635954423510
 Root     28 :    11.808030036824960
 Root     29 :    11.808112335687270
 Root     30 :    11.866291070707310
 Root     31 :    11.977122020564020
 Root     32 :    11.977212646797120
 Root     33 :    12.184091161059290
 Root     34 :    12.307047313436670
 Root     35 :    12.347436414323360
 Root     36 :    12.347440716947800
 Root     37 :    12.365958010401390
 Root     38 :    12.366127992020220
 Root     39 :    12.606045536146140
 Root     40 :    12.633459525378530
 Root     41 :    12.633462071009800
 Root     42 :    12.706242094908880
 Root     43 :    12.739182013257940
 Root     44 :    12.891764493089420
 Root     45 :    12.891772527704090
 Root     46 :    12.909387872009500
 Root     47 :    13.118618274590760
 Root     48 :    13.118735768589880
 Root     49 :    13.244194337984280
 Root     50 :    13.287524869670340
 Root     51 :    13.287593397556210
 Root     52 :    13.309292786625860
 Root     53 :    13.309303681214630
 Root     54 :    13.326596302769240
 Root     55 :    13.383098464329800
 Root     56 :    13.388866894397050
 Root     57 :    13.463881196835470
 Root     58 :    13.979954115419750
 Root     59 :    13.979989595926560
 Root     60 :    14.119146510060850
 Root     61 :    14.119155292462530
 Root     62 :    14.188919137330900
 Root     63 :    14.329563698851090
 Root     64 :    14.364253336275920
 Root     65 :    14.364353283980040
 Root     66 :    14.443673075888640
 Root     67 :    14.487080682256150
 Root     68 :    14.608962687806010
 Root     69 :    14.665497173341170
 Root     70 :    14.665507513581540
 Root     71 :    14.673598882451490
 Root     72 :    14.838842446105930
 Root     73 :    14.838927790297170
 Root     74 :    14.937436971275200
 Root     75 :    15.088025233270330
 Root     76 :    15.161363553236950
 Root     77 :    15.315948211880180
 Root     78 :    15.315953353769920
 Root     79 :    15.471760792487170
 Root     80 :    15.597520555231460
 Root     81 :    15.598356656432790
 Root     82 :    15.598406085088550
 Root     83 :    15.643508393783030
 Root     84 :    15.643682288943830
 Root     85 :    15.814557099013070
 Root     86 :    15.814694732385050
 Root     87 :    16.058175132048890
 Root     88 :    16.058242877401440
 Root     89 :    16.104999794912820
 Root     90 :    16.105177594753210
 Root     91 :    16.192156360031710
 Root     92 :    16.192335875701200
 Root     93 :    16.316898825051210
 Root     94 :    16.316914544798840
 Root     95 :    16.563884291535680
 Root     96 :    16.563889137825080
 Root     97 :    16.602737017016630
 Root     98 :    16.721715901144330
 Root     99 :    16.721779540166170
 Root    100 :    16.805306416003570
 Root    101 :    16.805314065367790
 Root    102 :    16.846092523291330
 Root    103 :    16.884920658774110
 Root    104 :    16.884971071117950
 Root    105 :    16.894829606822500
 Root    106 :    16.909323198072160
 Root    107 :    16.946241186691820
 Root    108 :    16.946255679525600
 Root    109 :    17.088551175673630
 Root    110 :    17.088579788912590
 Root    111 :    17.163229537925850
 Root    112 :    17.315043880085770
 Root    113 :    17.315078655639020
 Root    114 :    17.434237214476270
 Root    115 :    17.434319516230570
 Root    116 :    17.494209070301850
 Root    117 :    17.517145780100580
 Root    118 :    17.560810326901630
 Root    119 :    17.560812539578930
 Root    120 :    17.622275304696070
 Root    121 :    17.622549299981030
 Root    122 :    17.652827055310520
 Root    123 :    17.652903174762100
 Root    124 :    17.754728162091650
 Root    125 :    17.772805611917360
 Root    126 :    17.772837812309310
 Root    127 :    17.828580198474820
 Root    128 :    17.828655845770220
 Root    129 :    17.910583098093580
 Root    130 :    17.947374751204680
 Root    131 :    17.947424426287160
 Root    132 :    18.006839788985030
 Root    133 :    18.006922667033610
 Root    134 :    18.059053708478300
 Root    135 :    18.059079357688940
 Root    136 :    18.106418430996920
 Root    137 :    18.106496087219760
 Root    138 :    18.108052504768690
 Root    139 :    18.205981062830350
 Root    140 :    18.206049014697310
 Root    141 :    18.278191325022860
 Root    142 :    18.323181554574890
 Root    143 :    18.379906787476350
 Root    144 :    18.406146935378750
 Root    145 :    18.406161891736280
 Root    146 :    18.491362721318080
 Root    147 :    18.491368654923860
 Root    148 :    18.589878901079190
 Root    149 :    18.598116677793160
 Root    150 :    18.614894462372410
 Root    151 :    18.614965829468350
 Root    152 :    18.680981160844550
 Root    153 :    18.681031989213340
 Root    154 :    18.693733950447580
 Root    155 :    19.047681515963200
 Root    156 :    19.047682668212720
 Root    157 :    19.060200475409050
 Root    158 :    19.060318407468750
 Root    159 :    19.084805478772040
 Root    160 :    19.085558277337570
 Root    161 :    19.306476666017900
 Root    162 :    19.368446105463260
 Root    163 :    19.368450973182700
 Root    164 :    19.411396604794880
 Root    165 :    19.501441078741650
 Root    166 :    19.519099159301580
 Root    167 :    19.519108187251890
 Root    168 :    19.558975477044660
 Root    169 :    19.605953782812070
 Root    170 :    19.605964129543130
 Root    171 :    19.670769689598810
 Root    172 :    19.696245930101250
 Root    173 :    19.841809621729720
 Root    174 :    19.841878579140380
 Root    175 :    19.878037426600090
 Root    176 :    19.878042740461650
 Root    177 :    19.951161943507220
 Root    178 :    19.951259353929990
 Root    179 :    19.995785222345320
 Root    180 :    20.032146536153250
 Root    181 :    20.060602422592020
 Root    182 :    20.060623136981320
 Root    183 :    20.224413395035710
 Root    184 :    20.224444583421630
 Root    185 :    20.236401923332320
 Root    186 :    20.238053514769920
 Root    187 :    20.299373378244270
 Root    188 :    20.343412760824740
 Root    189 :    20.347808823076030
 Root    190 :    20.349631365490290
 Root    191 :    20.349635014005660
 Root    192 :    20.388179423987220
 Root    193 :    20.388203830785390
 Root    194 :    20.422722608196330
 Root    195 :    20.456421422759850
 Root    196 :    20.472311779142460
 Root    197 :    20.472324182846870
 Root    198 :    20.506755544242420
 Root    199 :    20.515967606285510
 Root    200 :    20.542766197097900
 Root    201 :    20.542779206633820
 Root    202 :    20.588235888424850
 Root    203 :    20.625934223848290
 Root    204 :    20.625994939913060
 Root    205 :    20.652945946047810
 Root    206 :    20.653017764635660
 Root    207 :    20.749707384719710
 Root    208 :    20.772094010395430
 Root    209 :    20.772111429551550
 Root    210 :    20.792179623942900
 Root    211 :    20.826683615719600
 Root    212 :    20.885977720746940
 Root    213 :    20.977107026915320
 Root    214 :    20.977138850012860
 Root    215 :    21.047252809546520
 Root    216 :    21.086934399899450
 Root    217 :    21.086986857083620
 Root    218 :    21.175313184474080
 Root    219 :    21.241282283037330
 Root    220 :    21.449574216033780
 Root    221 :    21.567707568965080
 Root    222 :    21.802299001198770
 Root    223 :    21.944737666435410
 Root    224 :    21.944887530527310
 Root    225 :    21.955226592321170
 Root    226 :    21.964806763101800
 Root    227 :    21.964912299332800
 Root    228 :    22.093273915358430
 Root    229 :    22.164038492597710
 Root    230 :    22.192164201189480
 Root    231 :    22.192212406892750
 Root    232 :    22.192901492697260
 Root    233 :    22.192993056390930
 Root    234 :    22.333731799313530
 Root    235 :    22.333738510135700
 Root    236 :    22.340735354469830
 Root    237 :    22.697865334937330
 Root    238 :    22.697872146223940
 Root    239 :    22.730652938628730
 Root    240 :    22.730813929574350
 Root    241 :    22.752036720130370
 Root    242 :    22.791107305428140
 Root    243 :    22.885362908198540
 Root    244 :    22.898814307879070
 Root    245 :    22.898853647284290
 Root    246 :    23.019402187752870
 Root    247 :    23.019455496283230
 Root    248 :    23.039348471237350
 Root    249 :    23.120797834410890
 Root    250 :    23.120866707084900
 Root    251 :    23.179998332293830
 Root    252 :    23.180011690143890
 Root    253 :    23.215798085384440
 Root    254 :    23.215860084208860
 Root    255 :    23.275860513125880
 Root    256 :    23.296821933328700
 Root    257 :    23.296849538188770
 Root    258 :    23.418249364904980
 Root    259 :    23.567462258963560
 Root    260 :    23.599757567552660
 Root    261 :    23.599768563929400
 Root    262 :    23.634627450594030
 Root    263 :    23.634718356542470
 Root    264 :    23.682155414345530
 Root    265 :    23.682249967772910
 Root    266 :    23.754884226232620
 Root    267 :    23.806828960679200
 Root    268 :    23.806897319914880
 Root    269 :    23.886170391216790
 Root    270 :    23.886224110861760
 Root    271 :    23.921520045184910
 Root    272 :    23.983179969202450
 Root    273 :    24.049364011784100
 Root    274 :    24.049393701498640
 Root    275 :    24.056724172082540
 Root    276 :    24.056792042134500
 Root    277 :    24.112885881074750
 Root    278 :    24.112952336998630
 Root    279 :    24.281956596330700
 Root    280 :    24.282034107061240
 Root    281 :    24.330134255659150
 Root    282 :    24.348791530351600
 Root    283 :    24.384233246750350
 Root    284 :    24.384267989470300
 Root    285 :    24.517099160369140
 Root    286 :    24.564640034503730
 Root    287 :    24.655625210846700
 Root    288 :    24.655650313561030
 Root    289 :    24.928876130822160
 Root    290 :    24.928884021164400
 Root    291 :    25.040484301089780
 Root    292 :    25.129967655670970
 Root    293 :    25.148753249674340
 Root    294 :    25.460774780522950
 Root    295 :    25.519773940548230
 Root    296 :    25.564132703337010
 Root    297 :    25.564137109581530
 Root    298 :    25.656479884255790
 Root    299 :    25.656637529685650
 Root    300 :    25.664958412318210
 Root    301 :    25.722776442088390
 Root    302 :    25.722780464432880
 Root    303 :    25.855850371364510
 Root    304 :    25.864335441885050
 Root    305 :    25.864381329457260
 Root    306 :    25.964054389766840
 Root    307 :    25.964082680901570
 Root    308 :    25.980686919671260
 Root    309 :    25.980731695576890
 Root    310 :    26.044460290286810
 Root    311 :    26.072089894917600
 Root    312 :    26.072095399682600
 Root    313 :    26.171081401553240
 Root    314 :    26.267386571963660
 Root    315 :    26.267472062104460
 Root    316 :    26.279353039395890
 Root    317 :    26.279364997165230
 Root    318 :    26.321775047396630
 Root    319 :    26.335642355639440
 Root    320 :    26.348812717102470
 Root    321 :    26.369092997365940
 Root    322 :    26.369122031038220
 Root    323 :    26.512043979535660
 Root    324 :    26.591546102289110
 Root    325 :    26.591568004700360
 Root    326 :    26.638800470054160
 Root    327 :    26.638803705203030
 Root    328 :    26.650879691831570
 Root    329 :    26.690513188190530
 Root    330 :    26.701256887213180
 Root    331 :    26.701349166941300
 Root    332 :    26.751020418932230
 Root    333 :    26.789465081029750
 Root    334 :    26.789504756824680
 Root    335 :    26.895349476533480
 Root    336 :    27.001209572874970
 Root    337 :    27.001306189354950
 Root    338 :    27.217751349399750
 Root    339 :    27.217796704133640
 Root    340 :    27.226635351010450
 Root    341 :    27.226830301627640
 Root    342 :    27.366500869466020
 Root    343 :    27.405246619870440
 Root    344 :    27.443524114591840
 Root    345 :    27.443628671712880
 Root    346 :    27.450113753859930
 Root    347 :    27.450245785140860
 Root    348 :    27.631262323827600
 Root    349 :    27.631300196897720
 Root    350 :    27.994257287658640
 Root    351 :    28.025583408497660
 Root    352 :    28.025697510727970
 Root    353 :    28.132800365906260
 Root    354 :    28.132918880404980
 Root    355 :    28.182359865319390
 Root    356 :    28.421712712558560
 Root    357 :    28.428667451987240
 Root    358 :    28.428703409474720
 Root    359 :    28.877512301667710
 Root    360 :    28.877524898927560
 Root    361 :    28.939224936879480
 Root    362 :    29.008024877303100
 Root    363 :    29.037043720170490
 Root    364 :    29.037135739368810
 Root    365 :    29.280467484313220
 Root    366 :    29.280556220770900
 Root    367 :    29.720092684534720
 Root    368 :    29.720097489590760
 Root    369 :    29.776619668595520
 Root    370 :    29.776713894710440
 Root    371 :    29.806437789979660
 Root    372 :    29.823735340073140
 Root    373 :    29.823827696285250
 Root    374 :    29.954415396929650
 Root    375 :    29.954494923435180
 Root    376 :    30.051200224448510
 Root    377 :    30.108093481799340
 Root    378 :    30.108134970358900
 Root    379 :    30.214176080253880
 Root    380 :    30.309062800515630
 Root    381 :    30.347066437310650
 Root    382 :    30.677933645689300
 Root    383 :    30.677963821486480
 Root    384 :    30.787480585813270
 Root    385 :    30.796115267656010
 Root    386 :    31.060601476964910
 Root    387 :    31.172230201904070
 Root    388 :    31.182471471412490
 Root    389 :    31.339617228853050
 Root    390 :    31.447986782925350
 Root    391 :    31.487430699364190
 Root    392 :    31.487438856902540
 Root    393 :    31.497840352097800
 Root    394 :    31.717324129342820
 Root    395 :    31.717357100391840
 Root    396 :    31.952518266035920
 Root    397 :    32.025693338858510
 Root    398 :    32.135694412399200
 Root    399 :    32.386853631873270
 Root    400 :    32.386893877426000
 Root    401 :    32.408423636902970
 Root    402 :    32.448226304414380
 Root    403 :    32.534714414740380
 Root    404 :    32.534801728424150
 Root    405 :    32.652484983347950
 Root    406 :    32.652576558546820
 Root    407 :    32.827837196992730
 Root    408 :    32.982963054818870
 Root    409 :    32.983097698207120
 Root    410 :    33.047065859208510
 Root    411 :    33.084807635378450
 Root    412 :    33.184353901744790
 Root    413 :    33.278635059703500
 Root    414 :    33.278692657432390
 Root    415 :    33.340119220418640
 Root    416 :    33.340165401690550
 Root    417 :    33.468793934455760
 Root    418 :    33.528239270021330
 Root    419 :    33.528339939128410
 Root    420 :    33.535806508993340
 Root    421 :    33.535816284789830
 Root    422 :    33.561978161880160
 Root    423 :    33.705300522076150
 Root    424 :    33.705378723670000
 Root    425 :    33.782671375217700
 Root    426 :    33.782816224310440
 Root    427 :    33.912783182145760
 Root    428 :    34.392805978469130
 Root    429 :    34.392882892257720
 Root    430 :    34.525832343210410
 Root    431 :    34.525917059013170
 Root    432 :    34.653195542883250
 Root    433 :    34.653237490397000
 Root    434 :    34.873231281057570
 Root    435 :    34.873402023727700
 Root    436 :    34.935796584434360
 Root    437 :    35.150777191306710
 Root    438 :    35.184793193568890
 Root    439 :    35.184844986222610
 Root    440 :    35.216125696110150
 Root    441 :    35.224572806519180
 Root    442 :    35.224583044760900
 Root    443 :    35.301352129143720
 Root    444 :    35.301410260002790
 Root    445 :    35.442613533017730
 Root    446 :    35.442655101658490
 Root    447 :    35.570047849547150
 Root    448 :    35.695155571014350
 Root    449 :    35.695250113914450
 Root    450 :    35.798226057445170
 Root    451 :    35.798243814678460
 Root    452 :    36.028902187177690
 Root    453 :    36.028961645528810
 Root    454 :    36.214683821406880
 Root    455 :    36.214751811881980
 Root    456 :    36.952948200505300
 Root    457 :    37.020691849894480
 Root    458 :    37.020837355447880
 Root    459 :    37.129496839863560
 Root    460 :    37.129526940519950
 Root    461 :    37.266178208807940
 Root    462 :    37.266230750124080
 Root    463 :    37.292054929449260
 Root    464 :    37.546757829885120
 Root    465 :    37.764200352384270
 Root    466 :    37.764219868096650
 Root    467 :    37.803413888777150
 Root    468 :    37.941057655571610
 Root    469 :    37.941064171746430
 Root    470 :    37.957485058292550
 Root    471 :    38.092438144963030
 Root    472 :    38.300282476350710
 Root    473 :    38.850476804891970
 Root    474 :    38.869530071684060
 Root    475 :    38.869569834059240
 Root    476 :    39.252686906938230
 Root    477 :    39.316054094674260
 Root    478 :    39.316146588822930
 Root    479 :    39.350701864516110
 Root    480 :    39.350836414981890
 Root    481 :    39.437037969989100
 Root    482 :    39.541713934674530
 Root    483 :    39.541716699272870
 Root    484 :    39.590058235964260
 Root    485 :    39.633155127276310
 Root    486 :    39.633159094816260
 Root    487 :    39.704365812973070
 Root    488 :    39.738599961766550
 Root    489 :    39.775356159701130
 Root    490 :    39.775370679104900
 Root    491 :    39.856673594384950
 Root    492 :    40.569496433597410
 Root    493 :    40.700238950243920
 Root    494 :    40.813306044972120
 Root    495 :    40.986807272598940
 Root    496 :    40.986822856425970
 Root    497 :    41.157465679634210
 Root    498 :    41.157506900961440
 Root    499 :    41.232013967534530
 Root    500 :    41.443915312113480
 Root    501 :    41.444029028266240
 Root    502 :    41.684422445281820
 Root    503 :    41.684450453239450
 Root    504 :    41.708231396445560
 Root    505 :    42.098570888870580
 Root    506 :    42.154634999799680
 Root    507 :    42.296177295304780
 Root    508 :    42.296267763589660
 Root    509 :    42.489852005792830
 Root    510 :    42.855447478764520
 Root    511 :    42.855538308489290
 Root    512 :    42.949999182724490
 Root    513 :    42.950032895341920
 Root    514 :    43.055666068000730
 Root    515 :    43.055806076895590
 Root    516 :    43.089529861586950
 Root    517 :    43.089619528401120
 Root    518 :    43.265534125745110
 Root    519 :    43.265598217122530
 Root    520 :    43.368723370679450
 Root    521 :    43.645059573119110
 Root    522 :    43.645067742167400
 Root    523 :    43.932451581638870
 Root    524 :    44.603784840364680
 Root    525 :    44.796958595105370
 Root    526 :    44.797070659471900
 Root    527 :    45.196588372002590
 Root    528 :    45.590414129835990
 Root    529 :    45.691994864631390
 Root    530 :    45.692138363888680
 Root    531 :    45.701186229109840
 Root    532 :    45.762145989384040
 Root    533 :    45.762364925496860
 Root    534 :    45.850793922756070
 Root    535 :    46.027933643971110
 Root    536 :    46.027940608009100
 Root    537 :    46.333024509335980
 Root    538 :    46.333107636362100
 Root    539 :    46.511188170595210
 Root    540 :    46.511544094664290
 Root    541 :    46.723585039258640
 Root    542 :    47.629368163647940
 Root    543 :    47.629465569418190
 Root    544 :    47.742934967254500
 Root    545 :    48.345691719512540
 Root    546 :    48.345836237766650
 Root    547 :    48.425931417341650
 Root    548 :    48.425979511326740
 Root    549 :    49.006676397534240
 Root    550 :    49.096219531131750
 Root    551 :    49.173582781099780
 Root    552 :    49.173718289449360
 Root    553 :    49.186043788467320
 Root    554 :    49.186066148350180
 Root    555 :    49.207875726496770
 Root    556 :    49.207887986580540
 Root    557 :    49.210759869098450
 Root    558 :    49.220277797773470
 Root    559 :    49.608540309685760
 Root    560 :    49.910290752423070
 Root    561 :    50.064651663985150
 Root    562 :    50.064828295303790
 Root    563 :    51.055654714580760
 Root    564 :    51.211418295045360
 Root    565 :    51.280292069570750
 Root    566 :    51.280322589937440
 Root    567 :    51.332785402811340
 Root    568 :    51.332874885119290
 Root    569 :    51.710523960967170
 Root    570 :    51.710538007519110
 Root    571 :    51.771034073862690
 Root    572 :    51.812747500573920
 Root    573 :    51.973927942686210
 Root    574 :    52.022124224071860
 Root    575 :    52.022211768617830
 Root    576 :    52.312123329281870
 Root    577 :    53.126983232562190
 Root    578 :    53.127095041510500
 Root    579 :    53.485241455936310
 Root    580 :    53.635667415392100
 Root    581 :    53.635736918267320
 Root    582 :    53.682338160180110
 Root    583 :    53.682697404267020
 Root    584 :    53.847043749983830
 Root    585 :    53.847203682606720
 Root    586 :    53.886955598709790
 Root    587 :    54.485098159548790
 Root    588 :    54.724125186337230
 Root    589 :    54.797972618709020
 Root    590 :    54.798426366321780
 Root    591 :    54.896718353750460
 Root    592 :    55.219261676231390
 Root    593 :    55.219393112488450
 Root    594 :    55.331286686055840
 Root    595 :    55.331447393714440
 Root    596 :    55.865123800296270
 Root    597 :    55.865337615347400
 Root    598 :    56.041447810131200
 Root    599 :    56.041499156518970
 Root    600 :    56.574766963804090
 Root    601 :    56.574913196893340
 Root    602 :    56.992883863886840
 Root    603 :    57.126643857333780
 Root    604 :    57.126661106846060
 Root    605 :    57.163294223285100
 Root    606 :    57.163403596931500
 Root    607 :    57.170433269460910
 Root    608 :    57.186859166584290
 Root    609 :    57.186914304563610
 Root    610 :    57.198727827784600
 Root    611 :    57.357715565878770
 Root    612 :    57.357751600898170
 Root    613 :    57.362190823548560
 Root    614 :    57.405727249839540
 Root    615 :    57.405737675300690
 Root    616 :    57.977058075734260
 Root    617 :    57.977111316718410
 Root    618 :    58.497044136693910
 Root    619 :    58.497202862802110
 Root    620 :    58.939896771970730
 Root    621 :    59.065961049038340
 Root    622 :    59.133509171305710
 Root    623 :    59.133525717910890
 Root    624 :    59.218867577294410
 Root    625 :    59.591988770648400
 Root    626 :    59.781795803754780
 Root    627 :    59.846191561009280
 Root    628 :    59.897780842448760
 Root    629 :    59.957820682138930
 Root    630 :    59.996677931441940
 Root    631 :    59.996687437214620
 Root    632 :    60.379299226748140
 Root    633 :    60.575349869842310
 Root    634 :    60.575357616859480
 Root    635 :    60.667062830530680
 Root    636 :    60.742483911318110
 Root    637 :    60.793472009648210
 Root    638 :    61.809412516086070
 Root    639 :    61.809710160163100
 Root    640 :    62.010058192114510
 Root    641 :    62.010171340046400
 Root    642 :    62.143521056139900
 Root    643 :    62.396624560107930
 Root    644 :    62.396631962716360
 Root    645 :    62.519532335743490
 Root    646 :    62.519593220810580
 Root    647 :    62.530405404720690
 Root    648 :    62.615245541769990
 Root    649 :    62.615484237149540
 Root    650 :    62.765679359627930
 Root    651 :    62.765829002926740
 Root    652 :    63.226450618764090
 Root    653 :    63.226481116760790
 Root    654 :    63.294497787933800
 Root    655 :    63.294544646688330
 Root    656 :    63.358151758613980
 Root    657 :    63.358203407142400
 Root    658 :    63.361032568611570
 Root    659 :    63.994982332591810
 Root    660 :    63.995464607536550
 Root    661 :    64.022914145565790
 Root    662 :    64.524081509716040
 Root    663 :    64.524164510962590
 Root    664 :    64.627413607016730
 Root    665 :    64.627524587908750
 Root    666 :    64.660401584681890
 Root    667 :    64.760869366848550
 Root    668 :    64.760910657243030
 Root    669 :    65.038053457633340
 Root    670 :    65.162428137443210
 Root    671 :    65.180592476979090
 Root    672 :    65.240061694329230
 Root    673 :    65.240089622280490
 Root    674 :    65.282664929112260
 Root    675 :    65.282713535942190
 Root    676 :    65.358265831731430
 Root    677 :    65.358283515007880
 Root    678 :    65.371103582458970
 Root    679 :    65.616987180646160
 Root    680 :    65.792082971111450
 Root    681 :    65.949864904284680
 Root    682 :    65.949928193453290
 Root    683 :    66.652685657828240
 Root    684 :    66.721748279347950
 Root    685 :    66.721895995522130
 Root    686 :    66.847945766974760
 Root    687 :    66.847972253969150
 Root    688 :    67.148036855043640
 Root    689 :    67.216454482501420
 Root    690 :    67.280230600170200
 Root    691 :    67.959081147063870
 Root    692 :    68.085593876039170
 Root    693 :    68.085907292574110
 Root    694 :    68.185907748639220
 Root    695 :    68.371403256989960
 Root    696 :    68.371458002014550
 Root    697 :    68.448996576520530
 Root    698 :    68.616926698636050
 Root    699 :    68.890727227912540
 Root    700 :    68.891015513754010
 Root    701 :    69.019767423563920
 Root    702 :    69.712927779110290
 Root    703 :    69.713429414782890
 Root    704 :    70.021368370421700
 Root    705 :    70.021527896783570
 Root    706 :    70.072387979097060
 Root    707 :    70.152857913210140
 Root    708 :    70.367937404869250
 Root    709 :    70.368444603373530
 Root    710 :    70.591583504209480
 Root    711 :    70.591661005301800
 Root    712 :    70.772666096274360
 Root    713 :    70.772784778282100
 Root    714 :    71.341156922414500
 Root    715 :    71.387702754164080
 Root    716 :    71.404021348343280
 Root    717 :    71.404024648068740
 Root    718 :    71.892689065076570
 Root    719 :    71.892865314537870
 Root    720 :    71.986440382334480
 Root    721 :    72.129664568855050
 Root    722 :    72.129953464999730
 Root    723 :    72.158483193616550
 Root    724 :    72.158508251896990
 Root    725 :    72.167249192972460
 Root    726 :    72.784709119924880
 Root    727 :    73.023978686181390
 Root    728 :    73.068670272407390
 Root    729 :    73.182693206602880
 Root    730 :    73.182703087678220
 Root    731 :    73.224969019447780
 Root    732 :    73.224970685954620
 Root    733 :    73.241908440496720
 Root    734 :    73.683567613159110
 Root    735 :    73.844652495747620
 Root    736 :    73.844711429282260
 Root    737 :    73.857295435013510
 Root    738 :    74.866884815658100
 Root    739 :    74.890378090597540
 Root    740 :    74.983150078075540
 Root    741 :    74.983160296214520
 Root    742 :    75.070654193948100
 Root    743 :    75.422091834140250
 Root    744 :    75.422164868815710
 Root    745 :    75.644384625804750
 Root    746 :    76.671035240331610
 Root    747 :    76.671253706828470
 Root    748 :    77.286832376440730
 Root    749 :    77.287068336070790
 Root    750 :    77.346168963087850
 Root    751 :    77.609564995224010
 Root    752 :    77.609849457747760
 Root    753 :    77.674361184173610
 Root    754 :    78.070668199260880
 Root    755 :    78.070825195104920
 Root    756 :    78.251793628356320
 Root    757 :    78.252110672101030
 Root    758 :    78.488960965523160
 Root    759 :    78.489261510946900
 Root    760 :    79.515008051822050
 Root    761 :    79.515178041508720
 Root    762 :    79.783476663975930
 Root    763 :    79.783989975783410
 Root    764 :    79.943487073847560
 Root    765 :    80.039374954724010
 Root    766 :    80.057261602183390
 Root    767 :    80.057289958923950
 Root    768 :    80.928982745954670
 Root    769 :    81.074588428468670
 Root    770 :    81.074612101705640
 Root    771 :    81.176248266075530
 Root    772 :    81.490387036247640
 Root    773 :    81.490491578986540
 Root    774 :    81.522283818574440
 Root    775 :    82.134241332810870
 Root    776 :    82.244083064986950
 Root    777 :    82.244103284796750
 Root    778 :    83.604517274347900
 Root    779 :    83.881178590483530
 Root    780 :    83.881216227898150
 Root    781 :    84.111259090584580
 Root    782 :    84.289461295575690
 Root    783 :    84.428290868466210
 Root    784 :    84.428443130809300
 Root    785 :    84.448594985890990
 Root    786 :    84.448795056607450
 Root    787 :    84.954414623270110
 Root    788 :    85.088799419008620
 Root    789 :    86.183399194847920
 Root    790 :    86.183603712666540
 Root    791 :    86.328046917417990
 Root    792 :    86.328104380849130
 Root    793 :    86.506711896717050
 Root    794 :    86.506784137811710
 Root    795 :    86.715401124386690
 Root    796 :    86.715623851731910
 Root    797 :    86.962498064921050
 Root    798 :    86.962726915067960
 Root    799 :    87.402589261029790
 Root    800 :    87.402697196446010
 Root    801 :    87.441937011121010
 Root    802 :    87.442110389573840
 Root    803 :    87.882497727992430
 Root    804 :    87.882738072215730
 Root    805 :    88.096982785249370
 Root    806 :    88.097163329420160
 Root    807 :    89.086616314794280
 Root    808 :    89.184297128742670
 Root    809 :    89.273723859524180
 Root    810 :    89.454609145469250
 Root    811 :    89.454654410025550
 Root    812 :    89.666126591965420
 Root    813 :    89.781149648211520
 Root    814 :    89.865163598825770
 Root    815 :    90.064237889949710
 Root    816 :    90.073724156227310
 Root    817 :    90.073760661199190
 Root    818 :    90.403009235624410
 Root    819 :    90.869444360019390
 Root    820 :    90.960058450806600
 Root    821 :    91.379707544418820
 Root    822 :    91.379789419865360
 Root    823 :    91.836673081682630
 Root    824 :    91.926253857149860
 Root    825 :    92.439854305240050
 Root    826 :    92.439906409828880
 Root    827 :    92.565147157598520
 Root    828 :    92.565192136307830
[...]
     11   0.000000D+00  0.000000D+00  0.637906D-01 -0.247018D+00 -0.343439D-01
     12   0.000000D+00  0.000000D+00 -0.637929D-01  0.247027D+00  0.343966D-01
     13   0.000000D+00  0.000000D+00  0.271778D-05 -0.124239D-04 -0.130259D-04
     14   0.000000D+00  0.000000D+00  0.247026D+00  0.638045D-01 -0.524069D-01
     15  -0.299537D+00  0.622223D-01  0.000000D+00  0.000000D+00  0.000000D+00
     16   0.622155D-01  0.299494D+00  0.000000D+00  0.000000D+00  0.000000D+00
               796           797           798           799           800 
      1  -0.114632D+03 -0.114623D+03 -0.114623D+03 -0.114607D+03 -0.114607D+03
      2   0.915053D-01 -0.143786D-01  0.980804D-01  0.000000D+00  0.000000D+00
      3   0.215628D-01  0.980786D-01  0.143968D-01  0.000000D+00  0.000000D+00
      4   0.000000D+00  0.000000D+00  0.000000D+00  0.413271D-05  0.000000D+00
      5  -0.283900D+00  0.384350D-01 -0.262203D+00  0.000000D+00  0.000000D+00
      6  -0.669052D-01 -0.262203D+00 -0.384925D-01  0.000000D+00  0.000000D+00
      7   0.000000D+00  0.000000D+00  0.000000D+00 -0.109984D-04 -0.251643D-05
      8   0.000000D+00  0.000000D+00  0.000000D+00  0.470213D-02  0.938768D-01
      9   0.000000D+00  0.000000D+00  0.000000D+00  0.940124D-01 -0.476988D-02
     10  -0.628409D-04 -0.609155D-04 -0.450350D-04  0.000000D+00  0.000000D+00
     11   0.524673D-01 -0.249769D+00  0.464274D+00  0.000000D+00  0.000000D+00
     12  -0.525200D-01  0.249702D+00 -0.464190D+00  0.000000D+00  0.000000D+00
     13   0.119699D-04  0.168179D-04 -0.249316D-04  0.000000D+00  0.000000D+00
     14  -0.342715D-01 -0.464262D+00 -0.249731D+00  0.000000D+00  0.000000D+00
     15   0.000000D+00  0.000000D+00  0.000000D+00  0.108513D+00 -0.563640D-02
     16   0.000000D+00  0.000000D+00  0.000000D+00 -0.527335D-02 -0.107878D+00
               801           802           803           804           805 
      1  -0.114605D+03 -0.114605D+03 -0.114589D+03 -0.114589D+03 -0.114581D+03
      2   0.000000D+00  0.000000D+00  0.000000D+00  0.000000D+00  0.000000D+00
      3   0.000000D+00  0.000000D+00  0.000000D+00  0.000000D+00  0.000000D+00
      4   0.144132D-05 -0.174600D-05 -0.258399D-05  0.124551D-05  0.000000D+00
      5   0.000000D+00  0.000000D+00  0.000000D+00  0.000000D+00  0.000000D+00
      6   0.000000D+00  0.000000D+00  0.000000D+00  0.000000D+00  0.000000D+00
      7  -0.401361D-05  0.504101D-05  0.704441D-05 -0.334595D-05 -0.264819D-05
      8   0.378811D-01  0.127871D-01  0.351874D-02  0.712947D-01  0.334490D+00
      9   0.128119D-01 -0.375387D-01 -0.713040D-01  0.352108D-02 -0.284601D-01
     10   0.000000D+00  0.000000D+00  0.000000D+00  0.000000D+00  0.000000D+00
     11   0.000000D+00  0.000000D+00  0.000000D+00  0.000000D+00  0.000000D+00
     12   0.000000D+00  0.000000D+00  0.000000D+00  0.000000D+00  0.000000D+00
     13   0.000000D+00  0.000000D+00  0.000000D+00  0.000000D+00  0.000000D+00
     14   0.000000D+00  0.000000D+00  0.000000D+00  0.000000D+00  0.000000D+00
     15   0.689713D-01 -0.202923D+00  0.931452D-01 -0.459775D-02  0.408440D-01
     16  -0.203285D+00 -0.689061D-01  0.459695D-02  0.931015D-01  0.480018D+00
               806           807           808           809           810 
      1  -0.114581D+03 -0.114545D+03 -0.114541D+03 -0.114538D+03 -0.114531D+03
      2   0.000000D+00 -0.266451D-04  0.000000D+00  0.129725D-04 -0.986972D-02
      3   0.000000D+00 -0.882896D-04  0.000000D+00  0.534738D-04 -0.839104D-01
      4  -0.165650D-04  0.000000D+00 -0.105163D+00  0.000000D+00  0.000000D+00
      5   0.000000D+00  0.820869D-04  0.000000D+00 -0.421979D-04  0.308522D-01
      6   0.000000D+00  0.275686D-03  0.000000D+00 -0.170982D-03  0.262296D+00
      7   0.450353D-04  0.000000D+00  0.289917D+00  0.000000D+00  0.000000D+00
      8  -0.284574D-01  0.000000D+00  0.000000D+00  0.000000D+00  0.000000D+00
      9  -0.334451D+00  0.000000D+00  0.000000D+00  0.000000D+00  0.000000D+00
     10   0.000000D+00  0.344181D+00  0.000000D+00 -0.102692D+01 -0.117144D-02
     11   0.000000D+00 -0.156390D-04  0.000000D+00  0.368625D-05 -0.436879D-01
     12   0.000000D+00  0.157527D-04  0.000000D+00 -0.383421D-05  0.437010D-01
     13   0.000000D+00  0.000000D+00  0.000000D+00  0.000000D+00 -0.355145D-05
     14   0.000000D+00 -0.102201D-03  0.000000D+00  0.180720D-03 -0.185967D+00
     15   0.479949D+00  0.000000D+00 -0.123578D-04  0.000000D+00  0.000000D+00
     16  -0.408357D-01  0.000000D+00  0.486030D-05  0.000000D+00  0.000000D+00
               811           812           813           814           815 
      1  -0.114531D+03 -0.114524D+03 -0.114519D+03 -0.114516D+03 -0.114509D+03
      2  -0.838886D-01  0.951751D-04  0.000000D+00 -0.116731D-04  0.783474D-04
      3   0.987147D-02 -0.123564D-04  0.000000D+00  0.842089D-05 -0.716306D-04
      4   0.000000D+00  0.000000D+00  0.000000D+00  0.000000D+00  0.000000D+00
      5   0.262237D+00 -0.301100D-03  0.000000D+00  0.257932D-04 -0.127466D-03
      6  -0.308579D-01  0.396624D-04  0.000000D+00 -0.118143D-04  0.121031D-03
      7   0.000000D+00  0.000000D+00  0.000000D+00  0.000000D+00  0.000000D+00
      8   0.000000D+00  0.000000D+00  0.871013D-05  0.000000D+00  0.000000D+00
      9   0.000000D+00  0.000000D+00 -0.545323D-05  0.000000D+00  0.000000D+00
     10  -0.191469D-03  0.000000D+00  0.000000D+00  0.000000D+00  0.000000D+00
     11   0.185672D+00 -0.206990D+00  0.000000D+00  0.102777D+00 -0.606311D+00
     12  -0.186165D+00 -0.206535D+00  0.000000D+00  0.103203D+00 -0.608416D+00
     13   0.347959D-03  0.321380D+00  0.000000D+00  0.313154D+00 -0.288911D+00
     14  -0.436805D-01  0.337537D-04  0.000000D+00 -0.856491D-04  0.398866D-03
     15   0.000000D+00  0.000000D+00  0.265104D-04  0.000000D+00  0.000000D+00
     16   0.000000D+00  0.000000D+00  0.508424D-04  0.000000D+00  0.000000D+00
               816           817           818           819           820 
      1  -0.114509D+03 -0.114509D+03 -0.114496D+03 -0.114479D+03 -0.114476D+03
      2  -0.213585D-01  0.233265D-02 -0.222909D-05  0.000000D+00  0.185518D-05
      3  -0.233255D-02 -0.213760D-01  0.466329D-05  0.000000D+00  0.000000D+00
      4   0.000000D+00  0.000000D+00  0.000000D+00 -0.204550D+00  0.000000D+00
      5   0.357335D-01 -0.390332D-02  0.336078D-05  0.000000D+00 -0.638169D-05
      6   0.390315D-02  0.357759D-01 -0.903505D-05  0.000000D+00 -0.210204D-05
      7   0.000000D+00  0.000000D+00  0.000000D+00  0.572085D+00  0.000000D+00
      8   0.000000D+00  0.000000D+00  0.000000D+00 -0.311074D-04  0.000000D+00
      9   0.000000D+00  0.000000D+00  0.000000D+00 -0.155592D-03  0.000000D+00
     10   0.125347D-03  0.526959D-04 -0.404651D+00  0.000000D+00  0.000000D+00
     11  -0.198781D+00  0.988401D-01 -0.574089D-04  0.000000D+00 -0.301327D+00
     12   0.194464D+00 -0.941970D-01  0.574314D-04  0.000000D+00 -0.301298D+00
     13  -0.117048D-02  0.128619D-02  0.000000D+00  0.000000D+00 -0.424676D-01
     14   0.965750D-01  0.196456D+00  0.122564D-03  0.000000D+00  0.207276D-05
     15   0.000000D+00  0.000000D+00  0.000000D+00  0.189516D-03  0.000000D+00
     16   0.000000D+00  0.000000D+00  0.000000D+00 -0.376214D-04  0.000000D+00
               821           822           823           824           825 
      1  -0.114461D+03 -0.114461D+03 -0.114444D+03 -0.114440D+03 -0.114422D+03
      2   0.000000D+00  0.000000D+00  0.000000D+00  0.000000D+00  0.000000D+00
      3   0.000000D+00  0.000000D+00  0.000000D+00  0.000000D+00  0.000000D+00
      4  -0.118447D-03 -0.110886D-04  0.000000D+00  0.185509D-01 -0.705591D-05
      5   0.000000D+00  0.000000D+00  0.000000D+00  0.000000D+00  0.000000D+00
      6   0.000000D+00  0.000000D+00  0.000000D+00  0.000000D+00  0.000000D+00
      7   0.324309D-03  0.300148D-04  0.000000D+00 -0.151452D-01  0.206959D-04
      8   0.308319D-01  0.297252D+00  0.159595D-03  0.155733D-04  0.161365D+00
      9   0.297270D+00 -0.308279D-01 -0.317944D-04  0.846048D-04  0.838828D-02
     10   0.000000D+00  0.000000D+00  0.000000D+00  0.000000D+00  0.000000D+00
     11   0.000000D+00  0.000000D+00  0.000000D+00  0.000000D+00  0.000000D+00
     12   0.000000D+00  0.000000D+00  0.000000D+00  0.000000D+00  0.000000D+00
     13   0.000000D+00  0.000000D+00  0.000000D+00  0.000000D+00  0.000000D+00
     14   0.000000D+00  0.000000D+00  0.000000D+00  0.000000D+00  0.000000D+00
     15  -0.381732D+00  0.395869D-01  0.433158D-04 -0.121564D-03  0.588301D-02
     16   0.395933D-01  0.381720D+00  0.213258D-03  0.226616D-04 -0.113219D+00
               826           827           828           829           830 
      1  -0.114422D+03 -0.114417D+03 -0.114417D+03 -0.114388D+03 -0.114373D+03
      2   0.000000D+00  0.658743D-01 -0.132919D-02  0.000000D+00  0.000000D+00
      3   0.000000D+00 -0.132868D-02 -0.658716D-01  0.000000D+00  0.000000D+00
      4   0.154580D-04  0.000000D+00  0.000000D+00  0.000000D+00 -0.771128D-04
      5   0.000000D+00 -0.146081D+00  0.294757D-02  0.000000D+00  0.000000D+00
      6   0.000000D+00  0.294648D-02  0.146077D+00  0.000000D+00  0.000000D+00
      7  -0.457542D-04  0.000000D+00  0.000000D+00  0.000000D+00  0.242034D-03
      8   0.838556D-02  0.000000D+00  0.000000D+00  0.314801D-03 -0.281138D-01
      9  -0.161377D+00  0.000000D+00  0.000000D+00 -0.196190D-03 -0.379564D+00
     10   0.000000D+00  0.188521D-04 -0.370944D-04  0.000000D+00  0.000000D+00
     11   0.000000D+00 -0.652805D+00 -0.221955D+00  0.000000D+00  0.000000D+00
     12   0.000000D+00  0.652772D+00  0.221937D+00  0.000000D+00  0.000000D+00
     13   0.000000D+00 -0.400392D-04 -0.181611D-04  0.000000D+00  0.000000D+00
     14   0.000000D+00  0.221918D+00 -0.652844D+00  0.000000D+00  0.000000D+00
     15  -0.113216D+00  0.000000D+00  0.000000D+00  0.270019D-03  0.542874D+00
     16  -0.588556D-02  0.000000D+00  0.000000D+00  0.440021D-03 -0.402123D-01
               831           832           833           834           835 
      1  -0.114373D+03 -0.114363D+03 -0.114361D+03 -0.114361D+03 -0.114354D+03
      2   0.000000D+00  0.000000D+00  0.474175D-02  0.649894D-01  0.000000D+00
      3   0.000000D+00  0.000000D+00  0.649849D-01 -0.474251D-02  0.000000D+00
      4   0.463637D-04 -0.904861D-01  0.000000D+00  0.000000D+00  0.000000D+00
      5   0.000000D+00  0.000000D+00 -0.143409D-01 -0.196539D+00  0.000000D+00
      6   0.000000D+00  0.000000D+00 -0.196537D+00  0.143420D-01  0.000000D+00
      7  -0.145569D-03  0.286369D+00  0.000000D+00  0.000000D+00  0.000000D+00
      8   0.379528D+00  0.197015D-03  0.000000D+00  0.000000D+00  0.403013D-04
      9  -0.281137D-01  0.273590D-03  0.000000D+00  0.000000D+00 -0.216661D-04
     10   0.000000D+00  0.000000D+00 -0.266088D-04 -0.842584D-05  0.000000D+00
     11   0.000000D+00  0.000000D+00  0.585299D-02 -0.207432D-01  0.000000D+00
     12   0.000000D+00  0.000000D+00 -0.586095D-02  0.207616D-01  0.000000D+00
     13   0.000000D+00  0.000000D+00 -0.248045D-05  0.179782D-04  0.000000D+00
     14   0.000000D+00  0.000000D+00  0.207477D-01  0.585399D-02  0.000000D+00
     15   0.402100D-01 -0.402357D-03  0.000000D+00  0.000000D+00  0.262934D-04
     16   0.542855D+00  0.291081D-03  0.000000D+00  0.000000D+00  0.450077D-04
               836           837           838           839           840 
      1  -0.114347D+03 -0.114347D+03 -0.114327D+03 -0.114327D+03 -0.114305D+03
      2  -0.673560D-03 -0.124193D-01  0.000000D+00  0.000000D+00  0.133489D-03
      3  -0.124496D-01  0.668114D-03  0.000000D+00  0.000000D+00 -0.744832D-04
      4   0.000000D+00  0.000000D+00  0.103049D-05 -0.713159D-05  0.000000D+00
      5   0.761397D-03  0.139184D-01  0.000000D+00  0.000000D+00 -0.435617D-03
      6   0.140097D-01 -0.745343D-03  0.000000D+00  0.000000D+00  0.243467D-03
      7   0.000000D+00  0.000000D+00 -0.306307D-05  0.191706D-04  0.000000D+00
      8   0.000000D+00  0.000000D+00 -0.311563D+00  0.232077D-01  0.000000D+00
      9   0.000000D+00  0.000000D+00  0.232081D-01  0.311546D+00  0.000000D+00
     10  -0.158217D-04 -0.644434D-05  0.000000D+00  0.000000D+00  0.000000D+00
     11   0.230034D-03 -0.723915D-03  0.000000D+00  0.000000D+00 -0.747178D+00
     12  -0.232514D-03  0.793335D-03  0.000000D+00  0.000000D+00 -0.748367D+00
     13   0.000000D+00 -0.635984D-05  0.000000D+00  0.000000D+00 -0.119746D+00
     14   0.773517D-03  0.232307D-03  0.000000D+00  0.000000D+00  0.995723D-04
     15   0.000000D+00  0.000000D+00 -0.356270D-01 -0.478265D+00  0.000000D+00
     16   0.000000D+00  0.000000D+00 -0.478279D+00  0.356267D-01  0.000000D+00
               841           842           843           844           845 
      1  -0.114298D+03 -0.114298D+03 -0.114284D+03 -0.114261D+03 -0.114261D+03
      2   0.235263D-02 -0.654582D-01  0.298284D-04  0.487412D-02 -0.145373D-01
      3   0.654585D-01  0.235186D-02  0.411692D-04 -0.145398D-01 -0.487395D-02
      4   0.000000D+00  0.000000D+00  0.000000D+00  0.000000D+00  0.000000D+00
      5  -0.769381D-02  0.214072D+00 -0.977850D-04 -0.206600D-01  0.616220D-01
      6  -0.214070D+00 -0.769144D-02 -0.135475D-03  0.616278D-01  0.206592D-01
      7   0.000000D+00  0.000000D+00  0.000000D+00  0.000000D+00  0.000000D+00
      8   0.000000D+00  0.000000D+00  0.000000D+00  0.000000D+00  0.000000D+00
      9   0.000000D+00  0.000000D+00  0.000000D+00  0.000000D+00  0.000000D+00
     10  -0.108870D-04  0.116143D-04  0.436486D-01 -0.307012D-05 -0.224436D-05
     11  -0.833613D-01 -0.257554D+00  0.558722D-04  0.525169D-01 -0.660811D-01
     12   0.818240D-01  0.254605D+00 -0.558053D-04 -0.524739D-01  0.660258D-01
     13  -0.121352D-03 -0.237548D-03  0.000000D+00 -0.563431D-05  0.954082D-05
     14  -0.256111D+00  0.825810D-01 -0.193420D-03  0.660949D-01  0.524900D-01
     15   0.000000D+00  0.000000D+00  0.000000D+00  0.000000D+00  0.000000D+00
     16   0.000000D+00  0.000000D+00  0.000000D+00  0.000000D+00  0.000000D+00
               846           847           848           849           850 
      1  -0.114241D+03 -0.114232D+03 -0.114232D+03 -0.114220D+03 -0.114201D+03
      2  -0.445732D-04  0.351699D-01 -0.443135D-02 -0.417906D-05  0.000000D+00
      3   0.106241D-04 -0.443124D-02 -0.351648D-01 -0.266848D-04  0.000000D+00
      4   0.000000D+00  0.000000D+00  0.000000D+00  0.000000D+00  0.000000D+00
      5   0.117342D-03 -0.910846D-01  0.114769D-01  0.110430D-04  0.000000D+00
      6  -0.275978D-04  0.114754D-01  0.910683D-01  0.694123D-04  0.000000D+00
      7   0.000000D+00  0.000000D+00  0.000000D+00  0.000000D+00 -0.194089D-05
      8   0.000000D+00  0.000000D+00  0.000000D+00  0.000000D+00 -0.464938D+00
      9   0.000000D+00  0.000000D+00  0.000000D+00  0.000000D+00 -0.528559D-01
     10   0.000000D+00  0.000000D+00 -0.184342D-04  0.217134D-01  0.000000D+00
     11   0.738873D+00  0.367186D+00  0.829514D-01  0.586103D-04  0.000000D+00
     12   0.739945D+00 -0.365239D+00 -0.827515D-01 -0.584759D-04  0.000000D+00
     13  -0.146855D+00 -0.191367D-03 -0.185878D-04  0.000000D+00  0.000000D+00
     14   0.603272D-04 -0.828723D-01  0.366180D+00  0.326048D-03  0.000000D+00
     15   0.000000D+00  0.000000D+00  0.000000D+00  0.000000D+00  0.575598D-01
     16   0.000000D+00  0.000000D+00  0.000000D+00  0.000000D+00 -0.506327D+00
               851           852           853           854           855 
      1  -0.114201D+03 -0.114179D+03 -0.114168D+03 -0.114168D+03 -0.114165D+03
      2   0.000000D+00  0.000000D+00  0.854793D-02 -0.744568D-01  0.000000D+00
      3   0.000000D+00 -0.119517D-05 -0.744541D-01 -0.854764D-02  0.000000D+00
      4   0.000000D+00  0.000000D+00  0.000000D+00  0.000000D+00  0.175899D+00
      5   0.000000D+00  0.000000D+00 -0.266374D-01  0.232027D+00  0.000000D+00
      6   0.000000D+00  0.133585D-05  0.232015D+00  0.266365D-01  0.000000D+00
      7   0.000000D+00  0.000000D+00  0.000000D+00  0.000000D+00 -0.513694D+00
      8  -0.528544D-01  0.000000D+00  0.000000D+00  0.000000D+00 -0.663213D-05
      9   0.464936D+00  0.000000D+00  0.000000D+00  0.000000D+00 -0.237568D-04
     10   0.000000D+00  0.670149D-02 -0.228553D-04 -0.133762D-04  0.000000D+00
     11   0.000000D+00  0.000000D+00  0.810261D-01 -0.162656D+00  0.000000D+00
     12   0.000000D+00  0.000000D+00 -0.810365D-01  0.162670D+00  0.000000D+00
     13   0.000000D+00  0.000000D+00 -0.149317D-05  0.000000D+00  0.000000D+00
     14   0.000000D+00 -0.272148D-04  0.162660D+00  0.810334D-01  0.000000D+00
     15  -0.506325D+00  0.000000D+00  0.000000D+00  0.000000D+00  0.252727D-04
     16  -0.575610D-01  0.000000D+00  0.000000D+00  0.000000D+00 -0.713010D-05
               856           857           858           859           860 
      1  -0.114103D+03 -0.114086D+03 -0.114076D+03 -0.114076D+03 -0.114060D+03
      2   0.529372D-05  0.000000D+00  0.000000D+00  0.000000D+00  0.000000D+00
      3   0.000000D+00  0.000000D+00  0.000000D+00  0.000000D+00  0.000000D+00
      4   0.000000D+00  0.362531D-01  0.270449D-04  0.441686D-04  0.000000D+00
      5  -0.160340D-04  0.000000D+00  0.000000D+00  0.000000D+00  0.000000D+00
      6   0.279486D-05  0.000000D+00  0.000000D+00  0.000000D+00  0.000000D+00
      7   0.000000D+00 -0.976313D-01 -0.733693D-04 -0.119824D-03  0.000000D+00
      8   0.000000D+00  0.130003D-03 -0.177283D+00  0.119589D-02 -0.105356D-03
      9   0.000000D+00  0.216579D-03 -0.119430D-02 -0.177287D+00  0.695168D-04
     10   0.000000D+00  0.000000D+00  0.000000D+00  0.000000D+00  0.000000D+00
     11  -0.219857D-01  0.000000D+00  0.000000D+00  0.000000D+00  0.000000D+00
     12  -0.219878D-01  0.000000D+00  0.000000D+00  0.000000D+00  0.000000D+00
     13   0.121638D+00  0.000000D+00  0.000000D+00  0.000000D+00  0.000000D+00
     14  -0.273220D-05  0.000000D+00  0.000000D+00  0.000000D+00  0.000000D+00
     15   0.000000D+00 -0.204419D-03  0.117383D-02  0.174207D+00 -0.685542D-04
     16   0.000000D+00  0.126167D-03 -0.174186D+00  0.117476D-02 -0.103520D-03
               861           862           863           864 
      1  -0.113990D+03 -0.113990D+03 -0.113832D+03 -0.113832D+03
      2   0.360332D-02  0.485132D-01  0.000000D+00  0.000000D+00
      3   0.485121D-01 -0.360281D-02  0.000000D+00  0.000000D+00
      4   0.000000D+00  0.000000D+00  0.000000D+00 -0.194328D-05
      5  -0.100505D-01 -0.135313D+00  0.000000D+00  0.000000D+00
      6  -0.135307D+00  0.100486D-01  0.000000D+00  0.000000D+00
      7   0.000000D+00  0.000000D+00 -0.181057D-05  0.519421D-05
      8   0.000000D+00  0.000000D+00  0.436017D+00  0.491467D-01
      9   0.000000D+00  0.000000D+00  0.491482D-01 -0.436020D+00
     10   0.143704D-04  0.553784D-05  0.000000D+00  0.000000D+00
     11  -0.290057D-01  0.103300D+00  0.000000D+00  0.000000D+00
     12   0.289993D-01 -0.103280D+00  0.000000D+00  0.000000D+00
     13   0.106216D-05 -0.131234D-04  0.000000D+00  0.000000D+00
     14  -0.103290D+00 -0.290028D-01  0.000000D+00  0.000000D+00
     15   0.000000D+00  0.000000D+00 -0.473869D-01  0.420392D+00
     16   0.000000D+00  0.000000D+00  0.420396D+00  0.473857D-01
 Unable to Open any file for archive entry.
 1\1\GINC-HEL23\SP\RB3LYP TD-FC\Gen\C3H6\SABYASACHI\21-Mar-2022\0\\#P T
 D(Nstates=10000) b3lyp/Gen SCF(maxcycles=100) Int(Grid=ultrafine)\\xGD
 B7_00001_tier4.com\\0,1\C,0,0.516845,0.69483,0.\C,0,-0.860166,0.100195
 ,0.\C,0,0.343308,-0.795021,0.\H,0,0.866514,1.164858,0.909176\H,0,0.866
 513,1.164859,-0.909176\H,0,-1.442047,0.167964,-0.909177\H,0,-1.442048,
 0.167965,0.909176\H,0,0.575574,-1.332837,-0.909179\H,0,0.575574,-1.332
 837,0.909179\\Version=EM64L-G16RevC.01\State=1-A'\HF=-117.8187248\RMSD
 =2.153e-09\PG=CS [SG(C3),X(H6)]\\@
 The archive entry for this job was punched.


  THE LARGE PRINT GIVETH,
  AND THE SMALL PRINT TAKETH AWAY.

                     -- TOM WAITS
 Job cpu time:       0 days  0 hours 10 minutes 56.4 seconds.
 Elapsed time:       0 days  0 hours  1 minutes 22.3 seconds.
 File lengths (MBytes):  RWF=    968 Int=      0 D2E=      0 Chk=    240 Scr=      1
 Normal termination of Gaussian 16 at Mon Mar 21 20:01:23 2022.
