 Entering Gaussian System, Link 0=g16
 Input=000013.com
 Output=000013.log
 Initial command:
 /home/sabyasachi/g16/l1.exe "/scratch/sabyasachi/PBS_7976015.helios/Gau-25415.inp" -scrdir="/scratch/sabyasachi/PBS_7976015.helios/"
 Entering Link 1 = /home/sabyasachi/g16/l1.exe PID=     25416.
  
 Copyright (c) 1988-2019, Gaussian, Inc.  All Rights Reserved.
  
 This is part of the Gaussian(R) 16 program.  It is based on
 the Gaussian(R) 09 system (copyright 2009, Gaussian, Inc.),
 the Gaussian(R) 03 system (copyright 2003, Gaussian, Inc.),
 the Gaussian(R) 98 system (copyright 1998, Gaussian, Inc.),
 the Gaussian(R) 94 system (copyright 1995, Gaussian, Inc.),
 the Gaussian 92(TM) system (copyright 1992, Gaussian, Inc.),
 the Gaussian 90(TM) system (copyright 1990, Gaussian, Inc.),
 the Gaussian 88(TM) system (copyright 1988, Gaussian, Inc.),
 the Gaussian 86(TM) system (copyright 1986, Carnegie Mellon
 University), and the Gaussian 82(TM) system (copyright 1983,
 Carnegie Mellon University). Gaussian is a federally registered
 trademark of Gaussian, Inc.
  
 This software contains proprietary and confidential information,
 including trade secrets, belonging to Gaussian, Inc.
  
 This software is provided under written license and may be
 used, copied, transmitted, or stored only in accord with that
 written license.
  
 The following legend is applicable only to US Government
 contracts under FAR:
  
                    RESTRICTED RIGHTS LEGEND
  
 Use, reproduction and disclosure by the US Government is
 subject to restrictions as set forth in subparagraphs (a)
 and (c) of the Commercial Computer Software - Restricted
 Rights clause in FAR 52.227-19.
  
 Gaussian, Inc.
 340 Quinnipiac St., Bldg. 40, Wallingford CT 06492
  
  
 ---------------------------------------------------------------
 Warning -- This program may not be used in any manner that
 competes with the business of Gaussian, Inc. or will provide
 assistance to any competitor of Gaussian, Inc.  The licensee
 of this program is prohibited from giving any competitor of
 Gaussian, Inc. access to this program.  By using this program,
 the user acknowledges that Gaussian, Inc. is engaged in the
 business of creating and licensing software in the field of
 computational chemistry and represents and warrants to the
 licensee that it is not a competitor of Gaussian, Inc. and that
 it will not use this program in any manner prohibited above.
 ---------------------------------------------------------------
  

 Cite this work as:
 Gaussian 16, Revision C.01,
 M. J. Frisch, G. W. Trucks, H. B. Schlegel, G. E. Scuseria, 
 M. A. Robb, J. R. Cheeseman, G. Scalmani, V. Barone, 
 G. A. Petersson, H. Nakatsuji, X. Li, M. Caricato, A. V. Marenich, 
 J. Bloino, B. G. Janesko, R. Gomperts, B. Mennucci, H. P. Hratchian, 
 J. V. Ortiz, A. F. Izmaylov, J. L. Sonnenberg, D. Williams-Young, 
 F. Ding, F. Lipparini, F. Egidi, J. Goings, B. Peng, A. Petrone, 
 T. Henderson, D. Ranasinghe, V. G. Zakrzewski, J. Gao, N. Rega, 
 G. Zheng, W. Liang, M. Hada, M. Ehara, K. Toyota, R. Fukuda, 
 J. Hasegawa, M. Ishida, T. Nakajima, Y. Honda, O. Kitao, H. Nakai, 
 T. Vreven, K. Throssell, J. A. Montgomery, Jr., J. E. Peralta, 
 F. Ogliaro, M. J. Bearpark, J. J. Heyd, E. N. Brothers, K. N. Kudin, 
 V. N. Staroverov, T. A. Keith, R. Kobayashi, J. Normand, 
 K. Raghavachari, A. P. Rendell, J. C. Burant, S. S. Iyengar, 
 J. Tomasi, M. Cossi, J. M. Millam, M. Klene, C. Adamo, R. Cammi, 
 J. W. Ochterski, R. L. Martin, K. Morokuma, O. Farkas, 
 J. B. Foresman, and D. J. Fox, Gaussian, Inc., Wallingford CT, 2019.
 
 ******************************************
 Gaussian 16:  EM64L-G16RevC.01  3-Jul-2019
                21-Mar-2022 
 ******************************************
 %mem=64gb
 %nproc=8
 Will use up to    8 processors via shared memory.
 ---------------------------------------------------------------------
 #P TD(Nstates=10000) b3lyp/Gen SCF(maxcycles=100) Int(Grid=ultrafine)
 ---------------------------------------------------------------------
 1/38=1,172=1/1;
 2/12=2,17=6,18=5,40=1/2;
 3/5=7,11=9,25=1,30=1,74=-5,75=-5/1,2,3,8;
 4//1;
 5/5=2,7=100,38=5/2;
 8/6=1,10=1,108=10000/1;
 9/41=10000,42=1,70=2/14;
 6/7=2,8=2,9=2,10=2/1;
 99/5=1,9=1/99;
 Leave Link    1 at Mon Mar 21 20:04:19 2022, MaxMem=  8589934592 cpu:               0.4 elap:               0.1
 (Enter /home/sabyasachi/g16/l101.exe)
 ---------------------
 xGDB7_00001_tier4.com
 ---------------------
 Symbolic Z-matrix:
 Charge =  0 Multiplicity = 1
 6                     0.        0.        0.59732 
 6                     0.        0.       -0.59732 
 1                     0.        0.        1.66134 
 1                     0.        0.       -1.66134 
 
 ITRead=  0  0  0  0
 MicOpt= -1 -1 -1 -1
 NAtoms=      4 NQM=        4 NQMF=       0 NMMI=      0 NMMIF=      0
                NMic=       0 NMicF=      0.
                    Isotopes and Nuclear Properties:
 (Nuclear quadrupole moments (NQMom) in fm**2, nuclear magnetic moments (NMagM)
  in nuclear magnetons)

  Atom         1           2           3           4
 IAtWgt=          12          12           1           1
 AtmWgt=  12.0000000  12.0000000   1.0078250   1.0078250
 NucSpn=           0           0           1           1
 AtZEff=  -0.0000000  -0.0000000  -0.0000000  -0.0000000
 NQMom=    0.0000000   0.0000000   0.0000000   0.0000000
 NMagM=    0.0000000   0.0000000   2.7928460   2.7928460
 AtZNuc=   6.0000000   6.0000000   1.0000000   1.0000000
 Leave Link  101 at Mon Mar 21 20:04:19 2022, MaxMem=  8589934592 cpu:               0.6 elap:               0.1
 (Enter /home/sabyasachi/g16/l202.exe)
                          Input orientation:                          
 ---------------------------------------------------------------------
 Center     Atomic      Atomic             Coordinates (Angstroms)
 Number     Number       Type             X           Y           Z
 ---------------------------------------------------------------------
      1          6           0        0.000000    0.000000    0.597322
      2          6           0        0.000000    0.000000   -0.597322
      3          1           0        0.000000    0.000000    1.661338
      4          1           0        0.000000    0.000000   -1.661338
 ---------------------------------------------------------------------
                    Distance matrix (angstroms):
                    1          2          3          4
     1  C    0.000000
     2  C    1.194644   0.000000
     3  H    1.064016   2.258660   0.000000
     4  H    2.258660   1.064016   3.322676   0.000000
 Stoichiometry    C2H2
 Framework group  D*H[C*(HC.CH)]
 Deg. of freedom     2
 Full point group                 D*H     NOp   8
 Largest Abelian subgroup         D2H     NOp   8
 Largest concise Abelian subgroup C2      NOp   2
                         Standard orientation:                         
 ---------------------------------------------------------------------
 Center     Atomic      Atomic             Coordinates (Angstroms)
 Number     Number       Type             X           Y           Z
 ---------------------------------------------------------------------
      1          6           0        0.000000    0.000000    0.597322
      2          6           0        0.000000    0.000000   -0.597322
      3          1           0        0.000000    0.000000    1.661338
      4          1           0        0.000000    0.000000   -1.661338
 ---------------------------------------------------------------------
 Rotational constants (GHZ):           0.0000000          35.7756801          35.7756801
 Leave Link  202 at Mon Mar 21 20:04:19 2022, MaxMem=  8589934592 cpu:               0.1 elap:               0.0
 (Enter /home/sabyasachi/g16/l301.exe)
 General basis read from cards:  (5D, 7F)
 Centers:       3      4
 S 3 1.00
     Exponent=  1.3010701000D+01 Coefficients=  1.9682158000D-02
     Exponent=  1.9622572000D+00 Coefficients=  1.3796524000D-01
     Exponent=  4.4453796000D-01 Coefficients=  4.7831935000D-01
 S 1 1.00
     Exponent=  1.2194962000D-01 Coefficients=  1.0000000000D+00
 P 1 1.00
     Exponent=  8.0000000000D-01 Coefficients=  1.0000000000D+00
 P 1 1.00
     Exponent=  1.1704099050D-01 Coefficients=  1.0000000000D+00
 ****
 Centers:       1      2
 S 5 1.00
     Exponent=  1.2384016938D+03 Coefficients=  5.4568832082D-03
     Exponent=  1.8629004992D+02 Coefficients=  4.0638409211D-02
     Exponent=  4.2251176346D+01 Coefficients=  1.8025593888D-01
     Exponent=  1.1676557932D+01 Coefficients=  4.6315121755D-01
     Exponent=  3.5930506482D+00 Coefficients=  4.4087173314D-01
 S 1 1.00
     Exponent=  4.0245147363D-01 Coefficients=  1.0000000000D+00
 S 1 1.00
     Exponent=  1.3090182668D-01 Coefficients=  1.0000000000D+00
 S 1 1.00
     Exponent=  6.7053540256D-02 Coefficients=  1.0000000000D+00
 P 3 1.00
     Exponent=  9.4680970621D+00 Coefficients=  3.8387871728D-02
     Exponent=  2.0103545142D+00 Coefficients=  2.1117025112D-01
     Exponent=  5.4771004707D-01 Coefficients=  5.1328172114D-01
 P 1 1.00
     Exponent=  1.5268613795D-01 Coefficients=  1.0000000000D+00
 D 1 1.00
     Exponent=  8.0000000000D-01 Coefficients=  1.0000000000D+00
 D 1 1.00
     Exponent=  1.1713185140D-01 Coefficients=  1.0000000000D+00
 ****
 Ernie: Thresh=  0.10000D-02 Tol=  0.10000D-05 Strict=F.
 There are    16 symmetry adapted cartesian basis functions of AG  symmetry.
 There are     2 symmetry adapted cartesian basis functions of B1G symmetry.
 There are     6 symmetry adapted cartesian basis functions of B2G symmetry.
 There are     6 symmetry adapted cartesian basis functions of B3G symmetry.
 There are     2 symmetry adapted cartesian basis functions of AU  symmetry.
 There are    16 symmetry adapted cartesian basis functions of B1U symmetry.
 There are     6 symmetry adapted cartesian basis functions of B2U symmetry.
 There are     6 symmetry adapted cartesian basis functions of B3U symmetry.
 There are    14 symmetry adapted basis functions of AG  symmetry.
 There are     2 symmetry adapted basis functions of B1G symmetry.
 There are     6 symmetry adapted basis functions of B2G symmetry.
 There are     6 symmetry adapted basis functions of B3G symmetry.
 There are     2 symmetry adapted basis functions of AU  symmetry.
 There are    14 symmetry adapted basis functions of B1U symmetry.
 There are     6 symmetry adapted basis functions of B2U symmetry.
 There are     6 symmetry adapted basis functions of B3U symmetry.
    56 basis functions,    84 primitive gaussians,    60 cartesian basis functions
     7 alpha electrons        7 beta electrons
       nuclear repulsion energy        24.8852849468 Hartrees.
 IExCor=  402 DFT=T Ex+Corr=B3LYP ExCW=0 ScaHFX=  0.200000
 ScaDFX=  0.800000  0.720000  1.000000  0.810000 ScalE2=  1.000000  1.000000
 IRadAn=      5 IRanWt=     -1 IRanGd=            0 ICorTp=0 IEmpDi=  4
 NAtoms=    4 NActive=    4 NUniq=    2 SFac= 4.00D+00 NAtFMM=   60 NAOKFM=F Big=F
 Integral buffers will be    131072 words long.
 Regular integral format.
 Two-electron integral symmetry is turned on.
 Leave Link  301 at Mon Mar 21 20:04:19 2022, MaxMem=  8589934592 cpu:               0.5 elap:               0.1
 (Enter /home/sabyasachi/g16/l302.exe)
 NPDir=0 NMtPBC=     1 NCelOv=     1 NCel=       1 NClECP=     1 NCelD=      1
         NCelK=      1 NCelE2=     1 NClLst=     1 CellRange=     0.0.
 One-electron integrals computed using PRISM.
 One-electron integral symmetry used in STVInt
 NBasis=    56 RedAO= T EigKep=  4.85D-05  NBF=    14     2     6     6     2    14     6     6
 NBsUse=    56 1.00D-06 EigRej= -1.00D+00 NBFU=    14     2     6     6     2    14     6     6
 Precomputing XC quadrature grid using
 IXCGrd= 4 IRadAn=           5 IRanWt=          -1 IRanGd=           0 AccXCQ= 0.00D+00.
 Generated NRdTot=       0 NPtTot=           0 NUsed=           0 NTot=          32
 NSgBfM=    60    60    60    60    60 MxSgAt=     4 MxSgA2=     4.
 Leave Link  302 at Mon Mar 21 20:04:19 2022, MaxMem=  8589934592 cpu:               0.9 elap:               0.1
 (Enter /home/sabyasachi/g16/l303.exe)
 DipDrv:  MaxL=1.
 Leave Link  303 at Mon Mar 21 20:04:19 2022, MaxMem=  8589934592 cpu:               0.2 elap:               0.0
 (Enter /home/sabyasachi/g16/l308.exe)
 Leave Link  308 at Mon Mar 21 20:04:19 2022, MaxMem=  8589934592 cpu:               0.2 elap:               0.0
 (Enter /home/sabyasachi/g16/l401.exe)
 ExpMin= 6.71D-02 ExpMax= 1.24D+03 ExpMxC= 1.86D+02 IAcc=3 IRadAn=         5 AccDes= 0.00D+00
 Harris functional with IExCor=  402 and IRadAn=       5 diagonalized for initial guess.
 HarFok:  IExCor=  402 AccDes= 0.00D+00 IRadAn=         5 IDoV= 1 UseB2=F ITyADJ=14
 ICtDFT=  3500011 ScaDFX=  1.000000  1.000000  1.000000  1.000000
 FoFCou: FMM=F IPFlag=           0 FMFlag=      100000 FMFlg1=           0
         NFxFlg=           0 DoJE=T BraDBF=F KetDBF=T FulRan=T
         wScrn=  0.000000 ICntrl=       500 IOpCl=  0 I1Cent=   200000004 NGrid=           0
         NMat0=    1 NMatS0=      1 NMatT0=    0 NMatD0=    1 NMtDS0=    0 NMtDT0=    0
 Petite list used in FoFCou.
 Harris En= -77.3162896104167    
 JPrj=0 DoOrth=F DoCkMO=F.
 Initial guess orbital symmetries:
       Occupied  (SGG) (SGU) (SGG) (SGU) (SGG) (PIU) (PIU)
       Virtual   (PIG) (PIG) (SGU) (SGG) (SGG) (SGU) (PIU) (PIU)
                 (DLTG) (DLTG) (PIG) (PIG) (SGG) (SGU) (SGG) (DLTU)
                 (DLTU) (PIU) (PIU) (SGU) (PIG) (PIG) (SGU) (SGG)
                 (PIU) (PIU) (SGU) (PIG) (PIG) (SGG) (SGG) (SGU)
                 (PIU) (PIU) (SGU) (DLTG) (DLTG) (PIG) (PIG) (DLTU)
                 (DLTU) (PIU) (PIU) (SGG) (SGU) (PIG) (PIG) (SGG)
                 (SGU)
 The electronic state of the initial guess is 1-SGG.
 Leave Link  401 at Mon Mar 21 20:04:19 2022, MaxMem=  8589934592 cpu:               1.2 elap:               0.2
 (Enter /home/sabyasachi/g16/l502.exe)
 Keep R1 ints in memory in symmetry-blocked form, NReq=8362438.
 FoFCou: FMM=F IPFlag=           0 FMFlag=           0 FMFlg1=           0
         NFxFlg=           0 DoJE=F BraDBF=F KetDBF=F FulRan=T
         wScrn=  0.000000 ICntrl=       600 IOpCl=  0 I1Cent=           0 NGrid=           0
         NMat0=    1 NMatS0=   1596 NMatT0=    0 NMatD0=    1 NMtDS0=    0 NMtDT0=    0
 Petite list used in FoFCou.
 Closed shell SCF:
 Using DIIS extrapolation, IDIIS=  1040.
 NGot=  8589934592 LenX=  8589745924 LenY=  8589741883
 Requested convergence on RMS density matrix=1.00D-08 within 100 cycles.
 Requested convergence on MAX density matrix=1.00D-06.
 Requested convergence on             energy=1.00D-06.
 No special actions if energy rises.
 Integral accuracy reduced to 1.0D-05 until final iterations.

 Cycle   1  Pass 0  IDiag  1:
 E= -77.2026851668364    
 DIIS: error= 4.78D-02 at cycle   1 NSaved=   1.
 NSaved= 1 IEnMin= 1 EnMin= -77.2026851668364     IErMin= 1 ErrMin= 4.78D-02
 ErrMax= 4.78D-02  0.00D+00 EMaxC= 1.00D-01 BMatC= 6.15D-02 BMatP= 6.15D-02
 IDIUse=3 WtCom= 5.22D-01 WtEn= 4.78D-01
 Coeff-Com:  0.100D+01
 Coeff-En:   0.100D+01
 Coeff:      0.100D+01
 Gap=     0.228 Goal=   None    Shift=    0.000
 GapD=    0.228 DampG=1.000 DampE=0.500 DampFc=0.5000 IDamp=-1.
 Damping current iteration by 5.00D-01
 RMSDP=2.65D-02 MaxDP=3.71D-01              OVMax= 1.76D-01

 Cycle   2  Pass 0  IDiag  1:
 E= -77.2384354928319     Delta-E=       -0.035750325996 Rises=F Damp=T
 DIIS: error= 7.09D-03 at cycle   2 NSaved=   2.
 NSaved= 2 IEnMin= 2 EnMin= -77.2384354928319     IErMin= 2 ErrMin= 7.09D-03
 ErrMax= 7.09D-03  0.00D+00 EMaxC= 1.00D-01 BMatC= 1.01D-03 BMatP= 6.15D-02
 IDIUse=3 WtCom= 9.29D-01 WtEn= 7.09D-02
 Coeff-Com: -0.155D-01 0.102D+01
 Coeff-En:   0.000D+00 0.100D+01
 Coeff:     -0.144D-01 0.101D+01
 Gap=     0.331 Goal=   None    Shift=    0.000
 RMSDP=1.07D-02 MaxDP=2.26D-01 DE=-3.58D-02 OVMax= 9.03D-02

 Cycle   3  Pass 0  IDiag  1:
 E= -77.2763940894327     Delta-E=       -0.037958596601 Rises=F Damp=F
 DIIS: error= 1.71D-03 at cycle   3 NSaved=   3.
 NSaved= 3 IEnMin= 3 EnMin= -77.2763940894327     IErMin= 3 ErrMin= 1.71D-03
 ErrMax= 1.71D-03  0.00D+00 EMaxC= 1.00D-01 BMatC= 7.46D-05 BMatP= 1.01D-03
 IDIUse=3 WtCom= 9.83D-01 WtEn= 1.71D-02
 Coeff-Com: -0.314D-01 0.102D+00 0.930D+00
 Coeff-En:   0.000D+00 0.000D+00 0.100D+01
 Coeff:     -0.308D-01 0.999D-01 0.931D+00
 Gap=     0.323 Goal=   None    Shift=    0.000
 RMSDP=1.07D-03 MaxDP=2.50D-02 DE=-3.80D-02 OVMax= 3.32D-03

 Cycle   4  Pass 0  IDiag  1:
 E= -77.2764867130852     Delta-E=       -0.000092623652 Rises=F Damp=F
 DIIS: error= 7.68D-05 at cycle   4 NSaved=   4.
 NSaved= 4 IEnMin= 4 EnMin= -77.2764867130852     IErMin= 4 ErrMin= 7.68D-05
 ErrMax= 7.68D-05  0.00D+00 EMaxC= 1.00D-01 BMatC= 2.15D-07 BMatP= 7.46D-05
 IDIUse=1 WtCom= 1.00D+00 WtEn= 0.00D+00
 Coeff-Com: -0.383D-02 0.353D-02 0.954D-01 0.905D+00
 Coeff:     -0.383D-02 0.353D-02 0.954D-01 0.905D+00
 Gap=     0.323 Goal=   None    Shift=    0.000
 RMSDP=4.44D-05 MaxDP=6.71D-04 DE=-9.26D-05 OVMax= 2.01D-04

 Cycle   5  Pass 0  IDiag  1:
 E= -77.2764869968654     Delta-E=       -0.000000283780 Rises=F Damp=F
 DIIS: error= 9.47D-06 at cycle   5 NSaved=   5.
 NSaved= 5 IEnMin= 5 EnMin= -77.2764869968654     IErMin= 5 ErrMin= 9.47D-06
 ErrMax= 9.47D-06  0.00D+00 EMaxC= 1.00D-01 BMatC= 3.19D-09 BMatP= 2.15D-07
 IDIUse=1 WtCom= 1.00D+00 WtEn= 0.00D+00
 Coeff-Com: -0.609D-03 0.667D-04 0.130D-01 0.155D+00 0.833D+00
 Coeff:     -0.609D-03 0.667D-04 0.130D-01 0.155D+00 0.833D+00
 Gap=     0.323 Goal=   None    Shift=    0.000
 RMSDP=6.46D-06 MaxDP=1.57D-04 DE=-2.84D-07 OVMax= 1.24D-05

 Initial convergence to 1.0D-05 achieved.  Increase integral accuracy.
 Cycle   6  Pass 1  IDiag  1:
 E= -77.2764868478002     Delta-E=        0.000000149065 Rises=F Damp=F
 DIIS: error= 1.16D-06 at cycle   1 NSaved=   1.
 NSaved= 1 IEnMin= 1 EnMin= -77.2764868478002     IErMin= 1 ErrMin= 1.16D-06
 ErrMax= 1.16D-06  0.00D+00 EMaxC= 1.00D-01 BMatC= 5.04D-11 BMatP= 5.04D-11
 IDIUse=1 WtCom= 1.00D+00 WtEn= 0.00D+00
 Coeff-Com:  0.100D+01
 Coeff:      0.100D+01
 Gap=     0.323 Goal=   None    Shift=    0.000
 RMSDP=6.46D-06 MaxDP=1.57D-04 DE= 1.49D-07 OVMax= 4.39D-06

 Cycle   7  Pass 1  IDiag  1:
 E= -77.2764868478203     Delta-E=       -0.000000000020 Rises=F Damp=F
 DIIS: error= 1.14D-06 at cycle   2 NSaved=   2.
 NSaved= 2 IEnMin= 2 EnMin= -77.2764868478203     IErMin= 2 ErrMin= 1.14D-06
 ErrMax= 1.14D-06  0.00D+00 EMaxC= 1.00D-01 BMatC= 3.39D-11 BMatP= 5.04D-11
 IDIUse=1 WtCom= 1.00D+00 WtEn= 0.00D+00
 Coeff-Com:  0.449D+00 0.551D+00
 Coeff:      0.449D+00 0.551D+00
 Gap=     0.323 Goal=   None    Shift=    0.000
 RMSDP=2.19D-07 MaxDP=4.24D-06 DE=-2.02D-11 OVMax= 2.20D-06

 Cycle   8  Pass 1  IDiag  1:
 E= -77.2764868478608     Delta-E=       -0.000000000040 Rises=F Damp=F
 DIIS: error= 1.20D-07 at cycle   3 NSaved=   3.
 NSaved= 3 IEnMin= 3 EnMin= -77.2764868478608     IErMin= 3 ErrMin= 1.20D-07
 ErrMax= 1.20D-07  0.00D+00 EMaxC= 1.00D-01 BMatC= 3.26D-13 BMatP= 3.39D-11
 IDIUse=1 WtCom= 1.00D+00 WtEn= 0.00D+00
 Coeff-Com:  0.322D-01 0.108D+00 0.860D+00
 Coeff:      0.322D-01 0.108D+00 0.860D+00
 Gap=     0.323 Goal=   None    Shift=    0.000
 RMSDP=1.02D-07 MaxDP=2.26D-06 DE=-4.04D-11 OVMax= 1.82D-07

 Cycle   9  Pass 1  IDiag  1:
 E= -77.2764868478610     Delta-E=       -0.000000000000 Rises=F Damp=F
 DIIS: error= 1.03D-08 at cycle   4 NSaved=   4.
 NSaved= 4 IEnMin= 4 EnMin= -77.2764868478610     IErMin= 4 ErrMin= 1.03D-08
 ErrMax= 1.03D-08  0.00D+00 EMaxC= 1.00D-01 BMatC= 3.38D-15 BMatP= 3.26D-13
 IDIUse=1 WtCom= 1.00D+00 WtEn= 0.00D+00
 Coeff-Com: -0.793D-02 0.453D-02 0.106D+00 0.898D+00
 Coeff:     -0.793D-02 0.453D-02 0.106D+00 0.898D+00
 Gap=     0.323 Goal=   None    Shift=    0.000
 RMSDP=8.28D-09 MaxDP=1.57D-07 DE=-2.56D-13 OVMax= 2.45D-08

 SCF Done:  E(RB3LYP) =  -77.2764868479     A.U. after    9 cycles
            NFock=  9  Conv=0.83D-08     -V/T= 2.0119
 KE= 7.637087640669D+01 PE=-2.283670122294D+02 EE= 4.983436402802D+01
 Leave Link  502 at Mon Mar 21 20:04:19 2022, MaxMem=  8589934592 cpu:               1.9 elap:               0.3
 (Enter /home/sabyasachi/g16/l801.exe)
 DoSCS=F DFT=T ScalE2(SS,OS)=  1.000000  1.000000
 ExpMin= 6.71D-02 ExpMax= 1.24D+03 ExpMxC= 1.86D+02 IAcc=3 IRadAn=         5 AccDes= 0.00D+00
 HarFok:  IExCor=  205 AccDes= 0.00D+00 IRadAn=         5 IDoV=-2 UseB2=F ITyADJ=14
 ICtDFT= 12500011 ScaDFX=  1.000000  1.000000  1.000000  1.000000
 Largest valence mixing into a core orbital is  7.11D-05
 Largest core mixing into a valence orbital is  1.54D-05
 Range of M.O.s used for correlation:     3    56
 NBasis=    56 NAE=     7 NBE=     7 NFC=     2 NFV=     0
 NROrb=     54 NOA=     5 NOB=     5 NVA=    49 NVB=    49

 **** Warning!!: The largest alpha MO coefficient is  0.67823519D+02

 Leave Link  801 at Mon Mar 21 20:04:20 2022, MaxMem=  8589934592 cpu:               0.4 elap:               0.1
 (Enter /home/sabyasachi/g16/l914.exe)
 RHF ground state
 Keep R1, R2, and R3 ints in memory in symmetry-blocked form, NReq=93789810.
 FoFCou: FMM=F IPFlag=           0 FMFlag=           0 FMFlg1=           0
         NFxFlg=           0 DoJE=F BraDBF=F KetDBF=F FulRan=T
         wScrn=  0.000000 ICntrl=       600 IOpCl=  0 I1Cent=           0 NGrid=           0
         NMat0=    1 NMatS0=   1596 NMatT0=    0 NMatD0=    1 NMtDS0=    0 NMtDT0=    0
 Petite list used in FoFCou.
 MDV=  8589934592 DFT=T DoStab=F Mixed=T DoRPA=T DoScal=F NonHer=T
 Making orbital integer symmetry assigments:
 Orbital symmetries:
       Occupied  (SGG) (SGU) (SGG) (SGU) (SGG) (PIU) (PIU)
       Virtual   (PIG) (PIG) (SGG) (SGU) (SGG) (SGU) (PIU) (PIU)
                 (DLTG) (DLTG) (PIG) (PIG) (SGG) (SGU) (SGG) (DLTU)
                 (DLTU) (PIU) (PIU) (SGU) (PIG) (PIG) (SGU) (SGG)
                 (PIU) (PIU) (SGG) (PIG) (PIG) (SGU) (SGG) (SGU)
                 (PIU) (PIU) (SGU) (PIG) (PIG) (DLTG) (DLTG) (DLTU)
                 (DLTU) (PIU) (PIU) (SGG) (SGU) (PIG) (PIG) (SGG)
                 (SGU)
   245 initial guesses have been made.
 Convergence on wavefunction:    0.001000000000000
 Davidson Disk Diagonalization:  ConvIn= 1.00D-03 SkipCon=T Conv= 1.00D-03.
 Max sub-space:  1470 roots to seek:   490 dimension of matrix:          490
 *** WARNING: Number of orthogonal guesses is          245
 Iteration     1 Dimension   245 NMult     0 NNew    245
 CISAX will form   245 AO SS matrices at one time.
 NMat=   245 NSing=   245 JSym2X=-1.
 New state      2 was old state      4
 New state      3 was old state      2
 New state      4 was old state      5
 New state      5 was old state      6
 New state      6 was old state      8
 New state      8 was old state      9
 New state      9 was old state     10
 New state     10 was old state      3
 New state     11 was old state     12
 New state     12 was old state     11
 New state     13 was old state     14
 New state     14 was old state     13
 New state     15 was old state     16
 New state     16 was old state     15
 New state     17 was old state     18
 New state     18 was old state     17
 New state     19 was old state     20
 New state     20 was old state     19
 New state     21 was old state     22
 New state     22 was old state     21
 New state     24 was old state     26
 New state     26 was old state     28
 New state     27 was old state     24
 New state     28 was old state     32
 New state     32 was old state     27
 New state     33 was old state     37
 New state     34 was old state     36
 New state     35 was old state     34
 New state     36 was old state     35
 New state     37 was old state     33
 New state     38 was old state     45
 New state     39 was old state     44
 New state     40 was old state     39
 New state     41 was old state     38
 New state     42 was old state     47
 New state     43 was old state     46
 New state     44 was old state     42
 New state     45 was old state     43
 New state     46 was old state     41
 New state     47 was old state     48
 New state     48 was old state     49
 New state     49 was old state     40
 New state     50 was old state     51
 New state     51 was old state     50
 New state     52 was old state     53
 New state     53 was old state     52
 New state     54 was old state     59
 New state     55 was old state     60
 New state     56 was old state     55
 New state     57 was old state     56
 New state     58 was old state     61
 New state     59 was old state     62
 New state     60 was old state     57
 New state     61 was old state     58
 New state     62 was old state     54
 New state     65 was old state     66
 New state     66 was old state     65
 New state     68 was old state     69
 New state     69 was old state     70
 New state     70 was old state     68
 New state     76 was old state     77
 New state     77 was old state     78
 New state     78 was old state     76
 New state     79 was old state     81
 New state     80 was old state     82
 New state     81 was old state     79
 New state     82 was old state     80
 New state     86 was old state     88
 New state     87 was old state     89
 New state     88 was old state     91
 New state     89 was old state     90
 New state     90 was old state     92
 New state     91 was old state     93
 New state     92 was old state     87
 New state     93 was old state     86
 New state     96 was old state     97
 New state     97 was old state     98
 New state     98 was old state     99
 New state     99 was old state    100
 New state    100 was old state    101
 New state    101 was old state    102
 New state    102 was old state     96
 New state    105 was old state    106
 New state    106 was old state    105
 New state    107 was old state    108
 New state    108 was old state    109
 New state    109 was old state    110
 New state    110 was old state    111
 New state    111 was old state    112
 New state    112 was old state    113
 New state    113 was old state    120
 New state    114 was old state    115
 New state    115 was old state    116
 New state    116 was old state    114
 New state    120 was old state    121
 New state    121 was old state    122
 New state    122 was old state    123
 New state    123 was old state    107
 New state    125 was old state    129
 New state    126 was old state    130
 New state    127 was old state    131
 New state    129 was old state    127
 New state    130 was old state    125
 New state    131 was old state    126
 New state    132 was old state    134
 New state    134 was old state    132
 New state    139 was old state    142
 New state    140 was old state    141
 New state    141 was old state    139
 New state    142 was old state    140
 New state    143 was old state    144
 New state    144 was old state    145
 New state    145 was old state    143
 New state    146 was old state    147
 New state    147 was old state    148
 New state    148 was old state    149
 New state    149 was old state    146
 New state    154 was old state    156
 New state    155 was old state    157
 New state    156 was old state    159
 New state    157 was old state    160
 New state    158 was old state    161
 New state    159 was old state    155
 New state    160 was old state    162
 New state    161 was old state    154
 New state    162 was old state    158
 New state    170 was old state    174
 New state    171 was old state    173
 New state    173 was old state    171
 New state    174 was old state    170
 New state    175 was old state    177
 New state    176 was old state    178
 New state    177 was old state    175
 New state    178 was old state    176
 New state    182 was old state    183
 New state    183 was old state    184
 New state    184 was old state    182
 New state    187 was old state    189
 New state    188 was old state    190
 New state    189 was old state    187
 New state    190 was old state    188
 New state    191 was old state    192
 New state    192 was old state    191
 New state    193 was old state    196
 New state    194 was old state    195
 New state    195 was old state    197
 New state    196 was old state    199
 New state    197 was old state    194
 New state    198 was old state    193
 New state    199 was old state    198
 New state    234 was old state    235
 New state    235 was old state    234
 New state    241 was old state    242
 New state    242 was old state    241
 Excitation Energies [eV] at current iteration:
 Root      1 :     6.833277121308629
 Root      2 :     7.020846086534694
 Root      3 :     7.020846314526175
 Root      4 :     8.160897816077966
 Root      5 :     8.160897816078117
 Root      6 :     8.421740593062047
 Root      7 :     8.421740593062145
 Root      8 :     9.735195677064892
 Root      9 :     9.735195677064917
 Root     10 :    10.276859981045610
 Root     11 :    11.473083844072740
 Root     12 :    11.473083844072840
 Root     13 :    11.536576691420460
 Root     14 :    11.536578405475550
 Root     15 :    11.574382646312310
 Root     16 :    12.374837219410050
 Root     17 :    12.685090687811630
 Root     18 :    12.685090687811690
 Root     19 :    13.075565476375360
 Root     20 :    13.075565476375400
 Root     21 :    13.676688517287840
 Root     22 :    13.676688517287880
 Root     23 :    13.818662030910930
 Root     24 :    13.917887417550190
 Root     25 :    13.917888754615550
 Root     26 :    13.943279743572210
 Root     27 :    13.950946774076130
 Root     28 :    15.186008466685280
 Root     29 :    15.477668092207320
 Root     30 :    15.477668092207340
 Root     31 :    15.719103470087830
 Root     32 :    15.985749820653360
 Root     33 :    16.108827034496160
 Root     34 :    16.108827034496450
 Root     35 :    16.136937164008460
 Root     36 :    16.136937164008480
 Root     37 :    16.217217180038420
 Root     38 :    16.891291218884270
 Root     39 :    16.891291218884290
 Root     40 :    16.920591920645280
 Root     41 :    16.920591920645370
 Root     42 :    17.172820651978450
 Root     43 :    17.172820651978460
 Root     44 :    17.180598842888620
 Root     45 :    17.180598842888700
 Root     46 :    17.243536824999700
 Root     47 :    17.487660180973410
 Root     48 :    17.487660353475650
 Root     49 :    17.535077482220840
 Root     50 :    17.668439373259940
 Root     51 :    18.137914223821080
 Root     52 :    18.309101869791150
 Root     53 :    18.309101869791950
 Root     54 :    18.635509141380560
 Root     55 :    18.635509141380780
 Root     56 :    18.663131416425270
 Root     57 :    18.663139408986360
 Root     58 :    18.792765468155660
 Root     59 :    18.792765613851190
 Root     60 :    18.800685349954810
 Root     61 :    19.129965957203320
 Root     62 :    19.219733516254530
 Root     63 :    19.473990425836400
 Root     64 :    19.473990425836500
 Root     65 :    19.845506249901610
 Root     66 :    19.845506249901630
 Root     67 :    20.428485041757270
 Root     68 :    20.595916702708010
 Root     69 :    20.595916834299810
 Root     70 :    20.850244997179300
 Root     71 :    21.376172215483030
 Root     72 :    21.376172215483120
 Root     73 :    21.686054962370250
 Root     74 :    21.689828203630980
 Root     75 :    22.198402408129000
 Root     76 :    22.592638072702750
 Root     77 :    22.592638725058850
 Root     78 :    22.846708385737160
 Root     79 :    23.402684010674030
 Root     80 :    23.402684010674590
 Root     81 :    23.463742925813830
 Root     82 :    23.686638235507330
 Root     83 :    23.840451387084560
 Root     84 :    24.037773666134020
 Root     85 :    24.037773666134150
 Root     86 :    24.211677985514350
 Root     87 :    24.211677985516920
 Root     88 :    24.369665085625040
 Root     89 :    24.369665085626270
 Root     90 :    24.381679958466170
 Root     91 :    24.381680666613510
 Root     92 :    24.391273775942800
 Root     93 :    25.000975944857800
 Root     94 :    25.231626277570710
 Root     95 :    25.231626277570940
 Root     96 :    25.534689853343500
 Root     97 :    25.534689982389970
 Root     98 :    25.607352505607730
 Root     99 :    25.607352505607900
 Root    100 :    26.061986185163210
 Root    101 :    26.061986185165730
 Root    102 :    26.119269623036300
 Root    103 :    26.425066899257130
 Root    104 :    26.425066899257270
 Root    105 :    26.512704133182990
 Root    106 :    26.512706662566460
 Root    107 :    26.658590644310020
 Root    108 :    27.964225787329950
 Root    109 :    28.543291598113960
 Root    110 :    29.116761322912180
 Root    111 :    29.296127812827060
 Root    112 :    29.296128499131530
 Root    113 :    29.862635957963260
 Root    114 :    29.873795654196920
 Root    115 :    29.873795654196990
 Root    116 :    30.265962102900230
 Root    117 :    30.639369485611170
 Root    118 :    31.038117924830140
 Root    119 :    31.038117924832650
 Root    120 :    31.780520669988300
 Root    121 :    32.355487899461190
 Root    122 :    32.355487899462580
 Root    123 :    33.028520761921270
 Root    124 :    33.580391420033990
 Root    125 :    33.685465996246460
 Root    126 :    33.685466430054580
 Root    127 :    33.947289681740690
 Root    128 :    34.079342881861780
 Root    129 :    34.079342881861830
 Root    130 :    34.105231458190600
 Root    131 :    34.105231458191990
 Root    132 :    34.505383934529380
 Root    133 :    34.505383934529970
 Root    134 :    35.265771084986180
 Root    135 :    37.003941599771350
 Root    136 :    37.167222045975130
 Root    137 :    37.167222045975490
 Root    138 :    37.988601573725350
 Root    139 :    38.803623217783580
 Root    140 :    38.803623217784270
 Root    141 :    39.097876829178180
 Root    142 :    39.097876829179610
 Root    143 :    39.479435533796490
 Root    144 :    39.479435533799670
 Root    145 :    39.874777850051710
 Root    146 :    41.192686187850870
 Root    147 :    41.447340706186500
 Root    148 :    41.447340706189410
 Root    149 :    42.318781057978020
 Root    150 :    42.782981251685840
 Root    151 :    43.152529601154320
 Root    152 :    44.337214014314510
 Root    153 :    45.578542445595540
 Root    154 :    45.904530696083470
 Root    155 :    45.904530925774440
 Root    156 :    46.062455469886980
 Root    157 :    46.121797861320080
 Root    158 :    46.121797861323240
 Root    159 :    46.202967582982440
 Root    160 :    46.970856332872190
 Root    161 :    47.311943278660580
 Root    162 :    47.977062546822750
 Root    163 :    49.439475318314930
 Root    164 :    49.628247807927600
 Root    165 :    49.628247807928000
 Root    166 :    50.292579897628120
 Root    167 :    50.292580678788030
 Root    168 :    50.429604042740310
 Root    169 :    50.690520404484150
 Root    170 :    50.869371221993290
 Root    171 :    50.869371221993350
 Root    172 :    51.477293771501410
 Root    173 :    51.477293771501460
 Root    174 :    53.036891897031660
 Root    175 :    53.988719263289120
 Root    176 :    53.988719263289400
 Root    177 :    55.164382624911130
 Root    178 :    55.164382624911130
 Root    179 :    55.372045578531810
 Root    180 :    56.097025407311240
 Root    181 :    56.097025407311720
 Root    182 :    56.898440123997880
 Root    183 :    56.898440234436690
 Root    184 :    57.032951921210300
 Root    185 :    57.926150093395610
 Root    186 :    57.926150093396050
 Root    187 :    58.957273330413880
 Root    188 :    58.957273382437280
 Root    189 :    58.994702951721240
 Root    190 :    58.994702951721370
 Root    191 :    60.002164148275210
 Root    192 :    60.002164148275230
 Root    193 :    61.309186787856730
 Root    194 :    61.309187116163290
 Root    195 :    61.522578412237130
 Root    196 :    61.982232393493410
 Root    197 :    62.380651319850840
 Root    198 :    62.380651319851100
 Root    199 :    62.509204423170380
 Root    200 :    62.654192018060260
 Root    201 :    62.654192018060900
 Root    202 :    63.453561552034410
 Root    203 :    63.453561552034460
 Root    204 :    63.973013170188750
 Root    205 :    63.973013418126950
 Root    206 :    66.180009297851600
 Root    207 :    66.180009489507740
 Root    208 :    67.228551696599470
 Root    209 :    67.228551696599720
 Root    210 :    68.368910620587950
 Root    211 :    68.368910771265090
 Root    212 :    68.650760222874950
 Root    213 :    68.650760222874980
 Root    214 :    69.548412248145400
 Root    215 :    70.980046564967250
 Root    216 :    71.213703139872520
 Root    217 :    71.213703139872580
 Root    218 :    72.822946921749190
 Root    219 :    72.822947234499150
 Root    220 :    74.090985375211330
 Root    221 :    74.090985375211460
 Root    222 :    75.741389619666150
 Root    223 :    77.166719834669660
 Root    224 :    78.798086714596020
 Root    225 :    83.572007715539910
 Root    226 :    84.324622942491440
 Root    227 :    84.324623034927530
 Root    228 :    84.876830122088090
 Root    229 :    85.320770199866800
 Root    230 :    90.450207496089520
 Root    231 :    90.450207496089760
 Root    232 :    92.168506597264480
 Root    233 :    92.168506597264550
 Root    234 :    95.887544987315780
 Root    235 :    95.887544987315990
 Root    236 :    96.765000539597690
 Root    237 :    96.765000539597840
 Root    238 :   101.895595691024400
 Root    239 :   103.380445117097500
 Root    240 :   108.358290034688900
 Root    241 :   116.534595360723900
 Root    242 :   116.534595360724100
 Root    243 :   122.350805785592600
 Root    244 :   124.123036454447200
 Root    245 :   129.063710362366600
 Convergence achieved for final wavefunctions.
 ***********************************************************************
 Excited states from <AA,BB:AA,BB> singles matrix:
 ***********************************************************************
 
 1PDM for each excited state written to RWF  633
 Ground to excited state transition densities written to RWF  633
 Ground to excited state transition electric dipole moments (Au):
       state          X           Y           Z        Dip. S.      Osc.
         1         0.0000     -0.0000     -0.0000      0.0000      0.0000
         2        -0.0000     -0.0000      0.0000      0.0000      0.0000
         3         0.0000      0.0000      0.0000      0.0000      0.0000
         4         0.5543      0.3903      0.0000      0.4595      0.0919
         5        -0.3903      0.5543     -0.0000      0.4595      0.0919
         6         0.0000     -0.0000      0.0000      0.0000      0.0000
         7         0.0000     -0.0000      0.0000      0.0000      0.0000
         8         0.4115     -0.0007      0.0000      0.1693      0.0404
         9         0.0007      0.4115     -0.0000      0.1693      0.0404
        10         0.0000     -0.0000     -1.8125      3.2853      0.8272
        11         0.0000      0.0000      0.0000      0.0000      0.0000
        12        -0.0000     -0.0000      0.0000      0.0000      0.0000
        13         0.0000     -0.0000      0.0000      0.0000      0.0000
        14        -0.0000     -0.0000     -0.0000      0.0000      0.0000
        15         0.0000     -0.0000     -0.0000      0.0000      0.0000
        16        -0.0000     -0.0000      0.0000      0.0000      0.0000
        17        -0.0000      0.0000     -0.0000      0.0000      0.0000
        18        -0.0000      0.0000      0.0000      0.0000      0.0000
        19        -0.0000     -0.0000      0.0000      0.0000      0.0000
        20         0.0000     -0.0000      0.0000      0.0000      0.0000
        21         0.2323     -0.7659      0.0000      0.6406      0.2146
        22        -0.7659     -0.2323     -0.0000      0.6406      0.2146
        23         0.0000     -0.0000     -0.0000      0.0000      0.0000
        24        -0.0000     -0.0000      0.0000      0.0000      0.0000
        25        -0.0000     -0.0000     -0.0000      0.0000      0.0000
        26         0.0000      0.0000     -0.0000      0.0000      0.0000
        27         0.0000     -0.0000     -1.0461      1.0944      0.3741
        28        -0.0000     -0.0000      0.3107      0.0966      0.0359
        29         0.4733     -0.7378      0.0000      0.7683      0.2913
        30        -0.7378     -0.4733      0.0000      0.7683      0.2913
        31        -0.0000      0.0000      0.0000      0.0000      0.0000
        32         0.0000      0.0000     -0.1419      0.0201      0.0079
        33        -0.0000     -0.0000     -0.0000      0.0000      0.0000
        34        -0.0000      0.0000     -0.0000      0.0000      0.0000
        35        -0.7050      0.6724      0.0000      0.9491      0.3752
        36        -0.6724     -0.7050      0.0000      0.9491      0.3752
        37         0.0000     -0.0000     -0.0000      0.0000      0.0000
        38        -0.0000     -0.0000      0.0000      0.0000      0.0000
        39        -0.0000     -0.0000      0.0000      0.0000      0.0000
        40         0.0144     -0.0635      0.0000      0.0042      0.0018
        41        -0.0635     -0.0144     -0.0000      0.0042      0.0018
        42        -0.0000     -0.0000     -0.0000      0.0000      0.0000
        43        -0.0000     -0.0000     -0.0000      0.0000      0.0000
        44         0.5312     -0.8464     -0.0000      0.9985      0.4203
        45        -0.8464     -0.5312     -0.0000      0.9985      0.4203
        46        -0.0000     -0.0000     -0.7587      0.5756      0.2432
        47        -0.0000     -0.0000      0.0000      0.0000      0.0000
        48        -0.0000     -0.0000     -0.0000      0.0000      0.0000
        49         0.0000      0.0000      1.0287      1.0583      0.4546
        50         0.0000      0.0000     -0.0000      0.0000      0.0000
        51         0.0000      0.0000     -0.0000      0.0000      0.0000
        52        -0.0000     -0.0000      0.0000      0.0000      0.0000
        53         0.0000     -0.0000      0.0000      0.0000      0.0000
        54        -0.0000     -0.0000      0.0000      0.0000      0.0000
        55        -0.0000      0.0000      0.0000      0.0000      0.0000
        56         0.0000      0.0000      0.0000      0.0000      0.0000
        57        -0.0000      0.0000      0.0000      0.0000      0.0000
        58         0.0000      0.0000      0.0000      0.0000      0.0000
        59        -0.0000      0.0000      0.0000      0.0000      0.0000
        60         0.0000      0.0000     -0.0000      0.0000      0.0000
        61        -0.0000      0.0000      0.2432      0.0592      0.0277
        62         0.0000     -0.0000      0.0000      0.0000      0.0000
        63        -0.0000     -0.0000      0.0000      0.0000      0.0000
        64        -0.0000     -0.0000     -0.0000      0.0000      0.0000
        65         0.0000     -0.0000     -0.0000      0.0000      0.0000
        66         0.0000     -0.0000     -0.0000      0.0000      0.0000
        67        -0.0000     -0.0000      0.0000      0.0000      0.0000
        68         0.0000      0.0000     -0.0000      0.0000      0.0000
        69         0.0000      0.0000      0.0000      0.0000      0.0000
        70        -0.0000     -0.0000      0.1767      0.0312      0.0159
        71         0.0196     -0.0599      0.0000      0.0040      0.0021
        72        -0.0599     -0.0196     -0.0000      0.0040      0.0021
        73        -0.0000      0.0000      0.0000      0.0000      0.0000
        74         0.0000      0.0000     -0.7194      0.5176      0.2751
        75         0.0000      0.0000      0.0000      0.0000      0.0000
        76        -0.0000      0.0000     -0.0000      0.0000      0.0000
        77         0.0000      0.0000     -0.0000      0.0000      0.0000
        78         0.0000      0.0000     -0.0000      0.0000      0.0000
        79        -0.0269     -0.4933      0.0000      0.2440      0.1399
        80        -0.4933      0.0269      0.0000      0.2440      0.1399
        81         0.0000      0.0000     -0.0380      0.0014      0.0008
        82         0.0000      0.0000     -0.0000      0.0000      0.0000
        83         0.0000      0.0000     -0.2057      0.0423      0.0247
        84        -0.0092      0.0122     -0.0000      0.0002      0.0001
        85         0.0122      0.0092     -0.0000      0.0002      0.0001
        86        -0.0000     -0.0000     -0.0000      0.0000      0.0000
        87        -0.0000     -0.0000      0.0000      0.0000      0.0000
        88         0.0000      0.0000     -0.0000      0.0000      0.0000
        89        -0.0000      0.0000      0.0000      0.0000      0.0000
        90         0.0000     -0.0000     -0.0000      0.0000      0.0000
        91        -0.0000     -0.0000      0.0000      0.0000      0.0000
        92         0.0000     -0.0000     -0.6096      0.3716      0.2221
        93        -0.0000      0.0000     -0.1986      0.0394      0.0242
        94         0.0000      0.0000      0.0000      0.0000      0.0000
        95        -0.0000      0.0000     -0.0000      0.0000      0.0000
        96        -0.0000     -0.0000     -0.0000      0.0000      0.0000
        97         0.0000      0.0000      0.0000      0.0000      0.0000
        98         0.1842     -0.0011     -0.0000      0.0339      0.0213
        99         0.0011      0.1842     -0.0000      0.0339      0.0213
       100         0.0123      0.0001      0.0000      0.0002      0.0001
       101        -0.0001      0.0123     -0.0000      0.0002      0.0001
       102         0.0000      0.0000      0.0000      0.0000      0.0000
       103         0.0000     -0.0000      0.0000      0.0000      0.0000
       104         0.0000      0.0000      0.0000      0.0000      0.0000
       105        -0.0000      0.0000     -0.0000      0.0000      0.0000
       106        -0.0000     -0.0000     -0.0000      0.0000      0.0000
       107        -0.0000      0.0000      0.0000      0.0000      0.0000
       108         0.0000      0.0000      0.0000      0.0000      0.0000
       109         0.0000      0.0000      0.0679      0.0046      0.0032
       110         0.0000     -0.0000     -0.0000      0.0000      0.0000
       111        -0.0000      0.0000     -0.0000      0.0000      0.0000
       112         0.0000      0.0000     -0.0000      0.0000      0.0000
       113         0.0000     -0.0000     -0.0000      0.0000      0.0000
       114         0.0778      0.1021      0.0000      0.0165      0.0121
       115         0.1021     -0.0778      0.0000      0.0165      0.0121
       116         0.0000      0.0000      0.3648      0.1331      0.0987
       117        -0.0000      0.0000      0.2740      0.0751      0.0564
       118        -0.0000     -0.0000     -0.0000      0.0000      0.0000
       119        -0.0000      0.0000      0.0000      0.0000      0.0000
       120        -0.0000     -0.0000     -0.0000      0.0000      0.0000
       121         0.0035     -0.3415      0.0000      0.1166      0.0925
       122        -0.3415     -0.0035     -0.0000      0.1166      0.0925
       123        -0.0000     -0.0000     -0.0000      0.0000      0.0000
       124         0.0000     -0.0000     -0.3488      0.1217      0.1001
       125         0.0000     -0.0000     -0.0000      0.0000      0.0000
       126         0.0000     -0.0000      0.0000      0.0000      0.0000
       127         0.0000     -0.0000      0.0000      0.0000      0.0000
       128        -0.1554      0.2450     -0.0000      0.0842      0.0703
       129         0.2450      0.1554      0.0000      0.0842      0.0703
       130        -0.0000     -0.0000     -0.0000      0.0000      0.0000
       131         0.0000      0.0000     -0.0000      0.0000      0.0000
       132        -0.0000     -0.0000      0.0000      0.0000      0.0000
       133        -0.0000     -0.0000      0.0000      0.0000      0.0000
       134         0.0000      0.0000     -0.2357      0.0556      0.0480
       135         0.0000     -0.0000     -0.0668      0.0045      0.0040
       136         0.0453     -0.0006      0.0000      0.0021      0.0019
       137         0.0006      0.0453     -0.0000      0.0021      0.0019
       138        -0.0000      0.0000     -0.0000      0.0000      0.0000
       139        -0.0000     -0.0000      0.0000      0.0000      0.0000
       140         0.0000     -0.0000      0.0000      0.0000      0.0000
       141         0.0150     -0.2630      0.0000      0.0694      0.0665
       142        -0.2630     -0.0150      0.0000      0.0694      0.0665
       143        -0.0000     -0.0000     -0.0000      0.0000      0.0000
       144        -0.0000     -0.0000     -0.0000      0.0000      0.0000
       145        -0.0000      0.0000     -0.0000      0.0000      0.0000
       146         0.0000      0.0000      0.0220      0.0005      0.0005
       147        -0.3082      0.0055     -0.0000      0.0950      0.0965
       148        -0.0055     -0.3082     -0.0000      0.0950      0.0965
       149         0.0000      0.0000      0.1056      0.0112      0.0116
       150         0.0000      0.0000     -0.0000      0.0000      0.0000
       151        -0.0000     -0.0000      0.0000      0.0000      0.0000
       152         0.0000     -0.0000      0.1805      0.0326      0.0354
       153         0.0000      0.0000      0.0725      0.0053      0.0059
       154         0.0000     -0.0000      0.0000      0.0000      0.0000
       155         0.0000     -0.0000      0.0000      0.0000      0.0000
       156        -0.0000      0.0000      0.0000      0.0000      0.0000
       157        -0.0000     -0.0000     -0.0000      0.0000      0.0000
       158        -0.0000     -0.0000      0.0000      0.0000      0.0000
       159        -0.0000     -0.0000      0.0000      0.0000      0.0000
       160         0.0000     -0.0000     -0.3331      0.1109      0.1277
       161        -0.0000      0.0000     -0.0000      0.0000      0.0000
       162         0.0000     -0.0000      0.0000      0.0000      0.0000
       163        -0.0000     -0.0000      0.0000      0.0000      0.0000
       164         0.0000      0.0000     -0.0000      0.0000      0.0000
       165         0.0000      0.0000      0.0000      0.0000      0.0000
       166        -0.0000      0.0000      0.0000      0.0000      0.0000
       167         0.0000      0.0000     -0.0000      0.0000      0.0000
       168        -0.0000      0.0000      0.0000      0.0000      0.0000
       169         0.0000      0.0000      0.2280      0.0520      0.0646
       170         0.0000     -0.0000     -0.0000      0.0000      0.0000
       171         0.0000      0.0000     -0.0000      0.0000      0.0000
       172         0.0536      0.0443     -0.0000      0.0048      0.0061
       173        -0.0443      0.0536     -0.0000      0.0048      0.0061
       174         0.0000      0.0000      0.2520      0.0635      0.0825
       175        -0.0000     -0.0000     -0.0000      0.0000      0.0000
       176         0.0000      0.0000     -0.0000      0.0000      0.0000
       177         0.2850      0.7650      0.0000      0.6665      0.9008
       178        -0.7650      0.2850     -0.0000      0.6665      0.9008
       179         0.0000      0.0000     -0.1119      0.0125      0.0170
       180         0.0000      0.0000      0.0000      0.0000      0.0000
       181         0.0000      0.0000     -0.0000      0.0000      0.0000
       182         0.0000     -0.0000     -0.0000      0.0000      0.0000
       183        -0.0000     -0.0000     -0.0000      0.0000      0.0000
       184        -0.0000      0.0000     -0.0000      0.0000      0.0000
       185         0.3171     -0.0298     -0.0000      0.1015      0.1440
       186         0.0298      0.3171     -0.0000      0.1015      0.1440
       187        -0.0000      0.0000      0.0000      0.0000      0.0000
       188         0.0000      0.0000      0.0000      0.0000      0.0000
       189        -0.1501     -0.2813      0.0000      0.1016      0.1469
       190        -0.2813      0.1501      0.0000      0.1016      0.1469
       191         0.0000     -0.0000     -0.0000      0.0000      0.0000
       192         0.0000      0.0000      0.0000      0.0000      0.0000
       193         0.0000      0.0000      0.0000      0.0000      0.0000
       194         0.0000      0.0000     -0.0000      0.0000      0.0000
       195        -0.0000      0.0000      0.0000      0.0000      0.0000
       196         0.0000      0.0000      0.0923      0.0085      0.0129
       197         0.0000      0.0000      0.0000      0.0000      0.0000
       198        -0.0000      0.0000      0.0000      0.0000      0.0000
       199         0.0000     -0.0000      0.0000      0.0000      0.0000
       200        -0.0000      0.0000     -0.0000      0.0000      0.0000
       201        -0.0000     -0.0000     -0.0000      0.0000      0.0000
       202        -0.1096     -0.0933      0.0000      0.0207      0.0322
       203         0.0933     -0.1096      0.0000      0.0207      0.0322
       204         0.0000     -0.0000      0.0000      0.0000      0.0000
       205        -0.0000     -0.0000     -0.0000      0.0000      0.0000
       206         0.0000     -0.0000     -0.0000      0.0000      0.0000
       207         0.0000     -0.0000     -0.0000      0.0000      0.0000
       208         0.1630     -0.0017     -0.0000      0.0266      0.0438
       209         0.0017      0.1630      0.0000      0.0266      0.0438
       210         0.0000      0.0000      0.0000      0.0000      0.0000
       211        -0.0000     -0.0000      0.0000      0.0000      0.0000
       212        -0.0000      0.0000      0.0000      0.0000      0.0000
       213         0.0000     -0.0000      0.0000      0.0000      0.0000
       214        -0.0000     -0.0000      0.0000      0.0000      0.0000
       215        -0.0000     -0.0000      0.0318      0.0010      0.0018
       216         0.0000     -0.0000     -0.0000      0.0000      0.0000
       217         0.0000     -0.0000     -0.0000      0.0000      0.0000
       218         0.0000     -0.0000      0.0000      0.0000      0.0000
       219         0.0000      0.0000      0.0000      0.0000      0.0000
       220        -0.1803      0.1170     -0.0000      0.0462      0.0839
       221        -0.1170     -0.1803      0.0000      0.0462      0.0839
       222        -0.0000     -0.0000     -0.0000      0.0000      0.0000
       223         0.0000      0.0000      0.0476      0.0023      0.0043
       224        -0.0000     -0.0000     -0.0000      0.0000      0.0000
       225         0.0000     -0.0000     -0.1380      0.0190      0.0390
       226        -0.0000     -0.0000     -0.0000      0.0000      0.0000
       227        -0.0000      0.0000      0.0000      0.0000      0.0000
       228        -0.0000      0.0000     -0.0000      0.0000      0.0000
       229         0.0000     -0.0000     -0.1688      0.0285      0.0596
       230         0.0000      0.0000     -0.0000      0.0000      0.0000
       231         0.0000      0.0000      0.0000      0.0000      0.0000
       232        -0.0843      0.0106      0.0000      0.0072      0.0163
       233        -0.0106     -0.0843      0.0000      0.0072      0.0163
       234        -0.0334     -0.1146     -0.0000      0.0142      0.0335
       235        -0.1146      0.0334      0.0000      0.0142      0.0335
       236        -0.0000     -0.0000     -0.0000      0.0000      0.0000
       237        -0.0000      0.0000     -0.0000      0.0000      0.0000
       238        -0.0000      0.0000     -0.0000      0.0000      0.0000
       239         0.0000      0.0000      0.0033      0.0000      0.0000
       240        -0.0000      0.0000     -0.0000      0.0000      0.0000
       241        -0.0000      0.0000      0.0000      0.0000      0.0000
       242        -0.0000     -0.0000      0.0000      0.0000      0.0000
       243        -0.0000      0.0000     -0.0523      0.0027      0.0082
       244         0.0000      0.0000     -0.0000      0.0000      0.0000
       245         0.0000      0.0000     -0.0523      0.0027      0.0086
 Ground to excited state transition velocity dipole moments (Au):
       state          X           Y           Z        Dip. S.      Osc.
         1        -0.0000     -0.0000     -0.0000      0.0000      0.0000
         2        -0.0000      0.0000     -0.0000      0.0000      0.0000
         3        -0.0000     -0.0000      0.0000      0.0000      0.0000
         4        -0.1992     -0.1402      0.0000      0.0593      0.1319
         5         0.1402     -0.1992      0.0000      0.0593      0.1319
         6        -0.0000      0.0000     -0.0000      0.0000      0.0000
         7        -0.0000      0.0000     -0.0000      0.0000      0.0000
         8        -0.1604      0.0003     -0.0000      0.0257      0.0479
         9        -0.0003     -0.1604     -0.0000      0.0257      0.0479
        10         0.0000      0.0000      0.6779      0.4595      0.8111
        11         0.0000     -0.0000      0.0000      0.0000      0.0000
        12         0.0000     -0.0000     -0.0000      0.0000      0.0000
        13        -0.0000      0.0000      0.0000      0.0000      0.0000
        14         0.0000      0.0000      0.0000      0.0000      0.0000
        15        -0.0000      0.0000      0.0000      0.0000      0.0000
        16         0.0000     -0.0000     -0.0000      0.0000      0.0000
        17        -0.0000     -0.0000     -0.0000      0.0000      0.0000
        18         0.0000     -0.0000     -0.0000      0.0000      0.0000
        19         0.0000      0.0000     -0.0000      0.0000      0.0000
        20        -0.0000      0.0000     -0.0000      0.0000      0.0000
        21        -0.1272      0.4194     -0.0000      0.1920      0.2547
        22         0.4194      0.1272      0.0000      0.1920      0.2547
        23        -0.0000      0.0000      0.0000      0.0000      0.0000
        24         0.0000     -0.0000     -0.0000      0.0000      0.0000
        25         0.0000      0.0000      0.0000      0.0000      0.0000
        26        -0.0000     -0.0000      0.0000      0.0000      0.0000
        27        -0.0000      0.0000      0.5653      0.3196      0.4155
        28         0.0000      0.0000     -0.1830      0.0335      0.0400
        29        -0.2938      0.4579      0.0000      0.2960      0.3470
        30         0.4579      0.2938     -0.0000      0.2960      0.3470
        31         0.0000     -0.0000     -0.0000      0.0000      0.0000
        32        -0.0000     -0.0000      0.0916      0.0084      0.0095
        33         0.0000      0.0000      0.0000      0.0000      0.0000
        34         0.0000     -0.0000      0.0000      0.0000      0.0000
        35         0.3982     -0.3798     -0.0000      0.3028      0.3404
        36         0.3798      0.3982     -0.0000      0.3028      0.3404
        37        -0.0000      0.0000      0.0000      0.0000      0.0000
        38         0.0000      0.0000     -0.0000      0.0000      0.0000
        39         0.0000      0.0000     -0.0000      0.0000      0.0000
        40        -0.0103      0.0452     -0.0000      0.0022      0.0023
        41         0.0452      0.0103      0.0000      0.0022      0.0023
        42         0.0000      0.0000      0.0000      0.0000      0.0000
        43         0.0000      0.0000      0.0000      0.0000      0.0000
        44        -0.3323      0.5295      0.0000      0.3907      0.4126
        45         0.5295      0.3323      0.0000      0.3907      0.4126
        46        -0.0000      0.0000      0.4731      0.2239      0.2355
        47         0.0000      0.0000     -0.0000      0.0000      0.0000
        48         0.0000      0.0000      0.0000      0.0000      0.0000
        49        -0.0000      0.0000     -0.6785      0.4604      0.4763
        50        -0.0000     -0.0000      0.0000      0.0000      0.0000
        51        -0.0000     -0.0000     -0.0000      0.0000      0.0000
        52         0.0000     -0.0000     -0.0000      0.0000      0.0000
        53        -0.0000      0.0000     -0.0000      0.0000      0.0000
        54         0.0000      0.0000     -0.0000      0.0000      0.0000
        55         0.0000     -0.0000      0.0000      0.0000      0.0000
        56         0.0000     -0.0000     -0.0000      0.0000      0.0000
        57         0.0000      0.0000     -0.0000      0.0000      0.0000
        58        -0.0000     -0.0000     -0.0000      0.0000      0.0000
        59         0.0000     -0.0000     -0.0000      0.0000      0.0000
        60        -0.0000     -0.0000      0.0000      0.0000      0.0000
        61         0.0000     -0.0000     -0.1195      0.0143      0.0135
        62        -0.0000      0.0000     -0.0000      0.0000      0.0000
        63         0.0000      0.0000     -0.0000      0.0000      0.0000
        64         0.0000      0.0000      0.0000      0.0000      0.0000
        65        -0.0000     -0.0000     -0.0000      0.0000      0.0000
        66        -0.0000      0.0000     -0.0000      0.0000      0.0000
        67         0.0000      0.0000     -0.0000      0.0000      0.0000
        68        -0.0000     -0.0000      0.0000      0.0000      0.0000
        69         0.0000     -0.0000      0.0000      0.0000      0.0000
        70        -0.0000      0.0000     -0.1219      0.0149      0.0129
        71        -0.0135      0.0413     -0.0000      0.0019      0.0016
        72         0.0413      0.0135     -0.0000      0.0019      0.0016
        73         0.0000     -0.0000     -0.0000      0.0000      0.0000
        74        -0.0000     -0.0000      0.5352      0.2864      0.2395
        75        -0.0000     -0.0000     -0.0000      0.0000      0.0000
        76         0.0000     -0.0000      0.0000      0.0000      0.0000
        77        -0.0000      0.0000      0.0000      0.0000      0.0000
        78        -0.0000     -0.0000      0.0000      0.0000      0.0000
        79         0.0251      0.4604     -0.0000      0.2126      0.1648
        80         0.4604     -0.0251     -0.0000      0.2126      0.1648
        81         0.0000     -0.0000      0.0444      0.0020      0.0015
        82        -0.0000     -0.0000      0.0000      0.0000      0.0000
        83        -0.0000     -0.0000      0.1903      0.0362      0.0276
        84         0.0205     -0.0271      0.0000      0.0012      0.0009
        85        -0.0271     -0.0205      0.0000      0.0012      0.0009
        86         0.0000      0.0000     -0.0000      0.0000      0.0000
        87         0.0000      0.0000     -0.0000      0.0000      0.0000
        88        -0.0000      0.0000      0.0000      0.0000      0.0000
        89         0.0000     -0.0000      0.0000      0.0000      0.0000
        90        -0.0000      0.0000      0.0000      0.0000      0.0000
        91         0.0000      0.0000     -0.0000      0.0000      0.0000
        92         0.0000      0.0000      0.4930      0.2431      0.1808
        93         0.0000     -0.0000      0.1729      0.0299      0.0217
        94        -0.0000     -0.0000     -0.0000      0.0000      0.0000
        95        -0.0000     -0.0000     -0.0000      0.0000      0.0000
        96         0.0000      0.0000      0.0000      0.0000      0.0000
        97        -0.0000     -0.0000     -0.0000      0.0000      0.0000
        98        -0.1615      0.0009     -0.0000      0.0261      0.0185
        99        -0.0009     -0.1615      0.0000      0.0261      0.0185
       100        -0.0395     -0.0002      0.0000      0.0016      0.0011
       101         0.0002     -0.0395     -0.0000      0.0016      0.0011
       102        -0.0000      0.0000     -0.0000      0.0000      0.0000
       103        -0.0000      0.0000     -0.0000      0.0000      0.0000
       104        -0.0000     -0.0000      0.0000      0.0000      0.0000
       105         0.0000     -0.0000      0.0000      0.0000      0.0000
       106         0.0000      0.0000      0.0000      0.0000      0.0000
       107         0.0000     -0.0000     -0.0000      0.0000      0.0000
       108         0.0000      0.0000     -0.0000      0.0000      0.0000
       109        -0.0000     -0.0000     -0.0566      0.0032      0.0020
       110        -0.0000      0.0000      0.0000      0.0000      0.0000
       111        -0.0000     -0.0000      0.0000      0.0000      0.0000
       112        -0.0000     -0.0000      0.0000      0.0000      0.0000
       113        -0.0000      0.0000      0.0000      0.0000      0.0000
       114        -0.0794     -0.1043     -0.0000      0.0172      0.0104
       115        -0.1043      0.0794     -0.0000      0.0172      0.0104
       116         0.0000      0.0000     -0.4664      0.2176      0.1304
       117        -0.0000      0.0000     -0.2782      0.0774      0.0458
       118         0.0000      0.0000      0.0000      0.0000      0.0000
       119         0.0000     -0.0000     -0.0000      0.0000      0.0000
       120        -0.0000      0.0000     -0.0000      0.0000      0.0000
       121        -0.0040      0.3960     -0.0000      0.1568      0.0879
       122         0.3960      0.0040      0.0000      0.1568      0.0879
       123         0.0000     -0.0000      0.0000      0.0000      0.0000
       124         0.0000      0.0000      0.4508      0.2033      0.1098
       125        -0.0000      0.0000      0.0000      0.0000      0.0000
       126        -0.0000      0.0000     -0.0000      0.0000      0.0000
       127        -0.0000      0.0000     -0.0000      0.0000      0.0000
       128         0.2333     -0.3678      0.0000      0.1897      0.1010
       129        -0.3678     -0.2333     -0.0000      0.1897      0.1010
       130         0.0000      0.0000      0.0000      0.0000      0.0000
       131        -0.0000     -0.0000      0.0000      0.0000      0.0000
       132         0.0000      0.0000     -0.0000      0.0000      0.0000
       133         0.0000      0.0000     -0.0000      0.0000      0.0000
       134        -0.0000     -0.0000      0.2983      0.0890      0.0458
       135        -0.0000      0.0000      0.1422      0.0202      0.0099
       136        -0.0796      0.0010     -0.0000      0.0063      0.0031
       137        -0.0010     -0.0796      0.0000      0.0063      0.0031
       138         0.0000     -0.0000      0.0000      0.0000      0.0000
       139         0.0000      0.0000     -0.0000      0.0000      0.0000
       140        -0.0000      0.0000     -0.0000      0.0000      0.0000
       141        -0.0248      0.4339     -0.0000      0.1888      0.0876
       142         0.4339      0.0248     -0.0000      0.1888      0.0876
       143         0.0000      0.0000      0.0000      0.0000      0.0000
       144         0.0000      0.0000      0.0000      0.0000      0.0000
       145         0.0000     -0.0000      0.0000      0.0000      0.0000
       146        -0.0000     -0.0000     -0.0018      0.0000      0.0000
       147         0.5007     -0.0090     -0.0000      0.2508      0.1098
       148         0.0090      0.5007      0.0000      0.2508      0.1098
       149        -0.0000     -0.0000     -0.2186      0.0478      0.0205
       150         0.0000     -0.0000     -0.0000      0.0000      0.0000
       151        -0.0000      0.0000      0.0000      0.0000      0.0000
       152        -0.0000      0.0000     -0.4130      0.1706      0.0698
       153        -0.0000     -0.0000     -0.0806      0.0065      0.0026
       154        -0.0000      0.0000     -0.0000      0.0000      0.0000
       155        -0.0000      0.0000     -0.0000      0.0000      0.0000
       156         0.0000     -0.0000     -0.0000      0.0000      0.0000
       157         0.0000      0.0000      0.0000      0.0000      0.0000
       158         0.0000      0.0000     -0.0000      0.0000      0.0000
       159         0.0000      0.0000     -0.0000      0.0000      0.0000
       160         0.0000      0.0000      0.5531      0.3059      0.1181
       161         0.0000     -0.0000      0.0000      0.0000      0.0000
       162        -0.0000      0.0000      0.0000      0.0000      0.0000
       163         0.0000      0.0000     -0.0000      0.0000      0.0000
       164        -0.0000     -0.0000      0.0000      0.0000      0.0000
       165        -0.0000     -0.0000     -0.0000      0.0000      0.0000
       166         0.0000     -0.0000     -0.0000      0.0000      0.0000
       167        -0.0000     -0.0000      0.0000      0.0000      0.0000
       168         0.0000     -0.0000     -0.0000      0.0000      0.0000
       169        -0.0000     -0.0000     -0.3871      0.1499      0.0536
       170        -0.0000      0.0000      0.0000      0.0000      0.0000
       171        -0.0000     -0.0000      0.0000      0.0000      0.0000
       172        -0.1159     -0.0958      0.0000      0.0226      0.0080
       173         0.0958     -0.1159      0.0000      0.0226      0.0080
       174        -0.0000     -0.0000     -0.5328      0.2839      0.0971
       175         0.0000      0.0000      0.0000      0.0000      0.0000
       176        -0.0000     -0.0000     -0.0000      0.0000      0.0000
       177        -0.4638     -1.2448     -0.0000      1.7647      0.5803
       178         1.2448     -0.4638      0.0000      1.7647      0.5803
       179        -0.0000     -0.0000      0.2298      0.0528      0.0173
       180        -0.0000     -0.0000      0.0000      0.0000      0.0000
       181        -0.0000     -0.0000      0.0000      0.0000      0.0000
       182        -0.0000      0.0000     -0.0000      0.0000      0.0000
       183         0.0000      0.0000      0.0000      0.0000      0.0000
       184         0.0000     -0.0000      0.0000      0.0000      0.0000
       185        -0.5532      0.0519     -0.0000      0.3088      0.0967
       186        -0.0519     -0.5532     -0.0000      0.3088      0.0967
       187         0.0000     -0.0000     -0.0000      0.0000      0.0000
       188        -0.0000     -0.0000     -0.0000      0.0000      0.0000
       189         0.2855      0.5348      0.0000      0.3675      0.1130
       190         0.5348     -0.2855     -0.0000      0.3675      0.1130
       191        -0.0000      0.0000     -0.0000      0.0000      0.0000
       192        -0.0000     -0.0000     -0.0000      0.0000      0.0000
       193        -0.0000     -0.0000     -0.0000      0.0000      0.0000
       194        -0.0000     -0.0000      0.0000      0.0000      0.0000
       195         0.0000     -0.0000     -0.0000      0.0000      0.0000
       196        -0.0000     -0.0000     -0.1586      0.0252      0.0074
       197        -0.0000     -0.0000     -0.0000      0.0000      0.0000
       198         0.0000      0.0000     -0.0000      0.0000      0.0000
       199        -0.0000      0.0000      0.0000      0.0000      0.0000
       200         0.0000     -0.0000      0.0000      0.0000      0.0000
       201         0.0000      0.0000      0.0000      0.0000      0.0000
       202         0.1992      0.1696     -0.0000      0.0685      0.0196
       203        -0.1696      0.1992     -0.0000      0.0685      0.0196
       204        -0.0000      0.0000     -0.0000      0.0000      0.0000
       205         0.0000      0.0000     -0.0000      0.0000      0.0000
       206        -0.0000      0.0000      0.0000      0.0000      0.0000
       207        -0.0000      0.0000      0.0000      0.0000      0.0000
       208        -0.3519      0.0036     -0.0000      0.1239      0.0334
       209        -0.0036     -0.3519      0.0000      0.1239      0.0334
       210        -0.0000     -0.0000     -0.0000      0.0000      0.0000
       211         0.0000      0.0000     -0.0000      0.0000      0.0000
       212         0.0000     -0.0000     -0.0000      0.0000      0.0000
       213        -0.0000      0.0000      0.0000      0.0000      0.0000
       214         0.0000      0.0000      0.0000      0.0000      0.0000
       215         0.0000      0.0000     -0.0999      0.0100      0.0025
       216         0.0000      0.0000      0.0000      0.0000      0.0000
       217        -0.0000      0.0000     -0.0000      0.0000      0.0000
       218        -0.0000     -0.0000     -0.0000      0.0000      0.0000
       219        -0.0000      0.0000     -0.0000      0.0000      0.0000
       220         0.3993     -0.2591      0.0000      0.2266      0.0555
       221         0.2591      0.3993     -0.0000      0.2266      0.0555
       222         0.0000      0.0000     -0.0000      0.0000      0.0000
       223        -0.0000     -0.0000     -0.0886      0.0078      0.0018
       224        -0.0000      0.0000      0.0000      0.0000      0.0000
       225        -0.0000      0.0000      0.4028      0.1623      0.0352
       226         0.0000      0.0000      0.0000      0.0000      0.0000
       227         0.0000     -0.0000     -0.0000      0.0000      0.0000
       228         0.0000     -0.0000      0.0000      0.0000      0.0000
       229        -0.0000      0.0000      0.5581      0.3115      0.0662
       230        -0.0000     -0.0000      0.0000      0.0000      0.0000
       231        -0.0000     -0.0000      0.0000      0.0000      0.0000
       232         0.2423     -0.0305      0.0000      0.0596      0.0117
       233         0.0305      0.2423     -0.0000      0.0596      0.0117
       234         0.0943      0.3238      0.0000      0.1137      0.0215
       235         0.3238     -0.0943      0.0000      0.1137      0.0215
       236        -0.0000      0.0000      0.0000      0.0000      0.0000
       237         0.0000     -0.0000      0.0000      0.0000      0.0000
       238        -0.0000     -0.0000     -0.0000      0.0000      0.0000
       239        -0.0000     -0.0000     -0.0342      0.0012      0.0002
       240         0.0000     -0.0000     -0.0000      0.0000      0.0000
       241         0.0000      0.0000      0.0000      0.0000      0.0000
       242        -0.0000      0.0000     -0.0000      0.0000      0.0000
       243         0.0000     -0.0000      0.1997      0.0399      0.0059
       244        -0.0000     -0.0000      0.0000      0.0000      0.0000
       245        -0.0000      0.0000      0.2158      0.0466      0.0065
 Ground to excited state transition magnetic dipole moments (Au):
       state          X           Y           Z
         1         0.0000     -0.0000     -0.0000
         2        -0.0000     -0.0000     -0.0000
         3        -0.0000     -0.0000     -0.0000
         4         0.0000      0.0000     -0.0000
         5        -0.0000      0.0000     -0.0000
         6        -0.1314     -0.0298     -0.0000
         7        -0.0298      0.1314     -0.0000
         8         0.0000      0.0000     -0.0000
         9        -0.0000     -0.0000      0.0000
        10        -0.0000     -0.0000      0.0000
        11         0.1534      0.0984      0.0000
        12         0.0984     -0.1534      0.0000
        13         0.0000      0.0000     -0.0000
        14        -0.0000      0.0000      0.0000
        15         0.0000     -0.0000      0.0000
        16         0.0000      0.0000     -0.0000
        17        -0.4632      1.8529     -0.0000
        18        -1.8529     -0.4632     -0.0000
        19         0.0000      0.0000     -0.0000
        20        -0.0000      0.0000     -0.0000
        21        -0.0000      0.0000      0.0000
        22         0.0000      0.0000      0.0000
        23         0.0000     -0.0000     -0.0000
        24         0.0000     -0.0000      0.0000
        25        -0.0000      0.0000      0.0000
        26        -0.0000     -0.0000     -0.0000
        27        -0.0000     -0.0000     -0.0000
        28        -0.0000     -0.0000     -0.0000
        29        -0.0000      0.0000      0.0000
        30        -0.0000     -0.0000      0.0000
        31         0.0000     -0.0000      0.0000
        32        -0.0000     -0.0000     -0.0000
        33        -0.1451      0.0159      0.0000
        34         0.0159      0.1451     -0.0000
        35        -0.0000     -0.0000      0.0000
        36         0.0000     -0.0000     -0.0000
        37         0.0000      0.0000     -0.0000
        38         0.0000      0.0000      0.0000
        39        -0.0000      0.0000     -0.0000
        40        -0.0000      0.0000     -0.0000
        41        -0.0000      0.0000     -0.0000
        42         0.5154     -0.0388      0.0000
        43         0.0388      0.5154      0.0000
        44         0.0000     -0.0000      0.0000
        45        -0.0000     -0.0000      0.0000
        46         0.0000     -0.0000      0.0000
        47         0.0000     -0.0000     -0.0000
        48        -0.0000     -0.0000      0.0000
        49         0.0000      0.0000     -0.0000
        50        -0.0000      0.0000     -0.0000
        51        -0.0000     -0.0000     -0.0000
        52         0.2048     -0.0079      0.0000
        53        -0.0079     -0.2048     -0.0000
        54        -0.5418     -0.0713     -0.0000
        55        -0.0713      0.5418     -0.0000
        56         0.0000     -0.0000      0.0000
        57         0.0000     -0.0000     -0.0000
        58        -0.0000      0.0000      0.0000
        59        -0.0000     -0.0000     -0.0000
        60        -0.0000     -0.0000     -0.0000
        61         0.0000     -0.0000     -0.0000
        62        -0.0000     -0.0000     -0.0000
        63         0.2225      0.0835     -0.0000
        64         0.0835     -0.2225     -0.0000
        65         0.1957      0.2199      0.0000
        66        -0.2199      0.1957     -0.0000
        67        -0.0000     -0.0000      0.0000
        68         0.0000     -0.0000     -0.0000
        69        -0.0000     -0.0000     -0.0000
        70         0.0000     -0.0000     -0.0000
        71        -0.0000     -0.0000     -0.0000
        72        -0.0000     -0.0000     -0.0000
        73        -0.0000     -0.0000      0.0000
        74         0.0000      0.0000      0.0000
        75         0.0000      0.0000     -0.0000
        76        -0.0000      0.0000      0.0000
        77        -0.0000     -0.0000      0.0000
        78        -0.0000     -0.0000     -0.0000
        79        -0.0000      0.0000      0.0000
        80        -0.0000      0.0000     -0.0000
        81         0.0000     -0.0000      0.0000
        82        -0.0000     -0.0000      0.0000
        83         0.0000      0.0000     -0.0000
        84         0.0000     -0.0000     -0.0000
        85        -0.0000     -0.0000     -0.0000
        86        -0.0017     -0.2928     -0.0000
        87         0.2928     -0.0017      0.0000
        88        -0.0793      0.0015      0.0000
        89         0.0015      0.0793     -0.0000
        90        -0.0000      0.0000      0.0000
        91        -0.0000      0.0000      0.0000
        92        -0.0000      0.0000     -0.0000
        93         0.0000     -0.0000     -0.0000
        94        -0.6406      0.2865      0.0000
        95         0.2865      0.6406     -0.0000
        96        -0.0000     -0.0000      0.0000
        97         0.0000      0.0000      0.0000
        98         0.0000      0.0000     -0.0000
        99        -0.0000     -0.0000      0.0000
       100        -0.0000     -0.0000      0.0000
       101         0.0000     -0.0000      0.0000
       102        -0.0000     -0.0000     -0.0000
       103        -0.0518      0.0394     -0.0000
       104         0.0394      0.0518      0.0000
       105         0.0000      0.0000      0.0000
       106         0.0000     -0.0000     -0.0000
       107        -0.0000      0.0000      0.0000
       108         0.0000      0.0000     -0.0000
[...]
     12   0.000000D+00  0.000000D+00  0.000000D+00  0.000000D+00  0.000000D+00
     13   0.000000D+00  0.000000D+00  0.000000D+00  0.000000D+00  0.000000D+00
     14   0.000000D+00  0.000000D+00  0.000000D+00  0.000000D+00  0.000000D+00
     15   0.000000D+00  0.000000D+00  0.000000D+00  0.000000D+00  0.814305D-01
     16   0.000000D+00  0.000000D+00  0.000000D+00  0.000000D+00 -0.126118D+01
               176           177           178           179           180 
      1  -0.752924D+02 -0.752492D+02 -0.752492D+02 -0.752416D+02 -0.752150D+02
      2   0.000000D+00  0.285023D+00 -0.765025D+00  0.000000D+00  0.000000D+00
      3   0.000000D+00  0.765025D+00  0.285023D+00  0.000000D+00  0.000000D+00
      4   0.000000D+00  0.000000D+00  0.000000D+00 -0.111939D+00  0.000000D+00
      5   0.000000D+00 -0.463777D+00  0.124481D+01  0.000000D+00  0.000000D+00
      6   0.000000D+00 -0.124481D+01 -0.463777D+00  0.000000D+00  0.000000D+00
      7   0.000000D+00  0.000000D+00  0.000000D+00  0.229817D+00  0.000000D+00
      8   0.653739D-01  0.000000D+00  0.000000D+00  0.000000D+00 -0.136293D+00
      9  -0.101250D+01  0.000000D+00  0.000000D+00  0.000000D+00 -0.123880D+01
     10   0.000000D+00  0.000000D+00  0.000000D+00  0.000000D+00  0.000000D+00
     11   0.000000D+00  0.000000D+00  0.000000D+00  0.000000D+00  0.000000D+00
     12   0.000000D+00  0.000000D+00  0.000000D+00  0.000000D+00  0.000000D+00
     13   0.000000D+00  0.000000D+00  0.000000D+00  0.000000D+00  0.000000D+00
     14   0.000000D+00  0.000000D+00  0.000000D+00  0.000000D+00  0.000000D+00
     15  -0.126118D+01  0.000000D+00  0.000000D+00  0.000000D+00 -0.194753D+01
     16  -0.814305D-01  0.000000D+00  0.000000D+00  0.000000D+00  0.214268D+00
               181           182           183           184           185 
      1  -0.752150D+02 -0.751855D+02 -0.751855D+02 -0.751806D+02 -0.751477D+02
      2   0.000000D+00  0.000000D+00  0.000000D+00  0.000000D+00  0.317144D+00
      3   0.000000D+00  0.000000D+00  0.000000D+00  0.000000D+00 -0.297680D-01
      4   0.000000D+00  0.000000D+00  0.000000D+00  0.000000D+00  0.000000D+00
      5   0.000000D+00  0.000000D+00  0.000000D+00  0.000000D+00 -0.553241D+00
      6   0.000000D+00  0.000000D+00  0.000000D+00  0.000000D+00  0.519289D-01
      7   0.000000D+00  0.000000D+00  0.000000D+00  0.000000D+00  0.000000D+00
      8   0.123880D+01  0.000000D+00  0.000000D+00  0.000000D+00  0.000000D+00
      9  -0.136293D+00  0.000000D+00  0.000000D+00  0.000000D+00  0.000000D+00
     10   0.000000D+00  0.000000D+00  0.000000D+00  0.000000D+00  0.000000D+00
     11   0.000000D+00 -0.103364D+00  0.000000D+00 -0.277568D+00  0.000000D+00
     12   0.000000D+00  0.103364D+00  0.000000D+00 -0.277568D+00  0.000000D+00
     13   0.000000D+00  0.000000D+00  0.000000D+00  0.481878D+00  0.000000D+00
     14   0.000000D+00  0.000000D+00 -0.103364D+00  0.000000D+00  0.000000D+00
     15  -0.214268D+00  0.000000D+00  0.000000D+00  0.000000D+00  0.000000D+00
     16  -0.194753D+01  0.000000D+00  0.000000D+00  0.000000D+00  0.000000D+00
               186           187           188           189           190 
      1  -0.751477D+02 -0.751098D+02 -0.751098D+02 -0.751085D+02 -0.751085D+02
      2   0.297680D-01  0.000000D+00  0.000000D+00 -0.150148D+00 -0.281256D+00
      3   0.317144D+00  0.000000D+00  0.000000D+00 -0.281256D+00  0.150148D+00
      4   0.000000D+00  0.000000D+00  0.000000D+00  0.000000D+00  0.000000D+00
      5  -0.519289D-01  0.000000D+00  0.000000D+00  0.285510D+00  0.534814D+00
      6  -0.553241D+00  0.000000D+00  0.000000D+00  0.534814D+00 -0.285510D+00
      7   0.000000D+00  0.000000D+00  0.000000D+00  0.000000D+00  0.000000D+00
      8   0.000000D+00  0.000000D+00  0.000000D+00  0.000000D+00  0.000000D+00
      9   0.000000D+00  0.000000D+00  0.000000D+00  0.000000D+00  0.000000D+00
     10   0.000000D+00  0.000000D+00  0.000000D+00  0.000000D+00  0.000000D+00
     11   0.000000D+00  0.000000D+00  0.000000D+00  0.000000D+00  0.000000D+00
     12   0.000000D+00  0.000000D+00  0.000000D+00  0.000000D+00  0.000000D+00
     13   0.000000D+00  0.000000D+00  0.000000D+00  0.000000D+00  0.000000D+00
     14   0.000000D+00  0.000000D+00  0.000000D+00  0.000000D+00  0.000000D+00
     15   0.000000D+00  0.000000D+00  0.000000D+00  0.000000D+00  0.000000D+00
     16   0.000000D+00  0.000000D+00  0.000000D+00  0.000000D+00  0.000000D+00
               191           192           193           194           195 
      1  -0.750714D+02 -0.750714D+02 -0.750234D+02 -0.750234D+02 -0.750156D+02
      2   0.000000D+00  0.000000D+00  0.000000D+00  0.000000D+00  0.000000D+00
      3   0.000000D+00  0.000000D+00  0.000000D+00  0.000000D+00  0.000000D+00
      4   0.000000D+00  0.000000D+00  0.000000D+00  0.000000D+00  0.000000D+00
      5   0.000000D+00  0.000000D+00  0.000000D+00  0.000000D+00  0.000000D+00
      6   0.000000D+00  0.000000D+00  0.000000D+00  0.000000D+00  0.000000D+00
      7   0.000000D+00  0.000000D+00  0.000000D+00  0.000000D+00  0.000000D+00
      8   0.000000D+00  0.000000D+00  0.000000D+00  0.000000D+00  0.000000D+00
      9   0.000000D+00  0.000000D+00  0.000000D+00  0.000000D+00  0.000000D+00
     10   0.000000D+00  0.000000D+00  0.000000D+00  0.000000D+00  0.000000D+00
     11   0.000000D+00  0.000000D+00  0.000000D+00 -0.188406D+00  0.000000D+00
     12   0.000000D+00  0.000000D+00  0.000000D+00  0.188406D+00  0.000000D+00
     13   0.000000D+00  0.000000D+00  0.000000D+00  0.000000D+00  0.000000D+00
     14   0.000000D+00  0.000000D+00 -0.188406D+00  0.000000D+00  0.000000D+00
     15   0.000000D+00  0.000000D+00  0.000000D+00  0.000000D+00  0.000000D+00
     16   0.000000D+00  0.000000D+00  0.000000D+00  0.000000D+00  0.000000D+00
               196           197           198           199           200 
      1  -0.749987D+02 -0.749840D+02 -0.749840D+02 -0.749793D+02 -0.749740D+02
      2   0.000000D+00  0.000000D+00  0.000000D+00  0.000000D+00  0.000000D+00
      3   0.000000D+00  0.000000D+00  0.000000D+00  0.000000D+00  0.000000D+00
      4   0.922662D-01  0.000000D+00  0.000000D+00  0.000000D+00  0.000000D+00
      5   0.000000D+00  0.000000D+00  0.000000D+00  0.000000D+00  0.000000D+00
      6   0.000000D+00  0.000000D+00  0.000000D+00  0.000000D+00  0.000000D+00
      7  -0.158648D+00  0.000000D+00  0.000000D+00  0.000000D+00  0.000000D+00
      8   0.000000D+00  0.502230D+00  0.130106D+01  0.000000D+00 -0.589052D-03
      9   0.000000D+00  0.130106D+01 -0.502230D+00  0.000000D+00  0.982942D-02
     10   0.000000D+00  0.000000D+00  0.000000D+00  0.000000D+00  0.000000D+00
     11   0.000000D+00  0.000000D+00  0.000000D+00 -0.362350D+00  0.000000D+00
     12   0.000000D+00  0.000000D+00  0.000000D+00 -0.362350D+00  0.000000D+00
     13   0.000000D+00  0.000000D+00  0.000000D+00 -0.575925D+00  0.000000D+00
     14   0.000000D+00  0.000000D+00  0.000000D+00  0.000000D+00  0.000000D+00
     15   0.000000D+00  0.185145D+01 -0.714689D+00  0.000000D+00  0.162024D+00
     16   0.000000D+00 -0.714689D+00 -0.185145D+01  0.000000D+00  0.970969D-02
               201           202           203           204           205 
      1  -0.749740D+02 -0.749446D+02 -0.749446D+02 -0.749255D+02 -0.749255D+02
      2   0.000000D+00 -0.109585D+00  0.933002D-01  0.000000D+00  0.000000D+00
      3   0.000000D+00 -0.933002D-01 -0.109585D+00  0.000000D+00  0.000000D+00
      4   0.000000D+00  0.000000D+00  0.000000D+00  0.000000D+00  0.000000D+00
      5   0.000000D+00  0.199228D+00 -0.169622D+00  0.000000D+00  0.000000D+00
      6   0.000000D+00  0.169622D+00  0.199228D+00  0.000000D+00  0.000000D+00
      7   0.000000D+00  0.000000D+00  0.000000D+00  0.000000D+00  0.000000D+00
      8  -0.982942D-02  0.000000D+00  0.000000D+00  0.000000D+00  0.000000D+00
      9  -0.589052D-03  0.000000D+00  0.000000D+00  0.000000D+00  0.000000D+00
     10   0.000000D+00  0.000000D+00  0.000000D+00  0.000000D+00  0.000000D+00
     11   0.000000D+00  0.000000D+00  0.000000D+00  0.695507D+00  0.000000D+00
     12   0.000000D+00  0.000000D+00  0.000000D+00 -0.695507D+00  0.000000D+00
     13   0.000000D+00  0.000000D+00  0.000000D+00  0.000000D+00  0.000000D+00
     14   0.000000D+00  0.000000D+00  0.000000D+00  0.000000D+00  0.695507D+00
     15  -0.970969D-02  0.000000D+00  0.000000D+00  0.000000D+00  0.000000D+00
     16   0.162024D+00  0.000000D+00  0.000000D+00  0.000000D+00  0.000000D+00
               206           207           208           209           210 
      1  -0.748444D+02 -0.748444D+02 -0.748059D+02 -0.748059D+02 -0.747640D+02
      2   0.000000D+00  0.000000D+00  0.162989D+00  0.166321D-02  0.000000D+00
      3   0.000000D+00  0.000000D+00 -0.166321D-02  0.162989D+00  0.000000D+00
      4   0.000000D+00  0.000000D+00  0.000000D+00  0.000000D+00  0.000000D+00
      5   0.000000D+00  0.000000D+00 -0.351926D+00 -0.359119D-02  0.000000D+00
      6   0.000000D+00  0.000000D+00  0.359119D-02 -0.351926D+00  0.000000D+00
      7   0.000000D+00  0.000000D+00  0.000000D+00  0.000000D+00  0.000000D+00
      8   0.000000D+00  0.000000D+00  0.000000D+00  0.000000D+00  0.000000D+00
      9   0.000000D+00  0.000000D+00  0.000000D+00  0.000000D+00  0.000000D+00
     10   0.000000D+00  0.000000D+00  0.000000D+00  0.000000D+00  0.000000D+00
     11   0.000000D+00  0.000000D+00  0.000000D+00  0.000000D+00  0.478300D+00
     12   0.000000D+00  0.000000D+00  0.000000D+00  0.000000D+00 -0.478300D+00
     13   0.000000D+00  0.000000D+00  0.000000D+00  0.000000D+00  0.000000D+00
     14   0.000000D+00  0.000000D+00  0.000000D+00  0.000000D+00  0.000000D+00
     15   0.000000D+00  0.000000D+00  0.000000D+00  0.000000D+00  0.000000D+00
     16   0.000000D+00  0.000000D+00  0.000000D+00  0.000000D+00  0.000000D+00
               211           212           213           214           215 
      1  -0.747640D+02 -0.747536D+02 -0.747536D+02 -0.747206D+02 -0.746680D+02
      2   0.000000D+00  0.000000D+00  0.000000D+00  0.000000D+00  0.000000D+00
      3   0.000000D+00  0.000000D+00  0.000000D+00  0.000000D+00  0.000000D+00
      4   0.000000D+00  0.000000D+00  0.000000D+00  0.000000D+00  0.318418D-01
      5   0.000000D+00  0.000000D+00  0.000000D+00  0.000000D+00  0.000000D+00
      6   0.000000D+00  0.000000D+00  0.000000D+00  0.000000D+00  0.000000D+00
      7   0.000000D+00  0.000000D+00  0.000000D+00  0.000000D+00 -0.998843D-01
      8   0.000000D+00  0.551503D-01 -0.373895D+00  0.000000D+00  0.000000D+00
      9   0.000000D+00  0.373895D+00  0.551503D-01  0.000000D+00  0.000000D+00
     10   0.000000D+00  0.000000D+00  0.000000D+00  0.000000D+00  0.000000D+00
     11   0.000000D+00  0.000000D+00  0.000000D+00  0.147469D-01  0.000000D+00
     12   0.000000D+00  0.000000D+00  0.000000D+00  0.147469D-01  0.000000D+00
     13   0.000000D+00  0.000000D+00  0.000000D+00 -0.126026D+00  0.000000D+00
     14   0.478300D+00  0.000000D+00  0.000000D+00  0.000000D+00  0.000000D+00
     15   0.000000D+00  0.731132D+00  0.107844D+00  0.000000D+00  0.000000D+00
     16   0.000000D+00 -0.107844D+00  0.731132D+00  0.000000D+00  0.000000D+00
               216           217           218           219           220 
      1  -0.746594D+02 -0.746594D+02 -0.746003D+02 -0.746003D+02 -0.745537D+02
      2   0.000000D+00  0.000000D+00  0.000000D+00  0.000000D+00 -0.180323D+00
      3   0.000000D+00  0.000000D+00  0.000000D+00  0.000000D+00  0.117006D+00
      4   0.000000D+00  0.000000D+00  0.000000D+00  0.000000D+00  0.000000D+00
      5   0.000000D+00  0.000000D+00  0.000000D+00  0.000000D+00  0.399308D+00
      6   0.000000D+00  0.000000D+00  0.000000D+00  0.000000D+00 -0.259098D+00
      7   0.000000D+00  0.000000D+00  0.000000D+00  0.000000D+00  0.000000D+00
      8  -0.164692D-03  0.224539D-01  0.000000D+00  0.000000D+00  0.000000D+00
      9  -0.224539D-01 -0.164692D-03  0.000000D+00  0.000000D+00  0.000000D+00
     10   0.000000D+00  0.000000D+00  0.000000D+00  0.000000D+00  0.000000D+00
     11   0.000000D+00  0.000000D+00  0.000000D+00  0.000000D+00  0.000000D+00
     12   0.000000D+00  0.000000D+00  0.000000D+00  0.000000D+00  0.000000D+00
     13   0.000000D+00  0.000000D+00  0.000000D+00  0.000000D+00  0.000000D+00
     14   0.000000D+00  0.000000D+00  0.000000D+00  0.000000D+00  0.000000D+00
     15  -0.228205D+00 -0.167381D-02  0.000000D+00  0.000000D+00  0.000000D+00
     16   0.167381D-02 -0.228205D+00  0.000000D+00  0.000000D+00  0.000000D+00
               221           222           223           224           225 
      1  -0.745537D+02 -0.744930D+02 -0.744407D+02 -0.743807D+02 -0.742053D+02
      2  -0.117006D+00  0.000000D+00  0.000000D+00  0.000000D+00  0.000000D+00
      3  -0.180323D+00  0.000000D+00  0.000000D+00  0.000000D+00  0.000000D+00
      4   0.000000D+00  0.000000D+00  0.475631D-01  0.000000D+00 -0.137988D+00
      5   0.259098D+00  0.000000D+00  0.000000D+00  0.000000D+00  0.000000D+00
      6   0.399308D+00  0.000000D+00  0.000000D+00  0.000000D+00  0.000000D+00
      7   0.000000D+00  0.000000D+00 -0.885846D-01  0.000000D+00  0.402824D+00
      8   0.000000D+00  0.000000D+00  0.000000D+00  0.000000D+00  0.000000D+00
      9   0.000000D+00  0.000000D+00  0.000000D+00  0.000000D+00  0.000000D+00
     10   0.000000D+00  0.000000D+00  0.000000D+00  0.000000D+00  0.000000D+00
     11   0.000000D+00 -0.544221D-01  0.000000D+00 -0.526311D-01  0.000000D+00
     12   0.000000D+00 -0.544221D-01  0.000000D+00 -0.526311D-01  0.000000D+00
     13   0.000000D+00  0.663880D+00  0.000000D+00 -0.193922D-01  0.000000D+00
     14   0.000000D+00  0.000000D+00  0.000000D+00  0.000000D+00  0.000000D+00
     15   0.000000D+00  0.000000D+00  0.000000D+00  0.000000D+00  0.000000D+00
     16   0.000000D+00  0.000000D+00  0.000000D+00  0.000000D+00  0.000000D+00
               226           227           228           229           230 
      1  -0.741776D+02 -0.741776D+02 -0.741573D+02 -0.741410D+02 -0.739525D+02
      2   0.000000D+00  0.000000D+00  0.000000D+00  0.000000D+00  0.000000D+00
      3   0.000000D+00  0.000000D+00  0.000000D+00  0.000000D+00  0.000000D+00
      4   0.000000D+00  0.000000D+00  0.000000D+00 -0.168844D+00  0.000000D+00
      5   0.000000D+00  0.000000D+00  0.000000D+00  0.000000D+00  0.000000D+00
      6   0.000000D+00  0.000000D+00  0.000000D+00  0.000000D+00  0.000000D+00
      7   0.000000D+00  0.000000D+00  0.000000D+00  0.558128D+00  0.000000D+00
      8   0.000000D+00  0.000000D+00  0.000000D+00  0.000000D+00  0.713011D-01
      9   0.000000D+00  0.000000D+00  0.000000D+00  0.000000D+00  0.294463D+00
     10   0.000000D+00  0.000000D+00  0.000000D+00  0.000000D+00  0.000000D+00
     11   0.000000D+00  0.000000D+00  0.000000D+00  0.000000D+00  0.000000D+00
     12   0.000000D+00  0.000000D+00  0.000000D+00  0.000000D+00  0.000000D+00
     13   0.000000D+00  0.000000D+00  0.000000D+00  0.000000D+00  0.000000D+00
     14   0.000000D+00  0.000000D+00  0.000000D+00  0.000000D+00  0.000000D+00
     15   0.000000D+00  0.000000D+00  0.000000D+00  0.000000D+00  0.421790D+00
     16   0.000000D+00  0.000000D+00  0.000000D+00  0.000000D+00 -0.102132D+00
               231           232           233           234           235 
      1  -0.739525D+02 -0.738894D+02 -0.738894D+02 -0.737527D+02 -0.737527D+02
      2   0.000000D+00 -0.843232D-01 -0.106161D-01 -0.333712D-01 -0.114574D+00
      3   0.000000D+00  0.106161D-01 -0.843232D-01 -0.114574D+00  0.333712D-01
      4   0.000000D+00  0.000000D+00  0.000000D+00  0.000000D+00  0.000000D+00
      5   0.000000D+00  0.242276D+00  0.305021D-01  0.943076D-01  0.323789D+00
      6   0.000000D+00 -0.305021D-01  0.242276D+00  0.323789D+00 -0.943076D-01
      7   0.000000D+00  0.000000D+00  0.000000D+00  0.000000D+00  0.000000D+00
      8  -0.294463D+00  0.000000D+00  0.000000D+00  0.000000D+00  0.000000D+00
      9   0.713011D-01  0.000000D+00  0.000000D+00  0.000000D+00  0.000000D+00
     10   0.000000D+00  0.000000D+00  0.000000D+00  0.000000D+00  0.000000D+00
     11   0.000000D+00  0.000000D+00  0.000000D+00  0.000000D+00  0.000000D+00
     12   0.000000D+00  0.000000D+00  0.000000D+00  0.000000D+00  0.000000D+00
     13   0.000000D+00  0.000000D+00  0.000000D+00  0.000000D+00  0.000000D+00
     14   0.000000D+00  0.000000D+00  0.000000D+00  0.000000D+00  0.000000D+00
     15   0.102132D+00  0.000000D+00  0.000000D+00  0.000000D+00  0.000000D+00
     16   0.421790D+00  0.000000D+00  0.000000D+00  0.000000D+00  0.000000D+00
               236           237           238           239           240 
      1  -0.737204D+02 -0.737204D+02 -0.735319D+02 -0.734773D+02 -0.732944D+02
      2   0.000000D+00  0.000000D+00  0.000000D+00  0.000000D+00  0.000000D+00
      3   0.000000D+00  0.000000D+00  0.000000D+00  0.000000D+00  0.000000D+00
      4   0.000000D+00  0.000000D+00  0.000000D+00  0.331253D-02  0.000000D+00
      5   0.000000D+00  0.000000D+00  0.000000D+00  0.000000D+00  0.000000D+00
      6   0.000000D+00  0.000000D+00  0.000000D+00  0.000000D+00  0.000000D+00
      7   0.000000D+00  0.000000D+00  0.000000D+00 -0.342056D-01  0.000000D+00
      8   0.283434D-02  0.313923D-01  0.000000D+00  0.000000D+00  0.000000D+00
      9  -0.313923D-01  0.283434D-02  0.000000D+00  0.000000D+00  0.000000D+00
     10   0.000000D+00  0.000000D+00  0.000000D+00  0.000000D+00  0.000000D+00
     11   0.000000D+00  0.000000D+00 -0.328899D-01  0.000000D+00  0.161800D+00
     12   0.000000D+00  0.000000D+00 -0.328899D-01  0.000000D+00  0.161800D+00
     13   0.000000D+00  0.000000D+00 -0.103496D+01  0.000000D+00  0.108291D+01
     14   0.000000D+00  0.000000D+00  0.000000D+00  0.000000D+00  0.000000D+00
     15  -0.286775D+00  0.258922D-01  0.000000D+00  0.000000D+00  0.000000D+00
     16  -0.258922D-01 -0.286775D+00  0.000000D+00  0.000000D+00  0.000000D+00
               241           242           243           244           245 
      1  -0.729939D+02 -0.729939D+02 -0.727802D+02 -0.727150D+02 -0.725335D+02
      2   0.000000D+00  0.000000D+00  0.000000D+00  0.000000D+00  0.000000D+00
      3   0.000000D+00  0.000000D+00  0.000000D+00  0.000000D+00  0.000000D+00
      4   0.000000D+00  0.000000D+00 -0.522675D-01  0.000000D+00 -0.522691D-01
      5   0.000000D+00  0.000000D+00  0.000000D+00  0.000000D+00  0.000000D+00
      6   0.000000D+00  0.000000D+00  0.000000D+00  0.000000D+00  0.000000D+00
      7   0.000000D+00  0.000000D+00  0.199696D+00  0.000000D+00  0.215835D+00
      8   0.267998D+00  0.232244D+00  0.000000D+00  0.000000D+00  0.000000D+00
      9   0.232244D+00 -0.267998D+00  0.000000D+00  0.000000D+00  0.000000D+00
     10   0.000000D+00  0.000000D+00  0.000000D+00  0.000000D+00  0.000000D+00
     11   0.000000D+00  0.000000D+00  0.000000D+00 -0.166473D+00  0.000000D+00
     12   0.000000D+00  0.000000D+00  0.000000D+00 -0.166473D+00  0.000000D+00
     13   0.000000D+00  0.000000D+00  0.000000D+00  0.763437D+00  0.000000D+00
     14   0.000000D+00  0.000000D+00  0.000000D+00  0.000000D+00  0.000000D+00
     15   0.279674D+00 -0.322729D+00  0.000000D+00  0.000000D+00  0.000000D+00
     16  -0.322729D+00 -0.279674D+00  0.000000D+00  0.000000D+00  0.000000D+00
 Unable to Open any file for archive entry.
 1\1\GINC-HEL11\SP\RB3LYP TD-FC\Gen\C2H2\SABYASACHI\21-Mar-2022\0\\#P T
 D(Nstates=10000) b3lyp/Gen SCF(maxcycles=100) Int(Grid=ultrafine)\\xGD
 B7_00001_tier4.com\\0,1\C,0,0.,0.,0.597322\C,0,0.,0.,-0.597322\H,0,0.,
 0.,1.661338\H,0,0.,0.,-1.661338\\Version=EM64L-G16RevC.01\State=1-SGG\
 HF=-77.2764868\RMSD=8.284e-09\PG=D*H [C*(H1C1.C1H1)]\\@
 The archive entry for this job was punched.


 My opinions may have changed, but not the fact that I am right.
                       -- Ashleigh Brilliant
 Job cpu time:       0 days  0 hours  0 minutes 33.3 seconds.
 Elapsed time:       0 days  0 hours  0 minutes  4.4 seconds.
 File lengths (MBytes):  RWF=     81 Int=      0 D2E=      0 Chk=     20 Scr=      1
 Normal termination of Gaussian 16 at Mon Mar 21 20:04:23 2022.
