 Entering Gaussian System, Link 0=g16
 Input=000029.com
 Output=000029.log
 Initial command:
 /home/sabyasachi/g16/l1.exe "/scratch/sabyasachi/PBS_7976031.helios/Gau-153986.inp" -scrdir="/scratch/sabyasachi/PBS_7976031.helios/"
 Entering Link 1 = /home/sabyasachi/g16/l1.exe PID=    153987.
  
 Copyright (c) 1988-2019, Gaussian, Inc.  All Rights Reserved.
  
 This is part of the Gaussian(R) 16 program.  It is based on
 the Gaussian(R) 09 system (copyright 2009, Gaussian, Inc.),
 the Gaussian(R) 03 system (copyright 2003, Gaussian, Inc.),
 the Gaussian(R) 98 system (copyright 1998, Gaussian, Inc.),
 the Gaussian(R) 94 system (copyright 1995, Gaussian, Inc.),
 the Gaussian 92(TM) system (copyright 1992, Gaussian, Inc.),
 the Gaussian 90(TM) system (copyright 1990, Gaussian, Inc.),
 the Gaussian 88(TM) system (copyright 1988, Gaussian, Inc.),
 the Gaussian 86(TM) system (copyright 1986, Carnegie Mellon
 University), and the Gaussian 82(TM) system (copyright 1983,
 Carnegie Mellon University). Gaussian is a federally registered
 trademark of Gaussian, Inc.
  
 This software contains proprietary and confidential information,
 including trade secrets, belonging to Gaussian, Inc.
  
 This software is provided under written license and may be
 used, copied, transmitted, or stored only in accord with that
 written license.
  
 The following legend is applicable only to US Government
 contracts under FAR:
  
                    RESTRICTED RIGHTS LEGEND
  
 Use, reproduction and disclosure by the US Government is
 subject to restrictions as set forth in subparagraphs (a)
 and (c) of the Commercial Computer Software - Restricted
 Rights clause in FAR 52.227-19.
  
 Gaussian, Inc.
 340 Quinnipiac St., Bldg. 40, Wallingford CT 06492
  
  
 ---------------------------------------------------------------
 Warning -- This program may not be used in any manner that
 competes with the business of Gaussian, Inc. or will provide
 assistance to any competitor of Gaussian, Inc.  The licensee
 of this program is prohibited from giving any competitor of
 Gaussian, Inc. access to this program.  By using this program,
 the user acknowledges that Gaussian, Inc. is engaged in the
 business of creating and licensing software in the field of
 computational chemistry and represents and warrants to the
 licensee that it is not a competitor of Gaussian, Inc. and that
 it will not use this program in any manner prohibited above.
 ---------------------------------------------------------------
  

 Cite this work as:
 Gaussian 16, Revision C.01,
 M. J. Frisch, G. W. Trucks, H. B. Schlegel, G. E. Scuseria, 
 M. A. Robb, J. R. Cheeseman, G. Scalmani, V. Barone, 
 G. A. Petersson, H. Nakatsuji, X. Li, M. Caricato, A. V. Marenich, 
 J. Bloino, B. G. Janesko, R. Gomperts, B. Mennucci, H. P. Hratchian, 
 J. V. Ortiz, A. F. Izmaylov, J. L. Sonnenberg, D. Williams-Young, 
 F. Ding, F. Lipparini, F. Egidi, J. Goings, B. Peng, A. Petrone, 
 T. Henderson, D. Ranasinghe, V. G. Zakrzewski, J. Gao, N. Rega, 
 G. Zheng, W. Liang, M. Hada, M. Ehara, K. Toyota, R. Fukuda, 
 J. Hasegawa, M. Ishida, T. Nakajima, Y. Honda, O. Kitao, H. Nakai, 
 T. Vreven, K. Throssell, J. A. Montgomery, Jr., J. E. Peralta, 
 F. Ogliaro, M. J. Bearpark, J. J. Heyd, E. N. Brothers, K. N. Kudin, 
 V. N. Staroverov, T. A. Keith, R. Kobayashi, J. Normand, 
 K. Raghavachari, A. P. Rendell, J. C. Burant, S. S. Iyengar, 
 J. Tomasi, M. Cossi, J. M. Millam, M. Klene, C. Adamo, R. Cammi, 
 J. W. Ochterski, R. L. Martin, K. Morokuma, O. Farkas, 
 J. B. Foresman, and D. J. Fox, Gaussian, Inc., Wallingford CT, 2019.
 
 ******************************************
 Gaussian 16:  EM64L-G16RevC.01  3-Jul-2019
                21-Mar-2022 
 ******************************************
 %mem=64gb
 %nproc=8
 Will use up to    8 processors via shared memory.
 ---------------------------------------------------------------------
 #P TD(Nstates=10000) b3lyp/Gen SCF(maxcycles=100) Int(Grid=ultrafine)
 ---------------------------------------------------------------------
 1/38=1,172=1/1;
 2/12=2,17=6,18=5,40=1/2;
 3/5=7,11=9,25=1,30=1,74=-5,75=-5/1,2,3,8;
 4//1;
 5/5=2,7=100,38=5/2;
 8/6=1,10=1,108=10000/1;
 9/41=10000,42=1,70=2/14;
 6/7=2,8=2,9=2,10=2/1;
 99/5=1,9=1/99;
 Leave Link    1 at Mon Mar 21 20:07:53 2022, MaxMem=  8589934592 cpu:               0.4 elap:               0.1
 (Enter /home/sabyasachi/g16/l101.exe)
 ---------------------
 xGDB7_00001_tier4.com
 ---------------------
 Symbolic Z-matrix:
 Charge =  0 Multiplicity = 1
 8                    -1.02862  -0.39518   0. 
 7                     0.        0.52623   0. 
 6                     1.13275  -0.03091   0. 
 1                    -1.81657   0.15179   0. 
 1                     1.99426   0.62344   0. 
 1                     1.2548   -1.11197   0. 
 
 ITRead=  0  0  0  0  0  0
 MicOpt= -1 -1 -1 -1 -1 -1
 NAtoms=      6 NQM=        6 NQMF=       0 NMMI=      0 NMMIF=      0
                NMic=       0 NMicF=      0.
                    Isotopes and Nuclear Properties:
 (Nuclear quadrupole moments (NQMom) in fm**2, nuclear magnetic moments (NMagM)
  in nuclear magnetons)

  Atom         1           2           3           4           5           6
 IAtWgt=          16          14          12           1           1           1
 AtmWgt=  15.9949146  14.0030740  12.0000000   1.0078250   1.0078250   1.0078250
 NucSpn=           0           2           0           1           1           1
 AtZEff=  -0.0000000  -0.0000000  -0.0000000  -0.0000000  -0.0000000  -0.0000000
 NQMom=    0.0000000   2.0440000   0.0000000   0.0000000   0.0000000   0.0000000
 NMagM=    0.0000000   0.4037610   0.0000000   2.7928460   2.7928460   2.7928460
 AtZNuc=   8.0000000   7.0000000   6.0000000   1.0000000   1.0000000   1.0000000
 Leave Link  101 at Mon Mar 21 20:07:54 2022, MaxMem=  8589934592 cpu:               0.6 elap:               0.1
 (Enter /home/sabyasachi/g16/l202.exe)
                          Input orientation:                          
 ---------------------------------------------------------------------
 Center     Atomic      Atomic             Coordinates (Angstroms)
 Number     Number       Type             X           Y           Z
 ---------------------------------------------------------------------
      1          8           0       -1.028621   -0.395177    0.000000
      2          7           0        0.000000    0.526228    0.000000
      3          6           0        1.132746   -0.030907    0.000000
      4          1           0       -1.816572    0.151791    0.000000
      5          1           0        1.994262    0.623439    0.000000
      6          1           0        1.254802   -1.111965    0.000000
 ---------------------------------------------------------------------
                    Distance matrix (angstroms):
                    1          2          3          4          5
     1  O    0.000000
     2  N    1.380959   0.000000
     3  C    2.191849   1.262344   0.000000
     4  H    0.959188   1.854761   2.954971   0.000000
     5  H    3.189890   1.996630   1.081840   3.839910   0.000000
     6  H    2.393283   2.063542   1.087926   3.321207   1.886380
                    6
     6  H    0.000000
 Stoichiometry    CH3NO
 Framework group  CS[SG(CH3NO)]
 Deg. of freedom     9
 Full point group                 CS      NOp   2
 Largest Abelian subgroup         CS      NOp   2
 Largest concise Abelian subgroup C1      NOp   1
                         Standard orientation:                         
 ---------------------------------------------------------------------
 Center     Atomic      Atomic             Coordinates (Angstroms)
 Number     Number       Type             X           Y           Z
 ---------------------------------------------------------------------
      1          8           0       -1.028621   -0.395177   -0.000000
      2          7           0       -0.000000    0.526228   -0.000000
      3          6           0        1.132746   -0.030907    0.000000
      4          1           0       -1.816572    0.151791   -0.000000
      5          1           0        1.994262    0.623439    0.000000
      6          1           0        1.254802   -1.111965    0.000000
 ---------------------------------------------------------------------
 Rotational constants (GHZ):          71.1254820          11.9936263          10.2630126
 Leave Link  202 at Mon Mar 21 20:07:54 2022, MaxMem=  8589934592 cpu:               0.1 elap:               0.0
 (Enter /home/sabyasachi/g16/l301.exe)
 General basis read from cards:  (5D, 7F)
 Centers:       4      5      6
 S 3 1.00
     Exponent=  1.3010701000D+01 Coefficients=  1.9682158000D-02
     Exponent=  1.9622572000D+00 Coefficients=  1.3796524000D-01
     Exponent=  4.4453796000D-01 Coefficients=  4.7831935000D-01
 S 1 1.00
     Exponent=  1.2194962000D-01 Coefficients=  1.0000000000D+00
 P 1 1.00
     Exponent=  8.0000000000D-01 Coefficients=  1.0000000000D+00
 P 1 1.00
     Exponent=  1.1704099050D-01 Coefficients=  1.0000000000D+00
 ****
 Centers:       3
 S 5 1.00
     Exponent=  1.2384016938D+03 Coefficients=  5.4568832082D-03
     Exponent=  1.8629004992D+02 Coefficients=  4.0638409211D-02
     Exponent=  4.2251176346D+01 Coefficients=  1.8025593888D-01
     Exponent=  1.1676557932D+01 Coefficients=  4.6315121755D-01
     Exponent=  3.5930506482D+00 Coefficients=  4.4087173314D-01
 S 1 1.00
     Exponent=  4.0245147363D-01 Coefficients=  1.0000000000D+00
 S 1 1.00
     Exponent=  1.3090182668D-01 Coefficients=  1.0000000000D+00
 S 1 1.00
     Exponent=  6.7053540256D-02 Coefficients=  1.0000000000D+00
 P 3 1.00
     Exponent=  9.4680970621D+00 Coefficients=  3.8387871728D-02
     Exponent=  2.0103545142D+00 Coefficients=  2.1117025112D-01
     Exponent=  5.4771004707D-01 Coefficients=  5.1328172114D-01
 P 1 1.00
     Exponent=  1.5268613795D-01 Coefficients=  1.0000000000D+00
 D 1 1.00
     Exponent=  8.0000000000D-01 Coefficients=  1.0000000000D+00
 D 1 1.00
     Exponent=  1.1713185140D-01 Coefficients=  1.0000000000D+00
 ****
 Centers:       2
 S 5 1.00
     Exponent=  1.7128415853D+03 Coefficients= -5.3934125305D-03
     Exponent=  2.5764812677D+02 Coefficients= -4.0221581118D-02
     Exponent=  5.8458245853D+01 Coefficients= -1.7931144990D-01
     Exponent=  1.6198367905D+01 Coefficients= -4.6376317823D-01
     Exponent=  5.0052600809D+00 Coefficients= -4.4171422662D-01
 S 1 1.00
     Exponent=  5.8731856571D-01 Coefficients=  1.0000000000D+00
 S 1 1.00
     Exponent=  1.8764592253D-01 Coefficients=  1.0000000000D+00
 S 1 1.00
     Exponent=  9.6171241529D-02 Coefficients=  1.0000000000D+00
 P 3 1.00
     Exponent=  1.3571470233D+01 Coefficients= -4.0072398852D-02
     Exponent=  2.9257372874D+00 Coefficients= -2.1807045028D-01
     Exponent=  7.9927750754D-01 Coefficients= -5.1294466049D-01
 P 1 1.00
     Exponent=  2.1954348034D-01 Coefficients=  1.0000000000D+00
 D 1 1.00
     Exponent=  1.0000000000D+00 Coefficients=  1.0000000000D+00
 D 1 1.00
     Exponent=  1.6697708112D-01 Coefficients=  1.0000000000D+00
 ****
 Centers:       1
 S 5 1.00
     Exponent=  2.2661767785D+03 Coefficients= -5.3431809926D-03
     Exponent=  3.4087010191D+02 Coefficients= -3.9890039230D-02
     Exponent=  7.7363135167D+01 Coefficients= -1.7853911985D-01
     Exponent=  2.1479644940D+01 Coefficients= -4.6427684959D-01
     Exponent=  6.6589433124D+00 Coefficients= -4.4309745172D-01
 S 1 1.00
     Exponent=  8.0975975668D-01 Coefficients=  1.0000000000D+00
 S 1 1.00
     Exponent=  2.5530772234D-01 Coefficients=  1.0000000000D+00
 S 1 1.00
     Exponent=  7.6572453250D-02 Coefficients=  1.0000000000D+00
 P 3 1.00
     Exponent=  1.7721504317D+01 Coefficients=  4.3394573193D-02
     Exponent=  3.8635505440D+00 Coefficients=  2.3094120765D-01
     Exponent=  1.0480920883D+00 Coefficients=  5.1375311064D-01
 P 1 1.00
     Exponent=  2.7641544411D-01 Coefficients=  1.0000000000D+00
 P 1 1.00
     Exponent=  6.9002276350D-02 Coefficients=  1.0000000000D+00
 D 1 1.00
     Exponent=  1.2000000000D+00 Coefficients=  1.0000000000D+00
 D 1 1.00
     Exponent=  1.7992024323D-01 Coefficients=  1.0000000000D+00
 ****
 Ernie: Thresh=  0.10000D-02 Tol=  0.10000D-05 Strict=F.
 There are    68 symmetry adapted cartesian basis functions of A'  symmetry.
 There are    25 symmetry adapted cartesian basis functions of A"  symmetry.
 There are    62 symmetry adapted basis functions of A'  symmetry.
 There are    25 symmetry adapted basis functions of A"  symmetry.
    87 basis functions,   129 primitive gaussians,    93 cartesian basis functions
    12 alpha electrons       12 beta electrons
       nuclear repulsion energy        71.3165683749 Hartrees.
 IExCor=  402 DFT=T Ex+Corr=B3LYP ExCW=0 ScaHFX=  0.200000
 ScaDFX=  0.800000  0.720000  1.000000  0.810000 ScalE2=  1.000000  1.000000
 IRadAn=      5 IRanWt=     -1 IRanGd=            0 ICorTp=0 IEmpDi=  4
 NAtoms=    6 NActive=    6 NUniq=    6 SFac= 1.00D+00 NAtFMM=   60 NAOKFM=F Big=F
 Integral buffers will be    131072 words long.
 Regular integral format.
 Two-electron integral symmetry is turned on.
 Leave Link  301 at Mon Mar 21 20:07:54 2022, MaxMem=  8589934592 cpu:               0.5 elap:               0.1
 (Enter /home/sabyasachi/g16/l302.exe)
 NPDir=0 NMtPBC=     1 NCelOv=     1 NCel=       1 NClECP=     1 NCelD=      1
         NCelK=      1 NCelE2=     1 NClLst=     1 CellRange=     0.0.
 One-electron integrals computed using PRISM.
 One-electron integral symmetry used in STVInt
 NBasis=    87 RedAO= T EigKep=  4.94D-04  NBF=    62    25
 NBsUse=    87 1.00D-06 EigRej= -1.00D+00 NBFU=    62    25
 Precomputing XC quadrature grid using
 IXCGrd= 4 IRadAn=           5 IRanWt=          -1 IRanGd=           0 AccXCQ= 0.00D+00.
 Generated NRdTot=       0 NPtTot=           0 NUsed=           0 NTot=          32
 NSgBfM=    93    93    93    93    93 MxSgAt=     6 MxSgA2=     6.
 Leave Link  302 at Mon Mar 21 20:07:54 2022, MaxMem=  8589934592 cpu:               0.9 elap:               0.1
 (Enter /home/sabyasachi/g16/l303.exe)
 DipDrv:  MaxL=1.
 Leave Link  303 at Mon Mar 21 20:07:54 2022, MaxMem=  8589934592 cpu:               0.2 elap:               0.0
 (Enter /home/sabyasachi/g16/l308.exe)
 Leave Link  308 at Mon Mar 21 20:07:54 2022, MaxMem=  8589934592 cpu:               0.2 elap:               0.0
 (Enter /home/sabyasachi/g16/l401.exe)
 ExpMin= 6.71D-02 ExpMax= 2.27D+03 ExpMxC= 3.41D+02 IAcc=3 IRadAn=         5 AccDes= 0.00D+00
 Harris functional with IExCor=  402 and IRadAn=       5 diagonalized for initial guess.
 HarFok:  IExCor=  402 AccDes= 0.00D+00 IRadAn=         5 IDoV= 1 UseB2=F ITyADJ=14
 ICtDFT=  3500011 ScaDFX=  1.000000  1.000000  1.000000  1.000000
 FoFCou: FMM=F IPFlag=           0 FMFlag=      100000 FMFlg1=           0
         NFxFlg=           0 DoJE=T BraDBF=F KetDBF=T FulRan=T
         wScrn=  0.000000 ICntrl=       500 IOpCl=  0 I1Cent=   200000004 NGrid=           0
         NMat0=    1 NMatS0=      1 NMatT0=    0 NMatD0=    1 NMtDS0=    0 NMtDT0=    0
 Petite list used in FoFCou.
 Harris En= -169.699537708382    
 JPrj=0 DoOrth=F DoCkMO=F.
 Initial guess orbital symmetries:
       Occupied  (A') (A') (A') (A') (A') (A') (A') (A') (A') (A")
                 (A') (A")
       Virtual   (A") (A') (A') (A') (A') (A") (A') (A') (A') (A")
                 (A') (A") (A') (A') (A") (A') (A') (A") (A') (A')
                 (A') (A') (A") (A') (A') (A") (A') (A') (A') (A')
                 (A") (A') (A") (A') (A") (A") (A') (A') (A') (A')
                 (A') (A") (A') (A') (A') (A") (A') (A") (A') (A')
                 (A") (A') (A') (A') (A") (A') (A") (A') (A') (A')
                 (A") (A') (A") (A') (A') (A') (A") (A') (A") (A')
                 (A") (A') (A') (A') (A')
 The electronic state of the initial guess is 1-A'.
 Leave Link  401 at Mon Mar 21 20:07:54 2022, MaxMem=  8589934592 cpu:               1.8 elap:               0.2
 (Enter /home/sabyasachi/g16/l502.exe)
 Keep R1 ints in memory in symmetry-blocked form, NReq=14685034.
 FoFCou: FMM=F IPFlag=           0 FMFlag=           0 FMFlg1=           0
         NFxFlg=           0 DoJE=F BraDBF=F KetDBF=F FulRan=T
         wScrn=  0.000000 ICntrl=       600 IOpCl=  0 I1Cent=           0 NGrid=           0
         NMat0=    1 NMatS0=   3828 NMatT0=    0 NMatD0=    1 NMtDS0=    0 NMtDT0=    0
 Petite list used in FoFCou.
 Closed shell SCF:
 Using DIIS extrapolation, IDIIS=  1040.
 NGot=  8589934592 LenX=  8586108576 LenY=  8586099486
 Requested convergence on RMS density matrix=1.00D-08 within 100 cycles.
 Requested convergence on MAX density matrix=1.00D-06.
 Requested convergence on             energy=1.00D-06.
 No special actions if energy rises.
 Integral accuracy reduced to 1.0D-05 until final iterations.

 Cycle   1  Pass 0  IDiag  1:
 E= -169.649350340641    
 DIIS: error= 1.86D-02 at cycle   1 NSaved=   1.
 NSaved= 1 IEnMin= 1 EnMin= -169.649350340641     IErMin= 1 ErrMin= 1.86D-02
 ErrMax= 1.86D-02  0.00D+00 EMaxC= 1.00D-01 BMatC= 5.83D-02 BMatP= 5.83D-02
 IDIUse=3 WtCom= 8.14D-01 WtEn= 1.86D-01
 Coeff-Com:  0.100D+01
 Coeff-En:   0.100D+01
 Coeff:      0.100D+01
 Gap=     0.240 Goal=   None    Shift=    0.000
 GapD=    0.240 DampG=1.000 DampE=0.500 DampFc=0.5000 IDamp=-1.
 Damping current iteration by 5.00D-01
 RMSDP=7.02D-03 MaxDP=1.40D-01              OVMax= 1.35D-01

 Cycle   2  Pass 0  IDiag  1:
 E= -169.671001474645     Delta-E=       -0.021651134003 Rises=F Damp=T
 DIIS: error= 6.72D-03 at cycle   2 NSaved=   2.
 NSaved= 2 IEnMin= 2 EnMin= -169.671001474645     IErMin= 2 ErrMin= 6.72D-03
 ErrMax= 6.72D-03  0.00D+00 EMaxC= 1.00D-01 BMatC= 4.95D-03 BMatP= 5.83D-02
 IDIUse=3 WtCom= 9.33D-01 WtEn= 6.72D-02
 Coeff-Com:  0.105D+00 0.895D+00
 Coeff-En:   0.166D+00 0.834D+00
 Coeff:      0.109D+00 0.891D+00
 Gap=     0.263 Goal=   None    Shift=    0.000
 RMSDP=2.58D-03 MaxDP=4.84D-02 DE=-2.17D-02 OVMax= 9.89D-02

 Cycle   3  Pass 0  IDiag  1:
 E= -169.697153320682     Delta-E=       -0.026151846038 Rises=F Damp=F
 DIIS: error= 8.92D-03 at cycle   3 NSaved=   3.
 NSaved= 3 IEnMin= 3 EnMin= -169.697153320682     IErMin= 2 ErrMin= 6.72D-03
 ErrMax= 8.92D-03  0.00D+00 EMaxC= 1.00D-01 BMatC= 5.33D-03 BMatP= 4.95D-03
 IDIUse=3 WtCom= 9.11D-01 WtEn= 8.92D-02
 Coeff-Com: -0.455D-02 0.511D+00 0.493D+00
 Coeff-En:   0.000D+00 0.000D+00 0.100D+01
 Coeff:     -0.415D-02 0.466D+00 0.539D+00
 Gap=     0.259 Goal=   None    Shift=    0.000
 RMSDP=1.17D-03 MaxDP=2.91D-02 DE=-2.62D-02 OVMax= 2.92D-02

 Cycle   4  Pass 0  IDiag  1:
 E= -169.700942978853     Delta-E=       -0.003789658171 Rises=F Damp=F
 DIIS: error= 3.79D-03 at cycle   4 NSaved=   4.
 NSaved= 4 IEnMin= 4 EnMin= -169.700942978853     IErMin= 4 ErrMin= 3.79D-03
 ErrMax= 3.79D-03  0.00D+00 EMaxC= 1.00D-01 BMatC= 8.99D-04 BMatP= 4.95D-03
 IDIUse=3 WtCom= 9.62D-01 WtEn= 3.79D-02
 Coeff-Com: -0.510D-02 0.116D+00 0.313D+00 0.576D+00
 Coeff-En:   0.000D+00 0.000D+00 0.173D+00 0.827D+00
 Coeff:     -0.491D-02 0.112D+00 0.308D+00 0.585D+00
 Gap=     0.259 Goal=   None    Shift=    0.000
 RMSDP=3.53D-04 MaxDP=8.52D-03 DE=-3.79D-03 OVMax= 1.08D-02

 Cycle   5  Pass 0  IDiag  1:
 E= -169.701704811388     Delta-E=       -0.000761832534 Rises=F Damp=F
 DIIS: error= 5.50D-04 at cycle   5 NSaved=   5.
 NSaved= 5 IEnMin= 5 EnMin= -169.701704811388     IErMin= 5 ErrMin= 5.50D-04
 ErrMax= 5.50D-04  0.00D+00 EMaxC= 1.00D-01 BMatC= 3.73D-05 BMatP= 8.99D-04
 IDIUse=3 WtCom= 9.95D-01 WtEn= 5.50D-03
 Coeff-Com: -0.153D-02 0.280D-01 0.130D+00 0.304D+00 0.539D+00
 Coeff-En:   0.000D+00 0.000D+00 0.000D+00 0.000D+00 0.100D+01
 Coeff:     -0.152D-02 0.279D-01 0.129D+00 0.303D+00 0.542D+00
 Gap=     0.260 Goal=   None    Shift=    0.000
 RMSDP=8.38D-05 MaxDP=1.77D-03 DE=-7.62D-04 OVMax= 3.90D-03

 Cycle   6  Pass 0  IDiag  1:
 E= -169.701728437698     Delta-E=       -0.000023626310 Rises=F Damp=F
 DIIS: error= 3.17D-04 at cycle   6 NSaved=   6.
 NSaved= 6 IEnMin= 6 EnMin= -169.701728437698     IErMin= 6 ErrMin= 3.17D-04
 ErrMax= 3.17D-04  0.00D+00 EMaxC= 1.00D-01 BMatC= 9.54D-06 BMatP= 3.73D-05
 IDIUse=3 WtCom= 9.97D-01 WtEn= 3.17D-03
 Coeff-Com: -0.250D-03-0.512D-03 0.372D-01 0.110D+00 0.368D+00 0.486D+00
 Coeff-En:   0.000D+00 0.000D+00 0.000D+00 0.000D+00 0.236D+00 0.764D+00
 Coeff:     -0.250D-03-0.511D-03 0.371D-01 0.109D+00 0.367D+00 0.487D+00
 Gap=     0.260 Goal=   None    Shift=    0.000
 RMSDP=2.96D-05 MaxDP=6.64D-04 DE=-2.36D-05 OVMax= 1.35D-03

 Cycle   7  Pass 0  IDiag  1:
 E= -169.701736866169     Delta-E=       -0.000008428471 Rises=F Damp=F
 DIIS: error= 1.03D-05 at cycle   7 NSaved=   7.
 NSaved= 7 IEnMin= 7 EnMin= -169.701736866169     IErMin= 7 ErrMin= 1.03D-05
 ErrMax= 1.03D-05  0.00D+00 EMaxC= 1.00D-01 BMatC= 1.38D-08 BMatP= 9.54D-06
 IDIUse=1 WtCom= 1.00D+00 WtEn= 0.00D+00
 Coeff-Com:  0.654D-04-0.961D-03 0.519D-02 0.171D-01 0.703D-01 0.962D-01
 Coeff-Com:  0.812D+00
 Coeff:      0.654D-04-0.961D-03 0.519D-02 0.171D-01 0.703D-01 0.962D-01
 Coeff:      0.812D+00
 Gap=     0.260 Goal=   None    Shift=    0.000
 RMSDP=2.14D-06 MaxDP=3.95D-05 DE=-8.43D-06 OVMax= 4.05D-05

 Initial convergence to 1.0D-05 achieved.  Increase integral accuracy.
 Cycle   8  Pass 1  IDiag  1:
 E= -169.701733421269     Delta-E=        0.000003444900 Rises=F Damp=F
 DIIS: error= 2.97D-06 at cycle   1 NSaved=   1.
 NSaved= 1 IEnMin= 1 EnMin= -169.701733421269     IErMin= 1 ErrMin= 2.97D-06
 ErrMax= 2.97D-06  0.00D+00 EMaxC= 1.00D-01 BMatC= 1.10D-09 BMatP= 1.10D-09
 IDIUse=1 WtCom= 1.00D+00 WtEn= 0.00D+00
 Coeff-Com:  0.100D+01
 Coeff:      0.100D+01
 Gap=     0.260 Goal=   None    Shift=    0.000
 RMSDP=2.14D-06 MaxDP=3.95D-05 DE= 3.44D-06 OVMax= 3.48D-05

 Cycle   9  Pass 1  IDiag  1:
 E= -169.701733420150     Delta-E=        0.000000001120 Rises=F Damp=F
 DIIS: error= 3.73D-06 at cycle   2 NSaved=   2.
 NSaved= 2 IEnMin= 1 EnMin= -169.701733421269     IErMin= 1 ErrMin= 2.97D-06
 ErrMax= 3.73D-06  0.00D+00 EMaxC= 1.00D-01 BMatC= 2.51D-09 BMatP= 1.10D-09
 IDIUse=1 WtCom= 1.00D+00 WtEn= 0.00D+00
 Coeff-Com:  0.614D+00 0.386D+00
 Coeff:      0.614D+00 0.386D+00
 Gap=     0.260 Goal=   None    Shift=    0.000
 RMSDP=6.26D-07 MaxDP=1.61D-05 DE= 1.12D-09 OVMax= 3.07D-05

 Cycle  10  Pass 1  IDiag  1:
 E= -169.701733422497     Delta-E=       -0.000000002347 Rises=F Damp=F
 DIIS: error= 1.26D-06 at cycle   3 NSaved=   3.
 NSaved= 3 IEnMin= 3 EnMin= -169.701733422497     IErMin= 3 ErrMin= 1.26D-06
 ErrMax= 1.26D-06  0.00D+00 EMaxC= 1.00D-01 BMatC= 1.41D-10 BMatP= 1.10D-09
 IDIUse=1 WtCom= 1.00D+00 WtEn= 0.00D+00
 Coeff-Com:  0.167D+00 0.212D+00 0.620D+00
 Coeff:      0.167D+00 0.212D+00 0.620D+00
 Gap=     0.260 Goal=   None    Shift=    0.000
 RMSDP=1.99D-07 MaxDP=3.19D-06 DE=-2.35D-09 OVMax= 4.12D-06

 Cycle  11  Pass 1  IDiag  1:
 E= -169.701733422615     Delta-E=       -0.000000000119 Rises=F Damp=F
 DIIS: error= 1.93D-07 at cycle   4 NSaved=   4.
 NSaved= 4 IEnMin= 4 EnMin= -169.701733422615     IErMin= 4 ErrMin= 1.93D-07
 ErrMax= 1.93D-07  0.00D+00 EMaxC= 1.00D-01 BMatC= 5.94D-12 BMatP= 1.41D-10
 IDIUse=1 WtCom= 1.00D+00 WtEn= 0.00D+00
 Coeff-Com:  0.848D-02 0.576D-01 0.230D+00 0.704D+00
 Coeff:      0.848D-02 0.576D-01 0.230D+00 0.704D+00
 Gap=     0.260 Goal=   None    Shift=    0.000
 RMSDP=4.52D-08 MaxDP=7.54D-07 DE=-1.19D-10 OVMax= 7.79D-07

 Cycle  12  Pass 1  IDiag  1:
 E= -169.701733422618     Delta-E=       -0.000000000003 Rises=F Damp=F
 DIIS: error= 1.09D-07 at cycle   5 NSaved=   5.
 NSaved= 5 IEnMin= 5 EnMin= -169.701733422618     IErMin= 5 ErrMin= 1.09D-07
 ErrMax= 1.09D-07  0.00D+00 EMaxC= 1.00D-01 BMatC= 9.95D-13 BMatP= 5.94D-12
 IDIUse=1 WtCom= 1.00D+00 WtEn= 0.00D+00
 Coeff-Com: -0.589D-02 0.181D-01 0.716D-01 0.359D+00 0.557D+00
 Coeff:     -0.589D-02 0.181D-01 0.716D-01 0.359D+00 0.557D+00
 Gap=     0.260 Goal=   None    Shift=    0.000
 RMSDP=1.40D-08 MaxDP=2.04D-07 DE=-2.96D-12 OVMax= 3.51D-07

 Cycle  13  Pass 1  IDiag  1:
 E= -169.701733422620     Delta-E=       -0.000000000002 Rises=F Damp=F
 DIIS: error= 5.40D-08 at cycle   6 NSaved=   6.
 NSaved= 6 IEnMin= 6 EnMin= -169.701733422620     IErMin= 6 ErrMin= 5.40D-08
 ErrMax= 5.40D-08  0.00D+00 EMaxC= 1.00D-01 BMatC= 1.89D-13 BMatP= 9.95D-13
 IDIUse=1 WtCom= 1.00D+00 WtEn= 0.00D+00
 Coeff-Com: -0.476D-02 0.718D-02 0.250D-01 0.167D+00 0.350D+00 0.456D+00
 Coeff:     -0.476D-02 0.718D-02 0.250D-01 0.167D+00 0.350D+00 0.456D+00
 Gap=     0.260 Goal=   None    Shift=    0.000
 RMSDP=3.58D-09 MaxDP=8.80D-08 DE=-1.53D-12 OVMax= 8.25D-08

 SCF Done:  E(RB3LYP) =  -169.701733423     A.U. after   13 cycles
            NFock= 13  Conv=0.36D-08     -V/T= 2.0085
 KE= 1.682774064550D+02 PE=-5.398384131572D+02 EE= 1.305427049046D+02
 Leave Link  502 at Mon Mar 21 20:07:55 2022, MaxMem=  8589934592 cpu:               9.3 elap:               1.2
 (Enter /home/sabyasachi/g16/l801.exe)
 DoSCS=F DFT=T ScalE2(SS,OS)=  1.000000  1.000000
 ExpMin= 6.71D-02 ExpMax= 2.27D+03 ExpMxC= 3.41D+02 IAcc=3 IRadAn=         5 AccDes= 0.00D+00
 HarFok:  IExCor=  205 AccDes= 0.00D+00 IRadAn=         5 IDoV=-2 UseB2=F ITyADJ=14
 ICtDFT= 12500011 ScaDFX=  1.000000  1.000000  1.000000  1.000000
 Largest valence mixing into a core orbital is  6.85D-05
 Largest core mixing into a valence orbital is  1.48D-05
 Range of M.O.s used for correlation:     4    87
 NBasis=    87 NAE=    12 NBE=    12 NFC=     3 NFV=     0
 NROrb=     84 NOA=     9 NOB=     9 NVA=    75 NVB=    75

 **** Warning!!: The largest alpha MO coefficient is  0.16117188D+02

 Leave Link  801 at Mon Mar 21 20:07:55 2022, MaxMem=  8589934592 cpu:               0.4 elap:               0.1
 (Enter /home/sabyasachi/g16/l914.exe)
 RHF ground state
 Keep R1, R2, and R3 ints in memory in symmetry-blocked form, NReq=503092878.
 FoFCou: FMM=F IPFlag=           0 FMFlag=           0 FMFlg1=           0
         NFxFlg=           0 DoJE=F BraDBF=F KetDBF=F FulRan=T
         wScrn=  0.000000 ICntrl=       600 IOpCl=  0 I1Cent=           0 NGrid=           0
         NMat0=    1 NMatS0=   3828 NMatT0=    0 NMatD0=    1 NMtDS0=    0 NMtDT0=    0
 Petite list used in FoFCou.
 MDV=  8589934592 DFT=T DoStab=F Mixed=T DoRPA=T DoScal=F NonHer=T
 Making orbital integer symmetry assigments:
 Orbital symmetries:
       Occupied  (A') (A') (A') (A') (A') (A') (A') (A') (A") (A')
                 (A') (A")
       Virtual   (A") (A') (A') (A') (A') (A") (A') (A') (A') (A")
                 (A") (A') (A') (A') (A") (A') (A') (A") (A') (A')
                 (A') (A') (A") (A') (A') (A") (A') (A') (A') (A')
                 (A") (A') (A") (A') (A") (A") (A') (A') (A') (A')
                 (A') (A') (A") (A') (A') (A") (A') (A") (A') (A')
                 (A") (A') (A') (A') (A") (A') (A") (A') (A') (A')
                 (A") (A') (A") (A') (A') (A') (A") (A') (A") (A")
                 (A') (A') (A') (A') (A')
   675 initial guesses have been made.
 Convergence on wavefunction:    0.001000000000000
 Davidson Disk Diagonalization:  ConvIn= 1.00D-03 SkipCon=T Conv= 1.00D-03.
 Max sub-space:  4050 roots to seek:  1350 dimension of matrix:         1350
 *** WARNING: Number of orthogonal guesses is          675
 Iteration     1 Dimension   675 NMult     0 NNew    675
 CISAX will form   675 AO SS matrices at one time.
 NMat=   675 NSing=   675 JSym2X=-1.
 New state      1 was old state      2
 New state      2 was old state      1
 New state      9 was old state     10
 New state     10 was old state     12
 New state     11 was old state      9
 New state     12 was old state     11
 New state     14 was old state     15
 New state     15 was old state     16
 New state     16 was old state     17
 New state     17 was old state     18
 New state     18 was old state     14
 New state     19 was old state     23
 New state     22 was old state     19
 New state     23 was old state     22
 New state     28 was old state     29
 New state     29 was old state     32
 New state     30 was old state     28
 New state     31 was old state     37
 New state     32 was old state     30
 New state     33 was old state     31
 New state     34 was old state     33
 New state     35 was old state     40
 New state     36 was old state     34
 New state     37 was old state     35
 New state     38 was old state     36
 New state     40 was old state     38
 New state     42 was old state     43
 New state     43 was old state     42
 New state     45 was old state     48
 New state     47 was old state     45
 New state     48 was old state     50
 New state     49 was old state     47
 New state     50 was old state     51
 New state     51 was old state     49
 New state     54 was old state     58
 New state     55 was old state     59
 New state     57 was old state     54
 New state     58 was old state     57
 New state     59 was old state     55
 New state     61 was old state     62
 New state     62 was old state     63
 New state     63 was old state     61
 New state     66 was old state     71
 New state     67 was old state     68
 New state     68 was old state     66
 New state     69 was old state     70
 New state     70 was old state     67
 New state     71 was old state     74
 New state     72 was old state     73
 New state     73 was old state     72
 New state     74 was old state     69
 New state     76 was old state     79
 New state     79 was old state     76
 New state     80 was old state     81
 New state     81 was old state     82
 New state     82 was old state     84
 New state     83 was old state     80
 New state     84 was old state     85
 New state     85 was old state     87
 New state     86 was old state     90
 New state     87 was old state     86
 New state     88 was old state     83
 New state     90 was old state     88
 New state     91 was old state     92
 New state     92 was old state     94
 New state     93 was old state     91
 New state     94 was old state     93
 New state     95 was old state     99
 New state     96 was old state     95
 New state     97 was old state     98
 New state     98 was old state     96
 New state     99 was old state     97
 New state    100 was old state    101
 New state    101 was old state    103
 New state    103 was old state    104
 New state    104 was old state    105
 New state    105 was old state    106
 New state    106 was old state    118
 New state    108 was old state    110
 New state    109 was old state    108
 New state    110 was old state    109
 New state    112 was old state    113
 New state    113 was old state    112
 New state    114 was old state    117
 New state    115 was old state    114
 New state    116 was old state    119
 New state    117 was old state    115
 New state    118 was old state    116
 New state    119 was old state    124
 New state    120 was old state    122
 New state    121 was old state    125
 New state    122 was old state    121
 New state    124 was old state    120
 New state    125 was old state    126
 New state    126 was old state    127
 New state    127 was old state    130
 New state    128 was old state    129
 New state    129 was old state    128
 New state    130 was old state    134
 New state    131 was old state    132
 New state    132 was old state    131
 New state    134 was old state    137
 New state    135 was old state    136
 New state    136 was old state    139
 New state    137 was old state    135
 New state    139 was old state    140
 New state    140 was old state    146
 New state    142 was old state    143
 New state    143 was old state    144
 New state    144 was old state    147
 New state    146 was old state    142
 New state    147 was old state    151
 New state    149 was old state    152
 New state    151 was old state    149
 New state    152 was old state    153
 New state    153 was old state    155
 New state    154 was old state    156
 New state    155 was old state    160
 New state    156 was old state    154
 New state    157 was old state    158
 New state    158 was old state    157
 New state    159 was old state    162
 New state    160 was old state    165
 New state    161 was old state    159
 New state    162 was old state    161
 New state    163 was old state    164
 New state    164 was old state    163
 New state    165 was old state    168
 New state    168 was old state    177
 New state    169 was old state    175
 New state    170 was old state    169
 New state    171 was old state    174
 New state    173 was old state    171
 New state    174 was old state    173
 New state    175 was old state    170
 New state    177 was old state    183
 New state    178 was old state    180
 New state    180 was old state    181
 New state    181 was old state    182
 New state    182 was old state    185
 New state    183 was old state    184
 New state    184 was old state    178
 New state    185 was old state    187
 New state    186 was old state    189
 New state    187 was old state    188
 New state    188 was old state    191
 New state    189 was old state    192
 New state    190 was old state    186
 New state    191 was old state    194
 New state    192 was old state    198
 New state    193 was old state    197
 New state    194 was old state    190
 New state    195 was old state    199
 New state    196 was old state    193
 New state    197 was old state    201
 New state    198 was old state    195
 New state    199 was old state    196
 New state    200 was old state    203
 New state    201 was old state    200
 New state    203 was old state    209
 New state    204 was old state    206
 New state    205 was old state    204
 New state    206 was old state    205
 New state    208 was old state    210
 New state    209 was old state    211
 New state    210 was old state    212
 New state    211 was old state    218
 New state    212 was old state    214
 New state    213 was old state    219
 New state    214 was old state    220
 New state    215 was old state    213
 New state    218 was old state    215
 New state    219 was old state    222
 New state    220 was old state    208
 New state    222 was old state    225
 New state    223 was old state    227
 New state    224 was old state    229
 New state    225 was old state    223
 New state    226 was old state    224
 New state    227 was old state    234
 New state    228 was old state    226
 New state    229 was old state    230
 New state    230 was old state    231
 New state    231 was old state    228
 New state    232 was old state    235
 New state    233 was old state    232
 New state    234 was old state    243
 New state    235 was old state    233
 New state    236 was old state    239
 New state    237 was old state    236
 New state    238 was old state    237
 New state    239 was old state    241
 New state    240 was old state    238
 New state    241 was old state    240
 New state    242 was old state    246
 New state    243 was old state    244
 New state    244 was old state    242
 New state    245 was old state    247
 New state    246 was old state    245
 New state    247 was old state    250
 New state    250 was old state    252
 New state    251 was old state    255
 New state    252 was old state    254
 New state    254 was old state    251
 New state    255 was old state    258
 New state    256 was old state    259
 New state    257 was old state    256
 New state    258 was old state    257
 New state    259 was old state    261
 New state    261 was old state    265
 New state    262 was old state    263
 New state    263 was old state    262
 New state    264 was old state    267
 New state    265 was old state    266
 New state    266 was old state    269
 New state    267 was old state    264
 New state    268 was old state    272
 New state    269 was old state    275
 New state    270 was old state    268
 New state    271 was old state    270
 New state    272 was old state    279
 New state    273 was old state    271
 New state    275 was old state    273
 New state    278 was old state    285
 New state    279 was old state    281
 New state    280 was old state    278
 New state    281 was old state    280
 New state    285 was old state    289
 New state    286 was old state    287
 New state    287 was old state    286
 New state    289 was old state    292
 New state    292 was old state    293
 New state    293 was old state    299
 New state    294 was old state    295
 New state    295 was old state    294
 New state    296 was old state    298
 New state    297 was old state    296
 New state    298 was old state    297
 New state    299 was old state    302
 New state    300 was old state    304
 New state    302 was old state    300
 New state    304 was old state    308
 New state    305 was old state    306
 New state    306 was old state    305
 New state    307 was old state    309
 New state    308 was old state    310
 New state    309 was old state    307
 New state    310 was old state    311
 New state    311 was old state    313
 New state    313 was old state    314
 New state    314 was old state    323
 New state    315 was old state    320
 New state    316 was old state    315
 New state    317 was old state    316
 New state    319 was old state    317
 New state    320 was old state    322
 New state    321 was old state    319
 New state    322 was old state    321
 New state    323 was old state    334
 New state    325 was old state    326
 New state    326 was old state    328
 New state    327 was old state    325
 New state    328 was old state    329
 New state    329 was old state    333
 New state    330 was old state    327
 New state    331 was old state    330
 New state    332 was old state    337
 New state    333 was old state    331
 New state    334 was old state    335
 New state    335 was old state    332
 New state    337 was old state    340
 New state    339 was old state    341
 New state    340 was old state    339
 New state    341 was old state    343
 New state    342 was old state    355
 New state    343 was old state    342
 New state    347 was old state    348
 New state    348 was old state    347
 New state    349 was old state    352
 New state    351 was old state    349
 New state    352 was old state    354
 New state    353 was old state    351
 New state    354 was old state    353
 New state    355 was old state    357
 New state    356 was old state    358
 New state    357 was old state    356
 New state    358 was old state    362
 New state    361 was old state    363
 New state    362 was old state    361
 New state    363 was old state    365
 New state    365 was old state    366
 New state    366 was old state    368
 New state    367 was old state    371
 New state    368 was old state    367
 New state    369 was old state    370
 New state    370 was old state    375
 New state    371 was old state    369
 New state    372 was old state    373
 New state    373 was old state    378
 New state    374 was old state    376
 New state    375 was old state    374
 New state    376 was old state    377
 New state    377 was old state    379
 New state    378 was old state    372
 New state    379 was old state    382
 New state    382 was old state    383
 New state    383 was old state    387
 New state    385 was old state    390
 New state    386 was old state    385
 New state    387 was old state    389
 New state    388 was old state    386
 New state    389 was old state    388
 New state    390 was old state    393
 New state    391 was old state    392
 New state    392 was old state    391
 New state    393 was old state    395
 New state    395 was old state    396
 New state    396 was old state    398
 New state    397 was old state    400
 New state    398 was old state    397
 New state    400 was old state    408
 New state    401 was old state    403
 New state    402 was old state    401
 New state    403 was old state    402
 New state    404 was old state    407
 New state    405 was old state    406
 New state    406 was old state    405
 New state    407 was old state    404
 New state    408 was old state    414
 New state    409 was old state    413
 New state    410 was old state    411
 New state    411 was old state    409
 New state    413 was old state    415
 New state    414 was old state    416
 New state    415 was old state    410
 New state    416 was old state    417
 New state    417 was old state    418
 New state    418 was old state    420
 New state    419 was old state    421
 New state    420 was old state    419
 New state    421 was old state    423
 New state    423 was old state    424
 New state    424 was old state    429
 New state    425 was old state    427
 New state    426 was old state    428
 New state    427 was old state    426
 New state    428 was old state    430
 New state    429 was old state    425
 New state    430 was old state    431
 New state    431 was old state    433
 New state    433 was old state    435
 New state    435 was old state    437
 New state    437 was old state    438
 New state    438 was old state    442
 New state    439 was old state    440
 New state    440 was old state    439
 New state    442 was old state    443
 New state    443 was old state    445
 New state    445 was old state    447
 New state    447 was old state    449
 New state    449 was old state    450
 New state    450 was old state    451
 New state    451 was old state    452
 New state    452 was old state    456
 New state    453 was old state    455
 New state    454 was old state    453
 New state    455 was old state    454
 New state    456 was old state    458
 New state    458 was old state    461
 New state    459 was old state    460
 New state    460 was old state    459
 New state    461 was old state    463
 New state    463 was old state    464
 New state    464 was old state    465
 New state    465 was old state    469
 New state    468 was old state    470
 New state    469 was old state    468
 New state    470 was old state    471
 New state    471 was old state    472
 New state    472 was old state    473
 No map to state    473
 New state    474 was old state    476
 New state    476 was old state    474
 New state    477 was old state    479
 New state    478 was old state    477
 New state    479 was old state    478
 New state    480 was old state    481
 New state    481 was old state    480
 New state    482 was old state    483
 New state    483 was old state    484
 New state    484 was old state    482
 New state    485 was old state    487
 New state    486 was old state    488
 New state    487 was old state    485
 New state    488 was old state    486
 New state    489 was old state    491
 New state    491 was old state    489
 New state    496 was old state    499
 New state    497 was old state    496
 New state    498 was old state    497
 New state    499 was old state    498
 New state    500 was old state    503
 New state    501 was old state    500
 New state    502 was old state    501
 New state    503 was old state    505
 New state    504 was old state    502
 New state    505 was old state    506
 New state    506 was old state    504
 New state    507 was old state    509
 New state    508 was old state    507
 New state    509 was old state    508
 New state    511 was old state    512
 New state    512 was old state    511
 New state    515 was old state    516
 New state    516 was old state    515
 New state    517 was old state    518
 New state    518 was old state    517
 New state    519 was old state    521
 New state    521 was old state    519
 New state    525 was old state    526
 New state    526 was old state    525
 New state    527 was old state    530
 New state    528 was old state    527
 New state    529 was old state    528
 New state    530 was old state    529
 New state    533 was old state    534
 New state    534 was old state    533
 New state    535 was old state    536
 New state    536 was old state    535
 New state    537 was old state    539
 New state    538 was old state    537
 New state    539 was old state    540
 New state    540 was old state    538
 New state    546 was old state    547
 New state    547 was old state    546
 New state    552 was old state    556
 New state    553 was old state    554
 New state    554 was old state    553
 New state    555 was old state    552
 New state    556 was old state    555
 New state    561 was old state    563
 New state    562 was old state    561
 New state    563 was old state    562
 New state    564 was old state    565
 New state    565 was old state    566
 New state    566 was old state    564
 New state    568 was old state    569
 New state    569 was old state    568
 New state    570 was old state    572
 New state    571 was old state    570
 New state    572 was old state    574
 New state    574 was old state    571
 New state    576 was old state    578
 New state    577 was old state    576
 New state    578 was old state    577
 New state    584 was old state    585
 New state    585 was old state    584
 New state    591 was old state    592
 New state    592 was old state    591
 New state    593 was old state    594
 New state    594 was old state    593
 New state    596 was old state    597
 New state    597 was old state    596
 New state    598 was old state    599
 New state    599 was old state    600
 New state    600 was old state    601
 New state    601 was old state    598
 New state    605 was old state    606
 New state    606 was old state    605
 New state    608 was old state    609
 New state    609 was old state    608
 New state    610 was old state    611
 New state    611 was old state    612
 New state    612 was old state    615
 New state    613 was old state    616
 New state    614 was old state    613
 New state    615 was old state    617
 New state    616 was old state    618
 New state    617 was old state    619
 New state    618 was old state    610
 New state    619 was old state    621
 New state    620 was old state    614
 New state    621 was old state    620
 New state    622 was old state    623
 New state    623 was old state    622
 New state    625 was old state    626
 New state    626 was old state    627
 New state    627 was old state    625
 New state    630 was old state    631
 New state    631 was old state    630
 New state    643 was old state    644
 New state    644 was old state    643
 New state    648 was old state    649
 New state    649 was old state    648
 New state    655 was old state    657
 New state    656 was old state    655
 New state    657 was old state    656
 New state    658 was old state    659
 New state    659 was old state    658
 New state    664 was old state    665
 New state    665 was old state    664
 New state    666 was old state    667
 New state    667 was old state    666
 New state    669 was old state    670
 New state    670 was old state    669
 Excitation Energies [eV] at current iteration:
 Root      1 :     5.815533546109235
 Root      2 :     6.788610081191868
 Root      3 :     6.903802782706537
 Root      4 :     7.291591963831688
 Root      5 :     7.804743326381557
 Root      6 :     8.216771477523766
 Root      7 :     8.771914372963181
 Root      8 :     9.134326821763276
 Root      9 :     9.348206153315743
 Root     10 :     9.429685240925043
 Root     11 :     9.499172660466597
 Root     12 :     9.889848758456390
 Root     13 :     9.948478032586333
 Root     14 :    10.003383689531260
 Root     15 :    10.162960131073930
 Root     16 :    10.375805224823690
 Root     17 :    10.457480463960780
 Root     18 :    10.595565631913250
 Root     19 :    10.797699151950070
 Root     20 :    10.904833415330270
 Root     21 :    11.018462412820150
 Root     22 :    11.166128561015540
 Root     23 :    11.434679896998690
 Root     24 :    11.800339395180850
 Root     25 :    11.889615889547260
 Root     26 :    12.031873741018050
 Root     27 :    12.249925657155930
 Root     28 :    12.327606773919760
 Root     29 :    12.396533214867090
 Root     30 :    12.473960316343620
 Root     31 :    12.544710155007320
 Root     32 :    12.576223260177050
 Root     33 :    12.749288542820160
 Root     34 :    12.867169907149950
 Root     35 :    12.873095289604930
 Root     36 :    13.042663596951430
 Root     37 :    13.154439851578430
 Root     38 :    13.170300112584890
 Root     39 :    13.290741703277570
 Root     40 :    13.417935856110810
 Root     41 :    13.559967371723670
 Root     42 :    13.720655240750310
 Root     43 :    13.731720925244920
 Root     44 :    13.926097092793560
 Root     45 :    14.082188285253660
 Root     46 :    14.112380159491820
 Root     47 :    14.193999186063730
 Root     48 :    14.224144591102520
 Root     49 :    14.358674587755980
 Root     50 :    14.368908696351910
 Root     51 :    14.432005786704940
 Root     52 :    14.592104391059910
 Root     53 :    14.727413758874860
 Root     54 :    14.951240072454130
 Root     55 :    14.974511570363250
 Root     56 :    15.038190336287370
 Root     57 :    15.071061405789310
 Root     58 :    15.240599498212330
 Root     59 :    15.248151803976050
 Root     60 :    15.429017434112760
 Root     61 :    15.542465011402290
 Root     62 :    15.557524604239390
 Root     63 :    15.659160240922300
 Root     64 :    15.870834037992590
 Root     65 :    15.931369421531330
 Root     66 :    15.956933472377800
 Root     67 :    15.988890174031270
 Root     68 :    16.067897117045380
 Root     69 :    16.074151847868180
 Root     70 :    16.121261632691870
 Root     71 :    16.180769628787370
 Root     72 :    16.309741111364220
 Root     73 :    16.319778489483450
 Root     74 :    16.391319778974390
 Root     75 :    16.447807250432200
 Root     76 :    16.476791282076580
 Root     77 :    16.556016245725730
 Root     78 :    16.592148758119020
 Root     79 :    16.666255402709210
 Root     80 :    16.673647590211830
 Root     81 :    16.814803051103710
 Root     82 :    16.900738799311080
 Root     83 :    17.043328847052800
 Root     84 :    17.134409587205670
 Root     85 :    17.216269606364990
 Root     86 :    17.244918511180320
 Root     87 :    17.271718336226520
 Root     88 :    17.367522007183510
 Root     89 :    17.409727946962560
 Root     90 :    17.470061009796190
 Root     91 :    17.583437258014370
 Root     92 :    17.642636937639560
 Root     93 :    17.738821087863230
 Root     94 :    17.796178577746450
 Root     95 :    17.956142689407290
 Root     96 :    18.064365271002180
 Root     97 :    18.080945591753660
 Root     98 :    18.115477437542470
 Root     99 :    18.154272874109740
 Root    100 :    18.256138853274320
 Root    101 :    18.292205955186460
 Root    102 :    18.444597767489960
 Root    103 :    18.463878357008210
 Root    104 :    18.840803956630730
 Root    105 :    18.861679307081110
 Root    106 :    18.889380827786050
 Root    107 :    19.034756005337800
 Root    108 :    19.080693461764500
 Root    109 :    19.116164454391780
 Root    110 :    19.141273581459190
 Root    111 :    19.226331673526350
 Root    112 :    19.325150732202440
 Root    113 :    19.371129031146780
 Root    114 :    19.475339838180960
 Root    115 :    19.513193308832910
 Root    116 :    19.556259194311120
 Root    117 :    19.637655013059670
 Root    118 :    19.642430339090970
 Root    119 :    19.682730060965140
 Root    120 :    19.768026023056870
 Root    121 :    19.797182245097110
 Root    122 :    19.857210937474970
 Root    123 :    19.866148408902020
 Root    124 :    19.938878496525790
 Root    125 :    20.049332137571530
 Root    126 :    20.138026486645080
 Root    127 :    20.171501033508360
 Root    128 :    20.246030119184490
 Root    129 :    20.371495167255960
 Root    130 :    20.591629297342790
 Root    131 :    20.621652409172400
 Root    132 :    20.651292168198250
 Root    133 :    20.806853089741970
 Root    134 :    20.849345421701460
 Root    135 :    20.987906122575500
 Root    136 :    21.019909171765050
 Root    137 :    21.061736317619120
 Root    138 :    21.082926522480210
 Root    139 :    21.173611755684560
 Root    140 :    21.174039795643680
 Root    141 :    21.224297526148260
 Root    142 :    21.358117281057200
 Root    143 :    21.478823998874450
 Root    144 :    21.517366587618200
 Root    145 :    21.594695978263100
 Root    146 :    21.736933068438030
 Root    147 :    21.853056105060500
 Root    148 :    21.927724494435350
 Root    149 :    22.017456543398270
 Root    150 :    22.028832736374610
 Root    151 :    22.084861753309940
 Root    152 :    22.243313811539930
 Root    153 :    22.276905564658580
 Root    154 :    22.327272948806600
 Root    155 :    22.328149952768180
 Root    156 :    22.461323005439410
 Root    157 :    22.561058231821020
 Root    158 :    22.583419453032100
 Root    159 :    22.695037892994600
 Root    160 :    22.755737008113320
 Root    161 :    22.787581755677420
 Root    162 :    22.870664110719250
 Root    163 :    22.890664542018390
 Root    164 :    22.948300962408420
 Root    165 :    23.130618407877120
 Root    166 :    23.149189390152140
 Root    167 :    23.212509151398730
 Root    168 :    23.229165401072560
 Root    169 :    23.380477739490430
 Root    170 :    23.394346779718010
 Root    171 :    23.518965351355450
 Root    172 :    23.563752937856520
 Root    173 :    23.616827991348420
 Root    174 :    23.652539072385970
 Root    175 :    23.706345427199670
 Root    176 :    23.863029232848040
 Root    177 :    23.928990792805620
 Root    178 :    23.982518050795970
 Root    179 :    23.987809541441110
 Root    180 :    24.149702486274610
 Root    181 :    24.235463572643160
 Root    182 :    24.246383691632210
 Root    183 :    24.304718386136390
 Root    184 :    24.426228207439960
 Root    185 :    24.431563750545940
 Root    186 :    24.688525447170370
 Root    187 :    24.706178948848170
 Root    188 :    24.764827680457580
 Root    189 :    24.830269289157910
 Root    190 :    24.831512730538480
 Root    191 :    24.979030823346240
 Root    192 :    25.003650293806380
 Root    193 :    25.019034999293980
 Root    194 :    25.107638590831530
 Root    195 :    25.174234396376560
 Root    196 :    25.231205025364860
 Root    197 :    25.242047289186000
 Root    198 :    25.322465195595100
 Root    199 :    25.370858811069630
 Root    200 :    25.508382369918960
 Root    201 :    25.602955866003270
 Root    202 :    25.792594567899700
 Root    203 :    25.853899615917130
 Root    204 :    25.960205516191950
 Root    205 :    25.969756543449300
 Root    206 :    26.055480530265850
 Root    207 :    26.181385726487650
 Root    208 :    26.254047902413730
 Root    209 :    26.331400672487150
 Root    210 :    26.419053189169730
 Root    211 :    26.537946395379050
 Root    212 :    26.619319860356270
 Root    213 :    26.643873104107780
 Root    214 :    26.779146224429660
 Root    215 :    26.787152166609040
 Root    216 :    26.870011198336840
 Root    217 :    26.937491725893410
 Root    218 :    27.034832940136720
 Root    219 :    27.076092784458190
 Root    220 :    27.136868040223660
 Root    221 :    27.153286726670480
 Root    222 :    27.414498928429580
 Root    223 :    27.562091779161730
 Root    224 :    27.595361178119350
 Root    225 :    27.641706097058910
 Root    226 :    27.765799938159260
 Root    227 :    27.782224628841110
 Root    228 :    27.806893456507030
 Root    229 :    27.886771825582130
 Root    230 :    27.908867716062830
 Root    231 :    27.962196719237940
 Root    232 :    28.127625054717430
 Root    233 :    28.210080851963620
 Root    234 :    28.278181926085510
 Root    235 :    28.367446958818630
 Root    236 :    28.473137220667320
 Root    237 :    28.507673788649520
 Root    238 :    28.660730100394730
 Root    239 :    28.714788834225860
 Root    240 :    28.721124325244020
 Root    241 :    28.864623374700770
 Root    242 :    28.968946233625870
 Root    243 :    29.032481692749350
 Root    244 :    29.107571889266730
 Root    245 :    29.183534931742220
 Root    246 :    29.317799882777810
 Root    247 :    29.445141737973410
 Root    248 :    29.501154186391990
 Root    249 :    29.666903538992960
 Root    250 :    29.817667615747780
 Root    251 :    29.937921670334110
 Root    252 :    29.968910154980680
 Root    253 :    29.990662134817170
 Root    254 :    30.060673870916620
 Root    255 :    30.178639939193910
 Root    256 :    30.189210370914710
 Root    257 :    30.490728679769200
 Root    258 :    30.620052697821110
 Root    259 :    30.645797356877720
 Root    260 :    30.776206129023310
 Root    261 :    31.000754367636040
 Root    262 :    31.206073211445100
 Root    263 :    31.262501674204460
 Root    264 :    31.284235154536730
 Root    265 :    31.293617287458980
 Root    266 :    31.331009033493710
 Root    267 :    31.461413424223450
 Root    268 :    31.596748704452350
 Root    269 :    31.634044121976210
 Root    270 :    31.709770860530310
 Root    271 :    31.725055952027510
 Root    272 :    31.771189566005290
 Root    273 :    31.787413971806530
 Root    274 :    31.858866403527640
 Root    275 :    31.957471505125210
 Root    276 :    31.966098482687600
 Root    277 :    32.020089447066660
 Root    278 :    32.141612030908250
 Root    279 :    32.260119992039290
 Root    280 :    32.307534234480410
 Root    281 :    32.418595591172610
 Root    282 :    32.680517404488720
 Root    283 :    32.744822951778680
 Root    284 :    32.891884792202480
 Root    285 :    33.040524570050810
 Root    286 :    33.168926656769950
 Root    287 :    33.270954557263140
 Root    288 :    33.280743706596380
 Root    289 :    33.471789069158750
 Root    290 :    33.481770305283860
 Root    291 :    33.764309530112520
 Root    292 :    33.873753823249030
 Root    293 :    33.945574674584840
 Root    294 :    34.218809062837590
 Root    295 :    34.223289482748110
 Root    296 :    34.325579028063610
 Root    297 :    34.473674877482300
 Root    298 :    34.600137643282590
 Root    299 :    34.772379112503070
 Root    300 :    34.809380672806380
 Root    301 :    34.816279262930370
 Root    302 :    34.874999166690660
 Root    303 :    35.095282090599240
 Root    304 :    35.217212963042680
 Root    305 :    35.428195975087000
 Root    306 :    35.477930428175630
 Root    307 :    35.486597023305610
 Root    308 :    35.587126079785430
 Root    309 :    35.652912056005050
 Root    310 :    35.659795443622230
 Root    311 :    35.804066853892350
 Root    312 :    36.194885865287290
 Root    313 :    36.384550816717030
 Root    314 :    36.518031069312060
 Root    315 :    36.586838480437900
 Root    316 :    36.588027270277840
 Root    317 :    36.854723680634980
 Root    318 :    36.913036397240630
 Root    319 :    37.009819173464680
 Root    320 :    37.094483932700090
 Root    321 :    37.244907643518990
 Root    322 :    37.339169095131810
 Root    323 :    37.452076628697870
 Root    324 :    37.762964359002230
 Root    325 :    37.914521166013960
 Root    326 :    37.958976993363120
 Root    327 :    37.982319745474170
 Root    328 :    38.242576747096870
 Root    329 :    38.252356414291010
 Root    330 :    38.288990538678560
 Root    331 :    38.522869998314820
 Root    332 :    38.566431566894010
 Root    333 :    38.572986995454520
 Root    334 :    38.660338284875360
 Root    335 :    38.751546202159570
 Root    336 :    38.865658495741700
 Root    337 :    39.126821012403250
 Root    338 :    39.232758109309960
 Root    339 :    39.469760345035360
 Root    340 :    39.529868400597580
 Root    341 :    39.674468949150290
 Root    342 :    39.949028235662700
 Root    343 :    39.950276918321660
 Root    344 :    40.080131914190010
 Root    345 :    40.150870895486500
 Root    346 :    40.166130791533210
 Root    347 :    40.406051383421140
 Root    348 :    40.483497416140300
 Root    349 :    40.666532211067110
 Root    350 :    40.728136515957200
 Root    351 :    40.737043606625350
 Root    352 :    40.859235692139800
 Root    353 :    40.895010850059880
 Root    354 :    40.912246297388760
 Root    355 :    41.581456718592610
 Root    356 :    41.733975041838920
 Root    357 :    41.782668674171990
 Root    358 :    41.942592969222460
 Root    359 :    41.987024703726190
 Root    360 :    42.052768846842890
 Root    361 :    42.228414534160590
 Root    362 :    42.273197212428760
 Root    363 :    42.384876661891270
 Root    364 :    42.490757753949130
 Root    365 :    42.760154908987420
 Root    366 :    42.924252199949930
 Root    367 :    43.375370158374610
 Root    368 :    43.500115379680600
 Root    369 :    43.672110658259240
 Root    370 :    43.737821996640330
 Root    371 :    43.757062282415060
 Root    372 :    43.783719239037270
 Root    373 :    43.845475133711470
 Root    374 :    43.854385107366200
 Root    375 :    43.974848846907210
 Root    376 :    44.127758476950700
 Root    377 :    44.315292251665430
 Root    378 :    44.471220033173220
 Root    379 :    44.653338000676080
 Root    380 :    44.827265367991260
 Root    381 :    45.255566018792070
 Root    382 :    45.352344418167680
 Root    383 :    45.443496444379250
 Root    384 :    45.526904937943820
 Root    385 :    45.639838743488630
 Root    386 :    45.835534981732130
 Root    387 :    45.912009201444070
 Root    388 :    45.935876996422620
 Root    389 :    46.050139274266000
 Root    390 :    46.293836330800960
 Root    391 :    46.644088842258660
 Root    392 :    46.746563140572270
 Root    393 :    46.999459956025760
 Root    394 :    47.198750133688600
 Root    395 :    47.385915658483500
 Root    396 :    47.624280895401880
 Root    397 :    47.727028012927220
 Root    398 :    47.804647343598170
 Root    399 :    47.887043747458510
 Root    400 :    48.506786836730870
 Root    401 :    48.678140990958480
 Root    402 :    48.739939254965950
 Root    403 :    48.812584725970940
 Root    404 :    48.856718542365930
 Root    405 :    49.084197953926020
 Root    406 :    49.269822234476600
 Root    407 :    49.290362034714460
 Root    408 :    49.492500693819900
 Root    409 :    49.615083146298140
 Root    410 :    49.746469464893250
 Root    411 :    49.800060788971960
 Root    412 :    49.876625741457160
 Root    413 :    49.989691546582480
 Root    414 :    50.319409081931930
 Root    415 :    50.330724259842100
 Root    416 :    50.676039170638550
 Root    417 :    50.770975101789940
 Root    418 :    50.790306713553000
 Root    419 :    51.111868499105530
 Root    420 :    51.321472421417540
 Root    421 :    51.707890689205790
 Root    422 :    52.115832743624340
 Root    423 :    52.303957765177860
 Root    424 :    52.623460501430790
 Root    425 :    52.661669228839020
 Root    426 :    52.739661986314680
 Root    427 :    52.935757369899130
 Root    428 :    52.993579727940360
 Root    429 :    53.032422281679650
 Root    430 :    53.169372356290210
 Root    431 :    53.318793324757050
 Root    432 :    53.496918222068060
 Root    433 :    53.680118409094800
 Root    434 :    53.753638946833540
 Root    435 :    53.912778473152650
 Root    436 :    54.249944897960090
 Root    437 :    54.389621128420170
 Root    438 :    54.543414401721040
 Root    439 :    54.659245100242370
 Root    440 :    54.950363058478750
 Root    441 :    55.054809947082580
 Root    442 :    55.294607860839660
 Root    443 :    55.361324766604760
 Root    444 :    55.414012807151090
 Root    445 :    55.477309764343930
 Root    446 :    55.644966611843510
 Root    447 :    55.883999067255770
 Root    448 :    55.954867075757830
 Root    449 :    56.201479908143970
 Root    450 :    56.304458888785350
 Root    451 :    56.503415208591970
 Root    452 :    56.711945808706130
 Root    453 :    56.890957510342870
 Root    454 :    57.196217487687270
 Root    455 :    57.220254488836860
 Root    456 :    57.428037258920070
 Root    457 :    57.999624590122320
 Root    458 :    58.269083041775640
 Root    459 :    58.569156905381580
 Root    460 :    58.624219989420550
 Root    461 :    58.689872706098580
 Root    462 :    58.892998122322570
 Root    463 :    58.929702703301720
 Root    464 :    59.077145113785500
 Root    465 :    59.412639567820630
 Root    466 :    59.432820197253260
 Root    467 :    59.500489863670750
 Root    468 :    59.635521684181280
 Root    469 :    59.837538935262020
 Root    470 :    59.921190931352600
 Root    471 :    60.166318703819230
 Root    472 :    60.548195572349410
 Root    473 :    60.645812325981040
 Root    474 :    60.699783407056710
 Root    475 :    60.799527462108020
 Root    476 :    60.807352305201310
 Root    477 :    60.880121238866290
 Root    478 :    60.941973416695480
 Root    479 :    61.152898803429540
 Root    480 :    61.211438343760000
 Root    481 :    61.391906899638040
 Root    482 :    61.571330146233130
 Root    483 :    61.861198774157760
 Root    484 :    62.194207104030100
 Root    485 :    62.280516365941070
 Root    486 :    62.314630374349990
 Root    487 :    62.356130112913320
 Root    488 :    62.428000505861870
 Root    489 :    62.864476551401450
 Root    490 :    62.976832191975940
 Root    491 :    62.982139700678100
 Root    492 :    63.319621071155250
 Root    493 :    64.198650578639900
 Root    494 :    64.207032262399880
 Root    495 :    64.402953333963210
 Root    496 :    64.722610763089760
 Root    497 :    64.734360640917730
 Root    498 :    64.920949400276740
 Root    499 :    65.006095816151710
 Root    500 :    65.156881153325160
 Root    501 :    65.209730066594290
 Root    502 :    65.244532290222210
 Root    503 :    65.408134400186750
 Root    504 :    65.500817261476970
 Root    505 :    65.530036201598050
 Root    506 :    65.746793128108810
 Root    507 :    66.071890573845710
 Root    508 :    66.259906726334360
 Root    509 :    66.367529766513270
 Root    510 :    66.690052270950200
 Root    511 :    66.780680346785290
 Root    512 :    67.011696340097150
 Root    513 :    67.102833481475630
 Root    514 :    67.227322552657920
 Root    515 :    67.604678815591130
 Root    516 :    67.730024706045940
 Root    517 :    67.919087676468450
 Root    518 :    68.210123455589750
 Root    519 :    68.324421441821810
 Root    520 :    68.505690459388900
 Root    521 :    68.520141499965900
 Root    522 :    68.969440395167100
 Root    523 :    69.013826308075310
 Root    524 :    69.368781301064910
 Root    525 :    69.787689600007670
 Root    526 :    69.957251168093630
 Root    527 :    70.168633485952240
 Root    528 :    70.263414407566800
 Root    529 :    70.377676841626600
 Root    530 :    70.635989303116800
 Root    531 :    70.884020958630510
 Root    532 :    70.897359483015930
 Root    533 :    71.187607576157350
 Root    534 :    71.295459445186820
 Root    535 :    71.585246476588100
 Root    536 :    71.791084121364860
 Root    537 :    71.857106983548410
 Root    538 :    71.955685083541680
 Root    539 :    72.228394027669610
 Root    540 :    72.607059786365840
 Root    541 :    72.873324249092160
 Root    542 :    73.145173860975290
 Root    543 :    73.444195647142830
 Root    544 :    73.673790228564510
 Root    545 :    73.840902086288950
 Root    546 :    73.986311853260460
 Root    547 :    74.226397824597190
 Root    548 :    74.445334227228860
 Root    549 :    74.541946975212550
 Root    550 :    74.760368635780470
 Root    551 :    74.872415528393390
 Root    552 :    75.257058502299900
 Root    553 :    75.306616341561100
 Root    554 :    75.372862382542710
 Root    555 :    75.623487372868850
 Root    556 :    75.675868731495830
 Root    557 :    76.089296130141160
 Root    558 :    76.783312231753160
 Root    559 :    76.936027189397000
 Root    560 :    77.264019039955230
 Root    561 :    77.396899906784480
 Root    562 :    77.548022344736920
 Root    563 :    77.691897300186230
 Root    564 :    77.711744773879910
 Root    565 :    78.148951895550100
 Root    566 :    78.200237090928780
 Root    567 :    78.598757334699480
 Root    568 :    78.628668207261280
 Root    569 :    78.809720125860490
 Root    570 :    79.035955191938980
 Root    571 :    79.137823396789570
 Root    572 :    79.602201152437790
 Root    573 :    79.618564334835680
 Root    574 :    79.775684652097810
 Root    575 :    80.146119027975090
 Root    576 :    80.728468700098080
 Root    577 :    80.853873051783130
 Root    578 :    80.964465817271350
 Root    579 :    80.965584670064220
 Root    580 :    81.857154237139990
 Root    581 :    82.900107452772910
 Root    582 :    82.925450649983160
 Root    583 :    83.097315749984760
 Root    584 :    83.236968605406550
 Root    585 :    83.435674242449820
 Root    586 :    83.933332955499010
 Root    587 :    84.230022883874470
 Root    588 :    84.776273990254650
 Root    589 :    85.214217632832840
 Root    590 :    85.461252342991600
 Root    591 :    85.906604910254120
 Root    592 :    86.097295584465070
 Root    593 :    86.427867996218620
 Root    594 :    86.582943393962810
 Root    595 :    87.273508587551700
 Root    596 :    87.570343221947780
 Root    597 :    87.847188065219530
 Root    598 :    88.166876729710140
 Root    599 :    88.288597093164910
 Root    600 :    88.704641392791640
 Root    601 :    88.777027481012650
 Root    602 :    89.222334617153050
 Root    603 :    89.889437477129260
 Root    604 :    89.954432499729800
 Root    605 :    90.031019270976610
 Root    606 :    90.386171794471410
 Root    607 :    90.630518443348110
 Root    608 :    91.079326706466430
 Root    609 :    91.291740288654150
 Root    610 :    91.681018087015720
 Root    611 :    91.997058696115810
 Root    612 :    92.194458349653840
 Root    613 :    92.382473618396700
 Root    614 :    92.418640501799350
 Root    615 :    92.507677805658050
 Root    616 :    92.699440363620080
 Root    617 :    92.881290553242290
 Root    618 :    92.971046825515430
 Root    619 :    93.067567406278780
 Root    620 :    93.602942334277200
 Root    621 :    93.716885056762320
 Root    622 :    94.139904872325790
 Root    623 :    94.364942721027750
 Root    624 :    94.632585964225630
 Root    625 :    95.508777227007270
 Root    626 :    95.769558975181200
 Root    627 :    95.812121641617650
 Root    628 :    95.938618121831600
 Root    629 :    95.978881340396140
 Root    630 :    96.365187965231880
 Root    631 :    96.429011985460790
 Root    632 :    96.987865211105590
 Root    633 :    97.634343975496280
 Root    634 :    97.820658996167350
 Root    635 :    97.893398873581220
 Root    636 :    98.882270579607390
 Root    637 :    99.220524356354730
 Root    638 :   100.075291466532100
 Root    639 :   101.083794811291000
 Root    640 :   101.149600622392900
 Root    641 :   102.145434546997800
 Root    642 :   102.982400685726400
 Root    643 :   103.153268475315300
 Root    644 :   103.718803946432200
 Root    645 :   104.132181371128700
 Root    646 :   104.433896044849400
 Root    647 :   105.050009206212700
 Root    648 :   106.088110095146800
 Root    649 :   106.598965656999000
 Root    650 :   106.610847583683700
 Root    651 :   107.542615647045400
 Root    652 :   108.384791769671300
 Root    653 :   108.656659000907700
 Root    654 :   108.774336144165000
 Root    655 :   109.795844740492500
 Root    656 :   110.089673650439800
 Root    657 :   110.398541142745300
 Root    658 :   111.137729260876300
 Root    659 :   111.278797009035300
 Root    660 :   113.154427764374200
 Root    661 :   113.466173963799800
 Root    662 :   113.969447540337900
 Root    663 :   114.414074521305800
 Root    664 :   115.108501741378600
 Root    665 :   115.404490957920500
 Root    666 :   117.528039126302700
 Root    667 :   118.531405712278300
 Root    668 :   119.516365978767400
 Root    669 :   121.277889834528700
 Root    670 :   121.488010558994400
 Root    671 :   121.761336818444800
 Root    672 :   123.408042297868200
 Root    673 :   127.423448435571300
 Root    674 :   129.874589369241600
 Root    675 :   135.450297078848500
 Convergence achieved for final wavefunctions.
 ***********************************************************************
 Excited states from <AA,BB:AA,BB> singles matrix:
 ***********************************************************************
 
 1PDM for each excited state written to RWF  633
 Ground to excited state transition densities written to RWF  633
 Ground to excited state transition electric dipole moments (Au):
       state          X           Y           Z        Dip. S.      Osc.
         1        -0.0000     -0.0000     -0.0756      0.0057      0.0008
         2         0.9754     -0.0644     -0.0000      0.9556      0.1589
         3        -0.0000     -0.0000     -0.0944      0.0089      0.0015
         4        -0.3789     -0.0662     -0.0000      0.1480      0.0264
         5         0.0000     -0.0000      0.3041      0.0925      0.0177
         6         0.2664     -0.2721     -0.0000      0.1450      0.0292
         7         0.0000     -0.0000      0.1079      0.0116      0.0025
         8        -0.0000     -0.0000      0.2108      0.0444      0.0099
         9         0.6267      0.1664      0.0000      0.4204      0.0963
        10        -0.0000      0.0000     -0.0172      0.0003      0.0001
        11        -0.1432      0.7179     -0.0000      0.5358      0.1247
        12        -0.2869      0.2233      0.0000      0.1322      0.0320
        13        -0.0000     -0.0000      0.3162      0.1000      0.0244
        14        -0.0000      0.0000      0.1432      0.0205      0.0050
        15         0.0000     -0.0000      0.3184      0.1014      0.0252
        16        -0.1910     -0.0410      0.0000      0.0382      0.0097
        17        -0.3719      0.3428     -0.0000      0.2558      0.0655
        18        -0.2108      0.3142     -0.0000      0.1432      0.0372
        19         0.0000     -0.0000     -0.0658      0.0043      0.0011
        20        -0.0000     -0.0000     -0.2709      0.0734      0.0196
        21         0.0000     -0.0000      0.2030      0.0412      0.0111
        22        -0.8547      0.1780      0.0000      0.7622      0.2085
        23         0.3460      0.0548      0.0000      0.1227      0.0344
        24        -0.0885     -0.5302     -0.0000      0.2889      0.0835
        25        -0.0000     -0.0000     -0.2195      0.0482      0.0140
        26         0.3838      0.3136     -0.0000      0.2457      0.0724
        27         0.0000      0.0000     -0.0683      0.0047      0.0014
        28        -0.4723     -0.3462      0.0000      0.3429      0.1036
        29         0.0000      0.0000      0.0544      0.0030      0.0009
        30        -0.4669      0.1889     -0.0000      0.2537      0.0775
        31        -0.0000      0.0000      0.0729      0.0053      0.0016
        32         0.0000      0.0000     -0.0937      0.0088      0.0027
        33         0.0000     -0.0000     -0.5280      0.2788      0.0871
        34        -0.2533      0.0775      0.0000      0.0702      0.0221
        35        -0.0000     -0.0000     -0.0714      0.0051      0.0016
        36        -0.1429     -0.0953     -0.0000      0.0295      0.0094
        37        -0.1420      0.0212     -0.0000      0.0206      0.0066
        38        -0.0000      0.0000     -0.1582      0.0250      0.0081
        39         0.2371     -0.1334      0.0000      0.0740      0.0241
        40        -0.1311      0.0403     -0.0000      0.0188      0.0062
        41         0.0000     -0.0000      0.0283      0.0008      0.0003
        42         0.1539      0.1585      0.0000      0.0488      0.0164
        43        -0.0000      0.0000      0.0601      0.0036      0.0012
        44         0.0845      0.1569      0.0000      0.0318      0.0108
        45         0.1123     -0.2119      0.0000      0.0575      0.0198
        46         0.0000     -0.0000     -0.2965      0.0879      0.0304
        47        -0.0008     -0.0390      0.0000      0.0015      0.0005
        48         0.0000      0.0000     -0.3552      0.1262      0.0440
        49        -0.1209      0.5191      0.0000      0.2840      0.0999
        50        -0.0000     -0.0000     -0.0438      0.0019      0.0007
        51         0.4833      0.4309      0.0000      0.4193      0.1483
        52        -0.2274     -0.1265      0.0000      0.0677      0.0242
        53         0.7144      0.0014     -0.0000      0.5104      0.1841
        54        -0.0000      0.0000      0.0533      0.0028      0.0010
        55        -0.0000      0.0000     -0.1772      0.0314      0.0115
        56        -0.0000     -0.0000     -0.0585      0.0034      0.0013
        57         0.0086      0.2269     -0.0000      0.0516      0.0190
        58        -0.0000     -0.0000     -0.4367      0.1907      0.0712
        59         0.5848      0.0473      0.0000      0.3443      0.1286
        60        -0.1712     -0.3496      0.0000      0.1516      0.0573
        61         0.0000      0.0000     -0.3117      0.0972      0.0370
        62         0.2359     -0.0371      0.0000      0.0570      0.0217
        63         0.4854     -0.3546     -0.0000      0.3614      0.1386
        64         0.3355     -0.2830     -0.0000      0.1927      0.0749
        65         0.1494     -0.0139     -0.0000      0.0225      0.0088
        66        -0.0000      0.0000     -0.2378      0.0565      0.0221
        67         0.0000     -0.0000      0.5227      0.2732      0.1070
        68         0.0000     -0.0000      0.5225      0.2730      0.1075
        69        -0.1687     -0.1830     -0.0000      0.0620      0.0244
        70        -0.0017     -0.4116     -0.0000      0.1695      0.0669
        71        -0.0000     -0.0000      0.1057      0.0112      0.0044
        72         0.4509     -0.0971      0.0000      0.2127      0.0850
        73         0.2835      0.2433     -0.0000      0.1396      0.0558
        74        -0.2089     -0.2481     -0.0000      0.1052      0.0422
        75         0.1405      0.1468     -0.0000      0.0413      0.0166
        76         0.0000      0.0000     -0.0660      0.0044      0.0018
        77        -0.1229     -0.0047      0.0000      0.0151      0.0061
        78         0.0000     -0.0000     -0.0666      0.0044      0.0018
        79         0.2687      0.3295     -0.0000      0.1808      0.0738
        80         0.0000      0.0000     -0.1508      0.0227      0.0093
        81         0.0000      0.0000      0.0029      0.0000      0.0000
        82         0.5119     -0.0992     -0.0000      0.2719      0.1126
        83         0.0521     -0.3219     -0.0000      0.1063      0.0444
        84        -0.0000      0.0000      0.4286      0.1837      0.0771
        85         0.1065     -0.1239      0.0000      0.0267      0.0113
        86         0.0000     -0.0000     -0.0348      0.0012      0.0005
        87         0.3294      0.0159      0.0000      0.1087      0.0460
        88        -0.0036     -0.1151     -0.0000      0.0133      0.0056
        89        -0.0000     -0.0000     -0.3892      0.1514      0.0646
        90         0.0130     -0.2854      0.0000      0.0816      0.0349
        91         0.0000      0.0000      0.3088      0.0953      0.0411
        92        -0.0000     -0.0000     -0.0141      0.0002      0.0001
        93        -0.0238      0.3812     -0.0000      0.1458      0.0634
        94         0.1744     -0.2590      0.0000      0.0975      0.0425
        95        -0.1140     -0.3623      0.0000      0.1443      0.0635
        96        -0.0377      0.1331     -0.0000      0.0191      0.0085
        97        -0.2011     -0.2582      0.0000      0.1071      0.0474
        98         0.0000      0.0000      0.4819      0.2322      0.1031
        99         0.3669      0.1497      0.0000      0.1570      0.0698
       100         0.2071     -0.0129     -0.0000      0.0430      0.0193
       101        -0.0000      0.0000     -0.0766      0.0059      0.0026
       102         0.1392     -0.0205     -0.0000      0.0198      0.0089
[...]
     14  -0.345469D+00  0.786447D+00  0.371936D+00 -0.212376D+00  0.000000D+00
     15   0.000000D+00  0.000000D+00  0.000000D+00  0.000000D+00 -0.375902D+00
     16   0.000000D+00  0.000000D+00  0.000000D+00  0.000000D+00  0.266241D-01
               606           607           608           609           610 
      1  -0.166380D+03 -0.166371D+03 -0.166355D+03 -0.166347D+03 -0.166333D+03
      2   0.247400D-01 -0.802541D-02 -0.205088D-01  0.000000D+00  0.000000D+00
      3  -0.199264D-02  0.684910D-01 -0.608263D-01  0.000000D+00  0.000000D+00
      4   0.000000D+00  0.000000D+00  0.000000D+00  0.104355D+00 -0.638250D-01
      5  -0.702165D-01  0.972931D-02  0.703543D-01  0.000000D+00  0.000000D+00
      6  -0.121930D-02 -0.200026D+00  0.170069D+00  0.000000D+00  0.000000D+00
      7   0.000000D+00  0.000000D+00  0.000000D+00 -0.311505D+00  0.177285D+00
      8   0.000000D+00  0.000000D+00  0.000000D+00  0.136869D+00  0.172824D+00
      9   0.000000D+00  0.000000D+00  0.000000D+00 -0.306100D+00  0.372974D+00
     10   0.296571D+00 -0.976120D-01 -0.759137D+00  0.000000D+00  0.000000D+00
     11  -0.844072D+00 -0.133954D+01 -0.926422D+00  0.000000D+00  0.000000D+00
     12  -0.247290D+00 -0.742781D+00 -0.410931D+00  0.000000D+00  0.000000D+00
     13   0.890939D-01  0.136770D-01  0.614046D-02  0.000000D+00  0.000000D+00
     14   0.107106D-02 -0.725394D+00 -0.856889D+00  0.000000D+00  0.000000D+00
     15   0.000000D+00  0.000000D+00  0.000000D+00  0.170886D+00 -0.595544D+00
     16   0.000000D+00  0.000000D+00  0.000000D+00  0.241976D+00  0.287166D+00
               611           612           613           614           615 
      1  -0.166321D+03 -0.166314D+03 -0.166307D+03 -0.166305D+03 -0.166302D+03
      2   0.000000D+00 -0.121587D+00  0.000000D+00  0.546775D-01 -0.675862D-01
      3   0.000000D+00 -0.711616D-01  0.000000D+00  0.102990D+00 -0.100361D+00
      4   0.176626D-01  0.000000D+00 -0.629060D-01  0.000000D+00  0.000000D+00
      5   0.000000D+00  0.397589D+00  0.000000D+00 -0.161461D+00  0.188622D+00
      6   0.000000D+00  0.219021D+00  0.000000D+00 -0.315979D+00  0.294250D+00
      7  -0.683111D-01  0.000000D+00  0.175202D+00  0.000000D+00  0.000000D+00
      8  -0.200536D-01  0.000000D+00  0.234778D+00  0.000000D+00  0.000000D+00
      9  -0.105426D+00  0.000000D+00  0.410803D-01  0.000000D+00  0.000000D+00
     10   0.000000D+00 -0.614169D+00  0.000000D+00 -0.289976D+00  0.412988D-01
     11   0.000000D+00 -0.129367D+01  0.000000D+00  0.139089D+01  0.144509D+00
     12   0.000000D+00 -0.389147D+00  0.000000D+00 -0.648740D-01 -0.511253D+00
     13   0.000000D+00 -0.363761D-01  0.000000D+00  0.146346D+00  0.129246D-01
     14   0.000000D+00 -0.441939D+00  0.000000D+00  0.784113D+00  0.692031D+00
     15  -0.190338D-01  0.000000D+00  0.494395D-01  0.000000D+00  0.000000D+00
     16   0.323169D-01  0.000000D+00  0.484254D+00  0.000000D+00  0.000000D+00
               616           617           618           619           620 
      1  -0.166295D+03 -0.166288D+03 -0.166285D+03 -0.166282D+03 -0.166262D+03
      2   0.000000D+00 -0.798925D-01 -0.135271D+00  0.000000D+00  0.000000D+00
      3   0.000000D+00 -0.300459D-02  0.279586D+00  0.000000D+00  0.000000D+00
      4  -0.130617D+00  0.000000D+00  0.000000D+00 -0.498356D-01 -0.110034D+00
      5   0.000000D+00  0.283130D+00  0.412728D+00  0.000000D+00  0.000000D+00
      6   0.000000D+00  0.911822D-02 -0.848702D+00  0.000000D+00  0.000000D+00
      7   0.376278D+00  0.000000D+00  0.000000D+00  0.133174D+00  0.316925D+00
      8  -0.259152D+00  0.000000D+00  0.000000D+00 -0.707285D-01 -0.350723D+00
      9   0.500251D+00  0.000000D+00  0.000000D+00  0.401979D+00  0.844185D+00
     10   0.000000D+00  0.332428D+00  0.133010D+01  0.000000D+00  0.000000D+00
     11   0.000000D+00 -0.376297D+00 -0.140930D+01  0.000000D+00  0.000000D+00
     12   0.000000D+00  0.338255D+00  0.125658D+01  0.000000D+00  0.000000D+00
     13   0.000000D+00  0.360093D+00 -0.265657D+00  0.000000D+00  0.000000D+00
     14   0.000000D+00  0.427234D+00  0.830985D+00  0.000000D+00  0.000000D+00
     15  -0.251227D+00  0.000000D+00  0.000000D+00 -0.315773D+00 -0.936544D+00
     16  -0.433623D+00  0.000000D+00  0.000000D+00 -0.105305D+00 -0.539932D+00
               621           622           623           624           625 
      1  -0.166258D+03 -0.166242D+03 -0.166234D+03 -0.166224D+03 -0.166192D+03
      2  -0.865074D-01  0.000000D+00  0.741725D-01  0.000000D+00  0.129501D+00
      3  -0.104438D+00  0.000000D+00  0.800936D-01  0.000000D+00 -0.635128D-01
      4   0.000000D+00  0.103305D+00  0.000000D+00 -0.515195D-01  0.000000D+00
      5   0.265033D+00  0.000000D+00 -0.226424D+00  0.000000D+00 -0.419364D+00
      6   0.325544D+00  0.000000D+00 -0.256641D+00  0.000000D+00  0.190409D+00
      7   0.000000D+00 -0.301694D+00  0.000000D+00  0.148896D+00  0.000000D+00
      8   0.000000D+00 -0.529764D-02  0.000000D+00  0.105025D+00  0.000000D+00
      9   0.000000D+00 -0.388920D+00  0.000000D+00  0.907508D-01  0.000000D+00
     10  -0.670796D+00  0.000000D+00  0.514455D+00  0.000000D+00 -0.309780D+00
     11  -0.100114D+01  0.000000D+00  0.148646D+00  0.000000D+00  0.178740D+01
     12  -0.760176D+00  0.000000D+00  0.536968D+00  0.000000D+00 -0.325828D-01
     13  -0.883806D-01  0.000000D+00  0.604815D-01  0.000000D+00  0.213605D-01
     14  -0.132019D+01  0.000000D+00  0.805869D+00  0.000000D+00  0.246155D+00
     15   0.000000D+00  0.249177D+00  0.000000D+00 -0.963665D-01  0.000000D+00
     16   0.000000D+00 -0.129026D-01  0.000000D+00  0.109642D+00  0.000000D+00
               626           627           628           629           630 
      1  -0.166182D+03 -0.166181D+03 -0.166176D+03 -0.166175D+03 -0.166160D+03
      2   0.286957D-01  0.000000D+00  0.142119D-01  0.000000D+00  0.000000D+00
      3   0.357942D-01  0.000000D+00  0.552097D-01  0.000000D+00  0.000000D+00
      4   0.000000D+00 -0.195116D+00  0.000000D+00 -0.553254D-02  0.284715D-01
      5  -0.889146D-01  0.000000D+00 -0.509443D-01  0.000000D+00  0.000000D+00
      6  -0.102036D+00  0.000000D+00 -0.131364D+00  0.000000D+00  0.000000D+00
      7   0.000000D+00  0.593330D+00  0.000000D+00  0.102606D-01 -0.806287D-01
      8   0.000000D+00 -0.185264D+00  0.000000D+00 -0.457011D+00  0.348888D+00
      9   0.000000D+00  0.912885D+00  0.000000D+00  0.302161D+00 -0.525986D+00
     10  -0.293324D+00  0.000000D+00  0.389686D+00  0.000000D+00  0.000000D+00
     11  -0.216142D-01  0.000000D+00 -0.103832D+01  0.000000D+00  0.000000D+00
     12  -0.179642D-01  0.000000D+00  0.208677D+00  0.000000D+00  0.000000D+00
     13   0.134703D-01  0.000000D+00 -0.607727D-01  0.000000D+00  0.000000D+00
     14  -0.590986D-01  0.000000D+00  0.564085D-01  0.000000D+00  0.000000D+00
     15   0.000000D+00 -0.859126D+00  0.000000D+00 -0.165458D+00  0.563600D+00
     16   0.000000D+00 -0.302946D+00  0.000000D+00 -0.724984D+00  0.589352D+00
               631           632           633           634           635 
      1  -0.166158D+03 -0.166137D+03 -0.166114D+03 -0.166107D+03 -0.166104D+03
      2   0.111675D-01  0.309308D-01  0.162142D+00  0.000000D+00  0.632488D-01
      3   0.302546D-01  0.828457D-01 -0.803495D-01  0.000000D+00 -0.947805D-01
      4   0.000000D+00  0.000000D+00  0.000000D+00  0.140393D+00  0.000000D+00
      5  -0.315166D-01 -0.890849D-01 -0.520430D+00  0.000000D+00 -0.186702D+00
      6  -0.968529D-01 -0.260031D+00  0.240338D+00  0.000000D+00  0.286207D+00
      7   0.000000D+00  0.000000D+00  0.000000D+00 -0.431556D+00  0.000000D+00
      8   0.000000D+00  0.000000D+00  0.000000D+00  0.476220D+00  0.000000D+00
      9   0.000000D+00  0.000000D+00  0.000000D+00 -0.982647D+00  0.000000D+00
     10   0.195776D-01  0.190939D+00 -0.165118D+00  0.000000D+00 -0.216803D-01
     11  -0.122616D+00 -0.549330D-01  0.689147D+00  0.000000D+00 -0.691806D+00
     12   0.676112D-01  0.665553D-01  0.529699D+00  0.000000D+00 -0.235240D-01
     13  -0.744088D-01  0.144920D+00 -0.971311D-01  0.000000D+00 -0.116295D+00
     14   0.263357D+00  0.245165D+00 -0.443840D+00  0.000000D+00 -0.307294D+00
     15   0.000000D+00  0.000000D+00  0.000000D+00  0.102625D+01  0.000000D+00
     16   0.000000D+00  0.000000D+00  0.000000D+00  0.696183D+00  0.000000D+00
               636           637           638           639           640 
      1  -0.166068D+03 -0.166055D+03 -0.166024D+03 -0.165987D+03 -0.165985D+03
      2  -0.105282D-01  0.000000D+00  0.571534D-01  0.403388D-02  0.000000D+00
      3   0.456278D-01  0.000000D+00 -0.495197D-01 -0.344203D-01  0.000000D+00
      4   0.000000D+00  0.417461D-01  0.000000D+00  0.000000D+00  0.300253D-01
      5   0.312380D-01  0.000000D+00 -0.194183D+00 -0.748804D-02  0.000000D+00
      6  -0.148059D+00  0.000000D+00  0.156641D+00  0.111671D+00  0.000000D+00
      7   0.000000D+00 -0.133702D+00  0.000000D+00  0.000000D+00 -0.895496D-01
      8   0.000000D+00  0.476983D-01  0.000000D+00  0.000000D+00  0.665303D-01
      9   0.000000D+00 -0.290224D+00  0.000000D+00  0.000000D+00 -0.146718D+00
     10   0.820063D-01  0.000000D+00 -0.507312D+00 -0.129543D+00  0.000000D+00
     11  -0.331878D+00  0.000000D+00  0.665921D+00 -0.975245D+00  0.000000D+00
     12   0.155509D+00  0.000000D+00 -0.158659D+01 -0.958040D+00  0.000000D+00
     13   0.129149D+00  0.000000D+00  0.897320D-01  0.241452D+00  0.000000D+00
     14   0.142652D+00  0.000000D+00 -0.750267D+00 -0.402994D-02  0.000000D+00
     15   0.000000D+00  0.396674D+00  0.000000D+00  0.000000D+00  0.196480D+00
     16   0.000000D+00  0.300988D+00  0.000000D+00  0.000000D+00 -0.200825D+00
               641           642           643           644           645 
      1  -0.165948D+03 -0.165917D+03 -0.165911D+03 -0.165890D+03 -0.165875D+03
      2  -0.744796D-01  0.000000D+00  0.000000D+00  0.585908D-01  0.000000D+00
      3  -0.836692D-01  0.000000D+00  0.000000D+00  0.675930D-01  0.000000D+00
      4   0.000000D+00 -0.120825D-01 -0.143349D-01  0.000000D+00 -0.364056D-01
      5   0.232783D+00  0.000000D+00  0.000000D+00 -0.219555D+00  0.000000D+00
      6   0.274290D+00  0.000000D+00  0.000000D+00 -0.234918D+00  0.000000D+00
      7   0.000000D+00  0.392793D-01  0.243319D-01  0.000000D+00  0.111117D+00
      8   0.000000D+00  0.917878D-01  0.129106D+00  0.000000D+00 -0.388165D-01
      9   0.000000D+00 -0.673341D-01 -0.820339D-01  0.000000D+00  0.141874D+00
     10   0.263536D+00  0.000000D+00  0.000000D+00  0.283975D+00  0.000000D+00
     11   0.114654D+00  0.000000D+00  0.000000D+00 -0.214887D+00  0.000000D+00
     12   0.199259D-01  0.000000D+00  0.000000D+00  0.798200D+00  0.000000D+00
     13  -0.103512D+00  0.000000D+00  0.000000D+00 -0.167025D+00  0.000000D+00
     14   0.988299D-01  0.000000D+00  0.000000D+00  0.556054D+00  0.000000D+00
     15   0.000000D+00  0.751241D-01 -0.124235D-01  0.000000D+00 -0.308594D+00
     16   0.000000D+00 -0.410446D-01  0.152650D+00  0.000000D+00  0.334769D-02
               646           647           648           649           650 
      1  -0.165864D+03 -0.165841D+03 -0.165803D+03 -0.165784D+03 -0.165784D+03
      2   0.286618D-01 -0.852447D-02 -0.814785D-01  0.000000D+00 -0.526265D-02
      3  -0.472376D-01 -0.615420D-01 -0.515093D-01  0.000000D+00  0.905832D-01
      4   0.000000D+00  0.000000D+00  0.000000D+00  0.236347D+00  0.000000D+00
      5  -0.882789D-01  0.364453D-01  0.289853D+00  0.000000D+00  0.109999D-01
      6   0.152327D+00  0.233837D+00  0.203343D+00  0.000000D+00 -0.330010D+00
      7   0.000000D+00  0.000000D+00  0.000000D+00 -0.818818D+00  0.000000D+00
      8   0.000000D+00  0.000000D+00  0.000000D+00  0.350464D+00  0.000000D+00
      9   0.000000D+00  0.000000D+00  0.000000D+00 -0.142148D+01  0.000000D+00
     10   0.105175D+00 -0.113862D+01 -0.635688D+00  0.000000D+00 -0.138984D+00
     11  -0.412731D-01  0.323972D+00 -0.189076D+00  0.000000D+00  0.969059D+00
     12   0.149545D+00 -0.627595D+00 -0.243502D+00  0.000000D+00  0.164574D+00
     13  -0.215908D+00  0.111670D+00  0.236428D-01  0.000000D+00 -0.396509D-01
     14   0.113956D+00 -0.626358D+00 -0.789134D-01  0.000000D+00  0.318437D+00
     15   0.000000D+00  0.000000D+00  0.000000D+00  0.134887D+01  0.000000D+00
     16   0.000000D+00  0.000000D+00  0.000000D+00  0.473356D+00  0.000000D+00
               651           652           653           654           655 
      1  -0.165750D+03 -0.165719D+03 -0.165709D+03 -0.165704D+03 -0.165667D+03
      2  -0.155540D-04 -0.414667D-01 -0.121676D-01  0.000000D+00  0.000000D+00
      3  -0.146558D-01  0.376858D-01 -0.595554D-02  0.000000D+00  0.000000D+00
      4   0.000000D+00  0.000000D+00  0.000000D+00 -0.224181D-01  0.510864D-01
      5   0.265050D-01  0.134819D+00  0.393780D-01  0.000000D+00  0.000000D+00
      6   0.308847D-01 -0.137171D+00  0.324839D-01  0.000000D+00  0.000000D+00
      7   0.000000D+00  0.000000D+00  0.000000D+00  0.810116D-01 -0.182522D+00
      8   0.000000D+00  0.000000D+00  0.000000D+00 -0.639750D-01  0.142281D+00
      9   0.000000D+00  0.000000D+00  0.000000D+00  0.175994D+00 -0.375170D+00
     10   0.246324D+00  0.454907D+00  0.142919D+00  0.000000D+00  0.000000D+00
     11  -0.155865D+00  0.350670D-01 -0.404185D+00  0.000000D+00  0.000000D+00
     12  -0.644789D-01  0.558941D-01  0.204238D+00  0.000000D+00  0.000000D+00
     13   0.155975D-01  0.127260D+00 -0.147585D+00  0.000000D+00  0.000000D+00
     14   0.509694D+00  0.396656D+00 -0.548324D+00  0.000000D+00  0.000000D+00
     15   0.000000D+00  0.000000D+00  0.000000D+00 -0.151079D+00  0.710080D+00
     16   0.000000D+00  0.000000D+00  0.000000D+00  0.362795D+00  0.238142D+00
               656           657           658           659           660 
      1  -0.165656D+03 -0.165645D+03 -0.165617D+03 -0.165612D+03 -0.165543D+03
      2  -0.868804D-01  0.000000D+00 -0.178371D-01  0.240997D-01 -0.821054D-01
      3   0.297856D-01  0.000000D+00 -0.712599D-01 -0.282017D-01 -0.227650D-01
      4   0.000000D+00  0.189223D+00  0.000000D+00  0.000000D+00  0.000000D+00
      5   0.310921D+00  0.000000D+00  0.821285D-01 -0.864820D-01  0.309958D+00
      6  -0.937044D-01  0.000000D+00  0.270311D+00  0.928977D-01  0.777641D-01
      7   0.000000D+00 -0.652134D+00  0.000000D+00  0.000000D+00  0.000000D+00
      8   0.000000D+00  0.656568D+00  0.000000D+00  0.000000D+00  0.000000D+00
      9   0.000000D+00 -0.144493D+01  0.000000D+00  0.000000D+00  0.000000D+00
     10   0.430742D+00  0.000000D+00 -0.111396D+00  0.200605D-01  0.746702D-01
     11  -0.750829D+00  0.000000D+00 -0.545186D+00  0.702288D-01 -0.861213D+00
     12   0.537753D-01  0.000000D+00  0.184403D+00  0.184826D+00  0.344871D+00
     13  -0.186737D+00  0.000000D+00  0.138956D+00  0.422841D-01 -0.116822D+00
     14   0.253983D-01  0.000000D+00 -0.404305D+00  0.928356D-02 -0.162565D+00
     15   0.000000D+00  0.135268D+01  0.000000D+00  0.000000D+00  0.000000D+00
     16   0.000000D+00  0.913183D+00  0.000000D+00  0.000000D+00  0.000000D+00
               661           662           663           664           665 
      1  -0.165532D+03 -0.165513D+03 -0.165497D+03 -0.165472D+03 -0.165461D+03
      2   0.000000D+00  0.163576D-03 -0.147069D+00 -0.857860D-02  0.108656D+00
      3   0.000000D+00 -0.245134D-01 -0.278342D-01  0.193793D-02  0.262687D-01
      4  -0.158727D-01  0.000000D+00  0.000000D+00  0.000000D+00  0.000000D+00
      5   0.000000D+00  0.907752D-02  0.568303D+00  0.225178D-01 -0.459753D+00
      6   0.000000D+00  0.690654D-01  0.102641D+00 -0.794184D-02 -0.126275D+00
      7   0.768458D-01  0.000000D+00  0.000000D+00  0.000000D+00  0.000000D+00
      8  -0.126885D+00  0.000000D+00  0.000000D+00  0.000000D+00  0.000000D+00
      9   0.253154D+00  0.000000D+00  0.000000D+00  0.000000D+00  0.000000D+00
     10   0.000000D+00  0.127218D+00  0.114075D-01  0.220548D+00  0.161663D+00
     11   0.000000D+00 -0.165557D-01 -0.124534D+01  0.369746D+00  0.151468D+01
     12   0.000000D+00  0.171283D+00 -0.286627D+00 -0.731751D-01  0.462325D-01
     13   0.000000D+00 -0.694683D-01 -0.432633D-01  0.706962D-01 -0.154900D-01
     14   0.000000D+00  0.672439D-01 -0.122302D+00  0.291776D-01  0.521586D+00
     15  -0.744837D-01  0.000000D+00  0.000000D+00  0.000000D+00  0.000000D+00
     16  -0.204519D+00  0.000000D+00  0.000000D+00  0.000000D+00  0.000000D+00
               666           667           668           669           670 
      1  -0.165383D+03 -0.165346D+03 -0.165310D+03 -0.165245D+03 -0.165237D+03
      2   0.000000D+00  0.120119D+00 -0.116431D+00 -0.345462D-01  0.204723D-01
      3   0.000000D+00 -0.811885D-01 -0.742317D-01  0.597700D-01 -0.102844D+00
      4  -0.435456D-01  0.000000D+00  0.000000D+00  0.000000D+00  0.000000D+00
      5   0.000000D+00 -0.460694D+00  0.481039D+00  0.114468D+00 -0.784821D-01
      6   0.000000D+00  0.323553D+00  0.324205D+00 -0.236981D+00  0.412209D+00
      7   0.186814D+00  0.000000D+00  0.000000D+00  0.000000D+00  0.000000D+00
      8   0.279209D-02  0.000000D+00  0.000000D+00  0.000000D+00  0.000000D+00
      9   0.209957D+00  0.000000D+00  0.000000D+00  0.000000D+00  0.000000D+00
     10   0.000000D+00 -0.832632D+00 -0.439636D-01  0.400992D+00 -0.981631D+00
     11   0.000000D+00  0.159574D+01 -0.203535D+01 -0.302571D+00  0.882078D+00
     12   0.000000D+00 -0.535648D+00  0.429702D-01  0.102602D+00 -0.388107D+00
     13   0.000000D+00  0.127851D+00 -0.658482D-01  0.267955D-01  0.341329D-01
     14   0.000000D+00 -0.100843D-01 -0.926559D+00  0.195405D+00 -0.239113D+00
     15   0.577507D-02  0.000000D+00  0.000000D+00  0.000000D+00  0.000000D+00
     16   0.128183D-01  0.000000D+00  0.000000D+00  0.000000D+00  0.000000D+00
               671           672           673           674           675 
      1  -0.165227D+03 -0.165167D+03 -0.165019D+03 -0.164929D+03 -0.164724D+03
      2   0.232205D-02  0.115102D-01 -0.237456D-01  0.180912D-01  0.146990D-01
      3  -0.226674D-01  0.797097D-01  0.179213D-01 -0.691590D-02 -0.224354D-01
      4   0.000000D+00  0.000000D+00  0.000000D+00  0.000000D+00  0.000000D+00
      5   0.895746D-02 -0.803224D-01  0.152025D+00 -0.693621D-01  0.124563D-01
      6   0.912681D-01 -0.351325D+00 -0.204447D-01  0.268119D-01  0.138654D+00
      7   0.000000D+00  0.000000D+00  0.000000D+00  0.000000D+00  0.000000D+00
      8   0.000000D+00  0.000000D+00  0.000000D+00  0.000000D+00  0.000000D+00
      9   0.000000D+00  0.000000D+00  0.000000D+00  0.000000D+00  0.000000D+00
     10  -0.221073D+00  0.660350D+00  0.174157D+00 -0.114485D+00 -0.222197D+00
     11  -0.333160D+00  0.774050D-01 -0.418668D+00 -0.689152D-02 -0.462035D-01
     12  -0.470321D+00  0.559707D+00  0.148565D+00 -0.490709D+00 -0.148997D+00
     13   0.180239D+00 -0.486022D-01 -0.215663D+00  0.366467D-01  0.913669D-01
     14  -0.343690D+00  0.729825D+00 -0.771333D-01 -0.260677D+00 -0.574466D-01
     15   0.000000D+00  0.000000D+00  0.000000D+00  0.000000D+00  0.000000D+00
     16   0.000000D+00  0.000000D+00  0.000000D+00  0.000000D+00  0.000000D+00
 Unable to Open any file for archive entry.
 1\1\GINC-HEL24\SP\RB3LYP TD-FC\Gen\C1H3N1O1\SABYASACHI\21-Mar-2022\0\\
 #P TD(Nstates=10000) b3lyp/Gen SCF(maxcycles=100) Int(Grid=ultrafine)\
 \xGDB7_00001_tier4.com\\0,1\O,0,-1.028621,-0.395177,0.\N,0,0.,0.526228
 ,0.\C,0,1.132746,-0.030907,0.\H,0,-1.816572,0.151791,0.\H,0,1.994262,0
 .623439,0.\H,0,1.254802,-1.111965,0.\\Version=EM64L-G16RevC.01\State=1
 -A'\HF=-169.7017334\RMSD=3.577e-09\PG=CS [SG(C1H3N1O1)]\\@
 The archive entry for this job was punched.


 NO SCIENCE HAS EVER MADE MORE RAPID PROGRESS IN A
 SHORTER TIME THAN CHEMISTRY.
   -- MARTIN HEINRICH KLOPROTH, 1791
 (FIRST PROFESSOR OF CHEMISTRY AT THE UNIVERSITY OF BERLIN)
 Job cpu time:       0 days  0 hours  7 minutes 13.2 seconds.
 Elapsed time:       0 days  0 hours  0 minutes 54.4 seconds.
 File lengths (MBytes):  RWF=    584 Int=      0 D2E=      0 Chk=    127 Scr=      1
 Normal termination of Gaussian 16 at Mon Mar 21 20:08:48 2022.
