 Entering Gaussian System, Link 0=g16
 Input=000005.com
 Output=000005.log
 Initial command:
 /home/sabyasachi/g16/l1.exe "/scratch/sabyasachi/PBS_7976007.helios/Gau-141621.inp" -scrdir="/scratch/sabyasachi/PBS_7976007.helios/"
 Entering Link 1 = /home/sabyasachi/g16/l1.exe PID=    141622.
  
 Copyright (c) 1988-2019, Gaussian, Inc.  All Rights Reserved.
  
 This is part of the Gaussian(R) 16 program.  It is based on
 the Gaussian(R) 09 system (copyright 2009, Gaussian, Inc.),
 the Gaussian(R) 03 system (copyright 2003, Gaussian, Inc.),
 the Gaussian(R) 98 system (copyright 1998, Gaussian, Inc.),
 the Gaussian(R) 94 system (copyright 1995, Gaussian, Inc.),
 the Gaussian 92(TM) system (copyright 1992, Gaussian, Inc.),
 the Gaussian 90(TM) system (copyright 1990, Gaussian, Inc.),
 the Gaussian 88(TM) system (copyright 1988, Gaussian, Inc.),
 the Gaussian 86(TM) system (copyright 1986, Carnegie Mellon
 University), and the Gaussian 82(TM) system (copyright 1983,
 Carnegie Mellon University). Gaussian is a federally registered
 trademark of Gaussian, Inc.
  
 This software contains proprietary and confidential information,
 including trade secrets, belonging to Gaussian, Inc.
  
 This software is provided under written license and may be
 used, copied, transmitted, or stored only in accord with that
 written license.
  
 The following legend is applicable only to US Government
 contracts under FAR:
  
                    RESTRICTED RIGHTS LEGEND
  
 Use, reproduction and disclosure by the US Government is
 subject to restrictions as set forth in subparagraphs (a)
 and (c) of the Commercial Computer Software - Restricted
 Rights clause in FAR 52.227-19.
  
 Gaussian, Inc.
 340 Quinnipiac St., Bldg. 40, Wallingford CT 06492
  
  
 ---------------------------------------------------------------
 Warning -- This program may not be used in any manner that
 competes with the business of Gaussian, Inc. or will provide
 assistance to any competitor of Gaussian, Inc.  The licensee
 of this program is prohibited from giving any competitor of
 Gaussian, Inc. access to this program.  By using this program,
 the user acknowledges that Gaussian, Inc. is engaged in the
 business of creating and licensing software in the field of
 computational chemistry and represents and warrants to the
 licensee that it is not a competitor of Gaussian, Inc. and that
 it will not use this program in any manner prohibited above.
 ---------------------------------------------------------------
  

 Cite this work as:
 Gaussian 16, Revision C.01,
 M. J. Frisch, G. W. Trucks, H. B. Schlegel, G. E. Scuseria, 
 M. A. Robb, J. R. Cheeseman, G. Scalmani, V. Barone, 
 G. A. Petersson, H. Nakatsuji, X. Li, M. Caricato, A. V. Marenich, 
 J. Bloino, B. G. Janesko, R. Gomperts, B. Mennucci, H. P. Hratchian, 
 J. V. Ortiz, A. F. Izmaylov, J. L. Sonnenberg, D. Williams-Young, 
 F. Ding, F. Lipparini, F. Egidi, J. Goings, B. Peng, A. Petrone, 
 T. Henderson, D. Ranasinghe, V. G. Zakrzewski, J. Gao, N. Rega, 
 G. Zheng, W. Liang, M. Hada, M. Ehara, K. Toyota, R. Fukuda, 
 J. Hasegawa, M. Ishida, T. Nakajima, Y. Honda, O. Kitao, H. Nakai, 
 T. Vreven, K. Throssell, J. A. Montgomery, Jr., J. E. Peralta, 
 F. Ogliaro, M. J. Bearpark, J. J. Heyd, E. N. Brothers, K. N. Kudin, 
 V. N. Staroverov, T. A. Keith, R. Kobayashi, J. Normand, 
 K. Raghavachari, A. P. Rendell, J. C. Burant, S. S. Iyengar, 
 J. Tomasi, M. Cossi, J. M. Millam, M. Klene, C. Adamo, R. Cammi, 
 J. W. Ochterski, R. L. Martin, K. Morokuma, O. Farkas, 
 J. B. Foresman, and D. J. Fox, Gaussian, Inc., Wallingford CT, 2019.
 
 ******************************************
 Gaussian 16:  EM64L-G16RevC.01  3-Jul-2019
                21-Mar-2022 
 ******************************************
 %mem=64gb
 %nproc=8
 Will use up to    8 processors via shared memory.
 ---------------------------------------------------------------------
 #P TD(Nstates=10000) b3lyp/Gen SCF(maxcycles=100) Int(Grid=ultrafine)
 ---------------------------------------------------------------------
 1/38=1,172=1/1;
 2/12=2,17=6,18=5,40=1/2;
 3/5=7,11=9,25=1,30=1,74=-5,75=-5/1,2,3,8;
 4//1;
 5/5=2,7=100,38=5/2;
 8/6=1,10=1,108=10000/1;
 9/41=10000,42=1,70=2/14;
 6/7=2,8=2,9=2,10=2/1;
 99/5=1,9=1/99;
 Leave Link    1 at Mon Mar 21 19:56:46 2022, MaxMem=  8589934592 cpu:               0.4 elap:               0.1
 (Enter /home/sabyasachi/g16/l101.exe)
 ---------------------
 xGDB7_00001_tier4.com
 ---------------------
 Symbolic Z-matrix:
 Charge =  0 Multiplicity = 1
 6                     0.        0.        0.7614 
 6                     0.        0.       -0.7614 
 1                     0.        1.01711   1.15725 
 1                     0.88084  -0.50856   1.15725 
 1                    -0.88084  -0.50856   1.15725 
 1                     0.88084   0.50856  -1.15725 
 1                    -0.88084   0.50856  -1.15725 
 1                     0.       -1.01711  -1.15725 
 
 ITRead=  0  0  0  0  0  0  0  0
 MicOpt= -1 -1 -1 -1 -1 -1 -1 -1
 NAtoms=      8 NQM=        8 NQMF=       0 NMMI=      0 NMMIF=      0
                NMic=       0 NMicF=      0.
                    Isotopes and Nuclear Properties:
 (Nuclear quadrupole moments (NQMom) in fm**2, nuclear magnetic moments (NMagM)
  in nuclear magnetons)

  Atom         1           2           3           4           5           6           7           8
 IAtWgt=          12          12           1           1           1           1           1           1
 AtmWgt=  12.0000000  12.0000000   1.0078250   1.0078250   1.0078250   1.0078250   1.0078250   1.0078250
 NucSpn=           0           0           1           1           1           1           1           1
 AtZEff=  -0.0000000  -0.0000000  -0.0000000  -0.0000000  -0.0000000  -0.0000000  -0.0000000  -0.0000000
 NQMom=    0.0000000   0.0000000   0.0000000   0.0000000   0.0000000   0.0000000   0.0000000   0.0000000
 NMagM=    0.0000000   0.0000000   2.7928460   2.7928460   2.7928460   2.7928460   2.7928460   2.7928460
 AtZNuc=   6.0000000   6.0000000   1.0000000   1.0000000   1.0000000   1.0000000   1.0000000   1.0000000
 Leave Link  101 at Mon Mar 21 19:56:46 2022, MaxMem=  8589934592 cpu:               0.7 elap:               0.1
 (Enter /home/sabyasachi/g16/l202.exe)
                          Input orientation:                          
 ---------------------------------------------------------------------
 Center     Atomic      Atomic             Coordinates (Angstroms)
 Number     Number       Type             X           Y           Z
 ---------------------------------------------------------------------
      1          6           0        0.000000    0.000000    0.761397
      2          6           0        0.000000    0.000000   -0.761397
      3          1           0        0.000000    1.017110    1.157248
      4          1           0        0.880843   -0.508555    1.157248
      5          1           0       -0.880843   -0.508555    1.157248
      6          1           0        0.880843    0.508555   -1.157248
      7          1           0       -0.880843    0.508555   -1.157248
      8          1           0        0.000000   -1.017110   -1.157248
 ---------------------------------------------------------------------
                    Distance matrix (angstroms):
                    1          2          3          4          5
     1  C    0.000000
     2  C    1.522794   0.000000
     3  H    1.091426   2.171569   0.000000
     4  H    1.091426   2.171569   1.761686   0.000000
     5  H    1.091426   2.171569   1.761686   1.761686   0.000000
     6  H    2.171569   1.091426   2.528123   2.528123   3.081386
     7  H    2.171569   1.091426   2.528123   3.081386   2.528123
     8  H    2.171569   1.091426   3.081386   2.528123   2.528123
                    6          7          8
     6  H    0.000000
     7  H    1.761686   0.000000
     8  H    1.761686   1.761686   0.000000
 Stoichiometry    C2H6
 Framework group  D3D[C3(C.C),3SGD(H2)]
 Deg. of freedom     3
 Full point group                 D3D     NOp  12
 Largest Abelian subgroup         C2H     NOp   4
 Largest concise Abelian subgroup C2H     NOp   4
                         Standard orientation:                         
 ---------------------------------------------------------------------
 Center     Atomic      Atomic             Coordinates (Angstroms)
 Number     Number       Type             X           Y           Z
 ---------------------------------------------------------------------
      1          6           0        0.000000    0.000000    0.761397
      2          6           0       -0.000000   -0.000000   -0.761397
      3          1           0        0.000000    1.017110    1.157248
      4          1           0        0.880843   -0.508555    1.157248
      5          1           0       -0.880843   -0.508555    1.157248
      6          1           0        0.880843    0.508555   -1.157248
      7          1           0       -0.880843    0.508555   -1.157248
      8          1           0       -0.000000   -1.017110   -1.157248
 ---------------------------------------------------------------------
 Rotational constants (GHZ):          80.7876467          20.1030278          20.1030278
 Leave Link  202 at Mon Mar 21 19:56:46 2022, MaxMem=  8589934592 cpu:               0.1 elap:               0.0
 (Enter /home/sabyasachi/g16/l301.exe)
 General basis read from cards:  (5D, 7F)
 Centers:       3      4      5      6      7      8
 S 3 1.00
     Exponent=  1.3010701000D+01 Coefficients=  1.9682158000D-02
     Exponent=  1.9622572000D+00 Coefficients=  1.3796524000D-01
     Exponent=  4.4453796000D-01 Coefficients=  4.7831935000D-01
 S 1 1.00
     Exponent=  1.2194962000D-01 Coefficients=  1.0000000000D+00
 P 1 1.00
     Exponent=  8.0000000000D-01 Coefficients=  1.0000000000D+00
 P 1 1.00
     Exponent=  1.1704099050D-01 Coefficients=  1.0000000000D+00
 ****
 Centers:       1      2
 S 5 1.00
     Exponent=  1.2384016938D+03 Coefficients=  5.4568832082D-03
     Exponent=  1.8629004992D+02 Coefficients=  4.0638409211D-02
     Exponent=  4.2251176346D+01 Coefficients=  1.8025593888D-01
     Exponent=  1.1676557932D+01 Coefficients=  4.6315121755D-01
     Exponent=  3.5930506482D+00 Coefficients=  4.4087173314D-01
 S 1 1.00
     Exponent=  4.0245147363D-01 Coefficients=  1.0000000000D+00
 S 1 1.00
     Exponent=  1.3090182668D-01 Coefficients=  1.0000000000D+00
 S 1 1.00
     Exponent=  6.7053540256D-02 Coefficients=  1.0000000000D+00
 P 3 1.00
     Exponent=  9.4680970621D+00 Coefficients=  3.8387871728D-02
     Exponent=  2.0103545142D+00 Coefficients=  2.1117025112D-01
     Exponent=  5.4771004707D-01 Coefficients=  5.1328172114D-01
 P 1 1.00
     Exponent=  1.5268613795D-01 Coefficients=  1.0000000000D+00
 D 1 1.00
     Exponent=  8.0000000000D-01 Coefficients=  1.0000000000D+00
 D 1 1.00
     Exponent=  1.1713185140D-01 Coefficients=  1.0000000000D+00
 ****
 Ernie: Thresh=  0.10000D-02 Tol=  0.10000D-05 Strict=F.
 There are    30 symmetry adapted cartesian basis functions of AG  symmetry.
 There are    16 symmetry adapted cartesian basis functions of BG  symmetry.
 There are    16 symmetry adapted cartesian basis functions of AU  symmetry.
 There are    30 symmetry adapted cartesian basis functions of BU  symmetry.
 There are    28 symmetry adapted basis functions of AG  symmetry.
 There are    16 symmetry adapted basis functions of BG  symmetry.
 There are    16 symmetry adapted basis functions of AU  symmetry.
 There are    28 symmetry adapted basis functions of BU  symmetry.
    88 basis functions,   124 primitive gaussians,    92 cartesian basis functions
     9 alpha electrons        9 beta electrons
       nuclear repulsion energy        42.3107446799 Hartrees.
 IExCor=  402 DFT=T Ex+Corr=B3LYP ExCW=0 ScaHFX=  0.200000
 ScaDFX=  0.800000  0.720000  1.000000  0.810000 ScalE2=  1.000000  1.000000
 IRadAn=      5 IRanWt=     -1 IRanGd=            0 ICorTp=0 IEmpDi=  4
 NAtoms=    8 NActive=    8 NUniq=    2 SFac= 4.00D+00 NAtFMM=   60 NAOKFM=F Big=F
 Integral buffers will be    131072 words long.
 Regular integral format.
 Two-electron integral symmetry is turned on.
 Leave Link  301 at Mon Mar 21 19:56:46 2022, MaxMem=  8589934592 cpu:               0.5 elap:               0.1
 (Enter /home/sabyasachi/g16/l302.exe)
 NPDir=0 NMtPBC=     1 NCelOv=     1 NCel=       1 NClECP=     1 NCelD=      1
         NCelK=      1 NCelE2=     1 NClLst=     1 CellRange=     0.0.
 One-electron integrals computed using PRISM.
 One-electron integral symmetry used in STVInt
 NBasis=    88 RedAO= T EigKep=  3.75D-04  NBF=    28    16    16    28
 NBsUse=    88 1.00D-06 EigRej= -1.00D+00 NBFU=    28    16    16    28
 Precomputing XC quadrature grid using
 IXCGrd= 4 IRadAn=           5 IRanWt=          -1 IRanGd=           0 AccXCQ= 0.00D+00.
 Generated NRdTot=       0 NPtTot=           0 NUsed=           0 NTot=          32
 NSgBfM=    92    92    92    92    92 MxSgAt=     8 MxSgA2=     8.
 Leave Link  302 at Mon Mar 21 19:56:46 2022, MaxMem=  8589934592 cpu:               1.0 elap:               0.1
 (Enter /home/sabyasachi/g16/l303.exe)
 DipDrv:  MaxL=1.
 Leave Link  303 at Mon Mar 21 19:56:46 2022, MaxMem=  8589934592 cpu:               0.2 elap:               0.0
 (Enter /home/sabyasachi/g16/l308.exe)
 Leave Link  308 at Mon Mar 21 19:56:46 2022, MaxMem=  8589934592 cpu:               0.2 elap:               0.0
 (Enter /home/sabyasachi/g16/l401.exe)
 ExpMin= 6.71D-02 ExpMax= 1.24D+03 ExpMxC= 1.86D+02 IAcc=3 IRadAn=         5 AccDes= 0.00D+00
 Harris functional with IExCor=  402 and IRadAn=       5 diagonalized for initial guess.
 HarFok:  IExCor=  402 AccDes= 0.00D+00 IRadAn=         5 IDoV= 1 UseB2=F ITyADJ=14
 ICtDFT=  3500011 ScaDFX=  1.000000  1.000000  1.000000  1.000000
 FoFCou: FMM=F IPFlag=           0 FMFlag=      100000 FMFlg1=           0
         NFxFlg=           0 DoJE=T BraDBF=F KetDBF=T FulRan=T
         wScrn=  0.000000 ICntrl=       500 IOpCl=  0 I1Cent=   200000004 NGrid=           0
         NMat0=    1 NMatS0=      1 NMatT0=    0 NMatD0=    1 NMtDS0=    0 NMtDT0=    0
 Petite list used in FoFCou.
 Harris En= -79.8223639883100    
 JPrj=0 DoOrth=F DoCkMO=F.
 Initial guess orbital symmetries:
       Occupied  (A2U) (A1G) (A1G) (A2U) (EU) (EU) (A1G) (EG) (EG)
       Virtual   (A1G) (A2U) (EU) (EU) (EG) (EG) (A2U) (A1G) (EG)
                 (EG) (EU) (EU) (EU) (EU) (A2U) (A1G) (EG) (EG)
                 (A1U) (EU) (EU) (A2U) (A2U) (A1G) (EG) (EG) (A2G)
                 (EG) (EG) (A1G) (EU) (EU) (EG) (EG) (EU) (EU)
                 (A2U) (A1G) (A2U) (A1G) (EG) (EG) (A2U) (EU) (EU)
                 (EU) (EU) (A1G) (EG) (EG) (A2U) (EU) (EU) (EG)
                 (EG) (A1U) (A2G) (A1G) (EU) (EU) (EU) (EU) (EG)
                 (EG) (A2U) (EG) (EG) (A1G) (A2U) (EU) (EU) (EG)
                 (EG) (A1G) (A2U) (EG) (EG) (EU) (EU)
 The electronic state of the initial guess is 1-A1G.
 Leave Link  401 at Mon Mar 21 19:56:46 2022, MaxMem=  8589934592 cpu:               1.4 elap:               0.2
 (Enter /home/sabyasachi/g16/l502.exe)
 Keep R1 ints in memory in symmetry-blocked form, NReq=15027142.
 FoFCou: FMM=F IPFlag=           0 FMFlag=           0 FMFlg1=           0
         NFxFlg=           0 DoJE=F BraDBF=F KetDBF=F FulRan=T
         wScrn=  0.000000 ICntrl=       600 IOpCl=  0 I1Cent=           0 NGrid=           0
         NMat0=    1 NMatS0=   3916 NMatT0=    0 NMatD0=    1 NMtDS0=    0 NMtDT0=    0
 Petite list used in FoFCou.
 Closed shell SCF:
 Using DIIS extrapolation, IDIIS=  1040.
 NGot=  8589934592 LenX=  8587972308 LenY=  8587963403
 Requested convergence on RMS density matrix=1.00D-08 within 100 cycles.
 Requested convergence on MAX density matrix=1.00D-06.
 Requested convergence on             energy=1.00D-06.
 No special actions if energy rises.
 Integral accuracy reduced to 1.0D-05 until final iterations.

 Cycle   1  Pass 0  IDiag  1:
 E= -79.6554204471698    
 DIIS: error= 3.69D-02 at cycle   1 NSaved=   1.
 NSaved= 1 IEnMin= 1 EnMin= -79.6554204471698     IErMin= 1 ErrMin= 3.69D-02
 ErrMax= 3.69D-02  0.00D+00 EMaxC= 1.00D-01 BMatC= 1.06D-01 BMatP= 1.06D-01
 IDIUse=3 WtCom= 6.31D-01 WtEn= 3.69D-01
 Coeff-Com:  0.100D+01
 Coeff-En:   0.100D+01
 Coeff:      0.100D+01
 Gap=     0.289 Goal=   None    Shift=    0.000
 GapD=    0.289 DampG=1.000 DampE=0.500 DampFc=0.5000 IDamp=-1.
 Damping current iteration by 5.00D-01
 RMSDP=9.14D-03 MaxDP=1.75D-01              OVMax= 1.90D-01

 Cycle   2  Pass 0  IDiag  1:
 E= -79.7060431916686     Delta-E=       -0.050622744499 Rises=F Damp=T
 DIIS: error= 1.02D-02 at cycle   2 NSaved=   2.
 NSaved= 2 IEnMin= 2 EnMin= -79.7060431916686     IErMin= 2 ErrMin= 1.02D-02
 ErrMax= 1.02D-02  0.00D+00 EMaxC= 1.00D-01 BMatC= 4.04D-03 BMatP= 1.06D-01
 IDIUse=3 WtCom= 8.98D-01 WtEn= 1.02D-01
 Coeff-Com:  0.105D+00 0.895D+00
 Coeff-En:   0.182D+00 0.818D+00
 Coeff:      0.112D+00 0.888D+00
 Gap=     0.361 Goal=   None    Shift=    0.000
 RMSDP=2.37D-03 MaxDP=4.98D-02 DE=-5.06D-02 OVMax= 1.14D-01

 Cycle   3  Pass 0  IDiag  1:
 E= -79.7766777303515     Delta-E=       -0.070634538683 Rises=F Damp=F
 DIIS: error= 2.37D-03 at cycle   3 NSaved=   3.
 NSaved= 3 IEnMin= 3 EnMin= -79.7766777303515     IErMin= 3 ErrMin= 2.37D-03
 ErrMax= 2.37D-03  0.00D+00 EMaxC= 1.00D-01 BMatC= 2.66D-04 BMatP= 4.04D-03
 IDIUse=3 WtCom= 9.76D-01 WtEn= 2.37D-02
 Coeff-Com:  0.743D-02 0.174D+00 0.819D+00
 Coeff-En:   0.000D+00 0.000D+00 0.100D+01
 Coeff:      0.725D-02 0.170D+00 0.823D+00
 Gap=     0.368 Goal=   None    Shift=    0.000
 RMSDP=4.66D-04 MaxDP=5.86D-03 DE=-7.06D-02 OVMax= 5.57D-03

 Cycle   4  Pass 0  IDiag  1:
 E= -79.7769309589895     Delta-E=       -0.000253228638 Rises=F Damp=F
 DIIS: error= 4.67D-04 at cycle   4 NSaved=   4.
 NSaved= 4 IEnMin= 4 EnMin= -79.7769309589895     IErMin= 4 ErrMin= 4.67D-04
 ErrMax= 4.67D-04  0.00D+00 EMaxC= 1.00D-01 BMatC= 1.02D-05 BMatP= 2.66D-04
 IDIUse=3 WtCom= 9.95D-01 WtEn= 4.67D-03
 Coeff-Com: -0.213D-02-0.434D-02 0.159D+00 0.848D+00
 Coeff-En:   0.000D+00 0.000D+00 0.000D+00 0.100D+01
 Coeff:     -0.212D-02-0.432D-02 0.158D+00 0.849D+00
 Gap=     0.368 Goal=   None    Shift=    0.000
 RMSDP=7.16D-05 MaxDP=6.43D-04 DE=-2.53D-04 OVMax= 1.18D-03

 Cycle   5  Pass 0  IDiag  1:
 E= -79.7769413184719     Delta-E=       -0.000010359482 Rises=F Damp=F
 DIIS: error= 2.10D-05 at cycle   5 NSaved=   5.
 NSaved= 5 IEnMin= 5 EnMin= -79.7769413184719     IErMin= 5 ErrMin= 2.10D-05
 ErrMax= 2.10D-05  0.00D+00 EMaxC= 1.00D-01 BMatC= 1.94D-08 BMatP= 1.02D-05
 IDIUse=1 WtCom= 1.00D+00 WtEn= 0.00D+00
 Coeff-Com:  0.383D-03-0.711D-03-0.447D-02-0.103D-01 0.102D+01
 Coeff:      0.383D-03-0.711D-03-0.447D-02-0.103D-01 0.102D+01
 Gap=     0.368 Goal=   None    Shift=    0.000
 RMSDP=1.85D-06 MaxDP=3.28D-05 DE=-1.04D-05 OVMax= 6.75D-05

 Initial convergence to 1.0D-05 achieved.  Increase integral accuracy.
 Cycle   6  Pass 1  IDiag  1:
 E= -79.7769420475757     Delta-E=       -0.000000729104 Rises=F Damp=F
 DIIS: error= 1.46D-06 at cycle   1 NSaved=   1.
 NSaved= 1 IEnMin= 1 EnMin= -79.7769420475757     IErMin= 1 ErrMin= 1.46D-06
 ErrMax= 1.46D-06  0.00D+00 EMaxC= 1.00D-01 BMatC= 1.23D-10 BMatP= 1.23D-10
 IDIUse=1 WtCom= 1.00D+00 WtEn= 0.00D+00
 Coeff-Com:  0.100D+01
 Coeff:      0.100D+01
 Gap=     0.368 Goal=   None    Shift=    0.000
 RMSDP=1.85D-06 MaxDP=3.28D-05 DE=-7.29D-07 OVMax= 5.66D-06

 Cycle   7  Pass 1  IDiag  1:
 E= -79.7769420477953     Delta-E=       -0.000000000220 Rises=F Damp=F
 DIIS: error= 3.51D-07 at cycle   2 NSaved=   2.
 NSaved= 2 IEnMin= 2 EnMin= -79.7769420477953     IErMin= 2 ErrMin= 3.51D-07
 ErrMax= 3.51D-07  0.00D+00 EMaxC= 1.00D-01 BMatC= 6.65D-12 BMatP= 1.23D-10
 IDIUse=1 WtCom= 1.00D+00 WtEn= 0.00D+00
 Coeff-Com:  0.546D-01 0.945D+00
 Coeff:      0.546D-01 0.945D+00
 Gap=     0.368 Goal=   None    Shift=    0.000
 RMSDP=1.39D-07 MaxDP=1.42D-06 DE=-2.20D-10 OVMax= 1.23D-06

 Cycle   8  Pass 1  IDiag  1:
 E= -79.7769420477950     Delta-E=        0.000000000000 Rises=F Damp=F
 DIIS: error= 3.70D-07 at cycle   3 NSaved=   3.
 NSaved= 3 IEnMin= 2 EnMin= -79.7769420477953     IErMin= 2 ErrMin= 3.51D-07
 ErrMax= 3.70D-07  0.00D+00 EMaxC= 1.00D-01 BMatC= 7.01D-12 BMatP= 6.65D-12
 IDIUse=1 WtCom= 1.00D+00 WtEn= 0.00D+00
 Coeff-Com: -0.292D-01 0.513D+00 0.517D+00
 Coeff:     -0.292D-01 0.513D+00 0.517D+00
 Gap=     0.368 Goal=   None    Shift=    0.000
 RMSDP=3.19D-08 MaxDP=6.27D-07 DE= 2.84D-13 OVMax= 6.97D-07

 Cycle   9  Pass 1  IDiag  1:
 E= -79.7769420478040     Delta-E=       -0.000000000009 Rises=F Damp=F
 DIIS: error= 1.76D-08 at cycle   4 NSaved=   4.
 NSaved= 4 IEnMin= 4 EnMin= -79.7769420478040     IErMin= 4 ErrMin= 1.76D-08
 ErrMax= 1.76D-08  0.00D+00 EMaxC= 1.00D-01 BMatC= 1.90D-14 BMatP= 6.65D-12
 IDIUse=1 WtCom= 1.00D+00 WtEn= 0.00D+00
 Coeff-Com: -0.186D-02 0.148D-01 0.618D-01 0.925D+00
 Coeff:     -0.186D-02 0.148D-01 0.618D-01 0.925D+00
 Gap=     0.368 Goal=   None    Shift=    0.000
 RMSDP=2.03D-09 MaxDP=3.30D-08 DE=-9.01D-12 OVMax= 4.08D-08

 SCF Done:  E(RB3LYP) =  -79.7769420478     A.U. after    9 cycles
            NFock=  9  Conv=0.20D-08     -V/T= 2.0137
 KE= 7.869695443291D+01 PE=-2.679574323896D+02 EE= 6.717279122891D+01
 Leave Link  502 at Mon Mar 21 19:56:47 2022, MaxMem=  8589934592 cpu:               3.6 elap:               0.5
 (Enter /home/sabyasachi/g16/l801.exe)
 DoSCS=F DFT=T ScalE2(SS,OS)=  1.000000  1.000000
 ExpMin= 6.71D-02 ExpMax= 1.24D+03 ExpMxC= 1.86D+02 IAcc=3 IRadAn=         5 AccDes= 0.00D+00
 HarFok:  IExCor=  205 AccDes= 0.00D+00 IRadAn=         5 IDoV=-2 UseB2=F ITyADJ=14
 ICtDFT= 12500011 ScaDFX=  1.000000  1.000000  1.000000  1.000000
 Largest valence mixing into a core orbital is  7.24D-05
 Largest core mixing into a valence orbital is  1.58D-05
 Range of M.O.s used for correlation:     3    88
 NBasis=    88 NAE=     9 NBE=     9 NFC=     2 NFV=     0
 NROrb=     86 NOA=     7 NOB=     7 NVA=    79 NVB=    79

 **** Warning!!: The largest alpha MO coefficient is  0.25215353D+02

 Leave Link  801 at Mon Mar 21 19:56:47 2022, MaxMem=  8589934592 cpu:               0.5 elap:               0.1
 (Enter /home/sabyasachi/g16/l914.exe)
 RHF ground state
 Keep R1, R2, and R3 ints in memory in symmetry-blocked form, NReq=404258930.
 FoFCou: FMM=F IPFlag=           0 FMFlag=           0 FMFlg1=           0
         NFxFlg=           0 DoJE=F BraDBF=F KetDBF=F FulRan=T
         wScrn=  0.000000 ICntrl=       600 IOpCl=  0 I1Cent=           0 NGrid=           0
         NMat0=    1 NMatS0=   3916 NMatT0=    0 NMatD0=    1 NMtDS0=    0 NMtDT0=    0
 Petite list used in FoFCou.
 MDV=  8589934592 DFT=T DoStab=F Mixed=T DoRPA=T DoScal=F NonHer=T
 Making orbital integer symmetry assigments:
 Orbital symmetries:
       Occupied  (A1G) (A2U) (A1G) (A2U) (EU) (EU) (A1G) (EG) (EG)
       Virtual   (A1G) (A2U) (EU) (EU) (EG) (EG) (A1G) (EG) (EG)
                 (EU) (EU) (A2U) (EU) (EU) (A2U) (A1G) (A1U) (A2U)
                 (EG) (EG) (EU) (EU) (A1G) (EG) (EG) (A2U) (A2G)
                 (A1G) (EG) (EG) (EU) (EU) (EG) (EG) (A2U) (EU)
                 (EU) (A1G) (A2U) (A1G) (EG) (EG) (EU) (EU) (A2U)
                 (EU) (EU) (A1G) (EG) (EG) (A2U) (EU) (EU) (EG)
                 (EG) (A1U) (A2G) (EU) (EU) (A1G) (EU) (EU) (EG)
                 (EG) (A2U) (EG) (EG) (A1G) (A2U) (EU) (EU) (EG)
                 (EG) (A1G) (A2U) (EG) (EG) (EU) (EU)
   553 initial guesses have been made.
 Convergence on wavefunction:    0.001000000000000
 Davidson Disk Diagonalization:  ConvIn= 1.00D-03 SkipCon=T Conv= 1.00D-03.
 Max sub-space:  3318 roots to seek:  1106 dimension of matrix:         1106
 *** WARNING: Number of orthogonal guesses is          553
 Iteration     1 Dimension   553 NMult     0 NNew    553
 CISAX will form   553 AO SS matrices at one time.
 NMat=   553 NSing=   553 JSym2X=-1.
 DSYEVD-2 returned Info=        1107 IAlg= 4 N=   553 NDim=   553 NE2=    15522809 trying  DSYEV.
 New state      4 was old state      5
 New state      5 was old state      4
 New state      7 was old state      9
 New state      8 was old state      7
 New state      9 was old state      8
 New state     11 was old state     13
 New state     12 was old state     11
 New state     13 was old state     12
 New state     14 was old state     15
 New state     15 was old state     16
 New state     16 was old state     14
 New state     17 was old state     18
 New state     18 was old state     17
 New state     19 was old state     20
 New state     20 was old state     19
 New state     21 was old state     24
 New state     22 was old state     23
 New state     23 was old state     22
 New state     24 was old state     21
 New state     26 was old state     28
 New state     27 was old state     26
 New state     28 was old state     29
 New state     29 was old state     32
 New state     30 was old state     38
 New state     31 was old state     40
 New state     32 was old state     41
 New state     33 was old state     34
 New state     34 was old state     35
 New state     35 was old state     39
 New state     38 was old state     31
 New state     39 was old state     33
 New state     40 was old state     30
 New state     41 was old state     42
 New state     42 was old state     44
 New state     43 was old state     47
 New state     44 was old state     46
 New state     45 was old state     43
 New state     46 was old state     45
 New state     47 was old state     48
 New state     48 was old state     27
 New state     49 was old state     50
 New state     50 was old state     49
 New state     52 was old state     53
 New state     53 was old state     54
 New state     54 was old state     52
 New state     55 was old state     57
 New state     56 was old state     58
 New state     57 was old state     56
 New state     58 was old state     55
 New state     62 was old state     65
 New state     63 was old state     66
 New state     64 was old state     62
 New state     65 was old state     63
 New state     66 was old state     64
 New state     72 was old state     74
 New state     73 was old state     75
 New state     74 was old state     72
 New state     75 was old state     73
 New state     76 was old state     79
 New state     77 was old state     78
 New state     78 was old state     76
 New state     79 was old state     80
 New state     80 was old state     77
 New state     82 was old state     84
 New state     84 was old state     82
 New state     85 was old state     92
 New state     86 was old state     89
 New state     87 was old state     88
 New state     88 was old state     95
 New state     89 was old state     94
 New state     90 was old state     91
 New state     91 was old state     93
 New state     92 was old state     86
 New state     93 was old state    102
 New state     94 was old state    101
 New state     95 was old state     90
 New state     98 was old state     85
 New state     99 was old state     87
 New state    100 was old state    104
 New state    101 was old state    103
 New state    102 was old state     99
 New state    103 was old state     98
 New state    104 was old state    100
 New state    106 was old state    107
 New state    107 was old state    109
 New state    108 was old state    106
 New state    109 was old state    113
 New state    110 was old state    112
 New state    111 was old state    108
 New state    112 was old state    110
 New state    113 was old state    111
 New state    114 was old state    115
 New state    115 was old state    114
 New state    116 was old state    118
 New state    117 was old state    116
 New state    118 was old state    117
 New state    119 was old state    120
 New state    120 was old state    119
 New state    121 was old state    122
 New state    122 was old state    123
 New state    123 was old state    124
 New state    124 was old state    121
 New state    126 was old state    130
 New state    127 was old state    126
 New state    128 was old state    127
 New state    129 was old state    137
 New state    130 was old state    133
 New state    131 was old state    132
 New state    132 was old state    139
 New state    133 was old state    134
 New state    134 was old state    135
 New state    135 was old state    141
 New state    136 was old state    140
 New state    137 was old state    138
 New state    138 was old state    129
 New state    139 was old state    128
 New state    140 was old state    136
 New state    141 was old state    143
 New state    143 was old state    131
 New state    145 was old state    147
 New state    147 was old state    154
 New state    148 was old state    156
 New state    149 was old state    157
 New state    150 was old state    151
 New state    151 was old state    158
 New state    152 was old state    149
 New state    153 was old state    148
 New state    154 was old state    162
 New state    155 was old state    150
 New state    156 was old state    159
 New state    157 was old state    161
 New state    158 was old state    153
 New state    159 was old state    155
 New state    161 was old state    170
 New state    162 was old state    169
 New state    163 was old state    164
 New state    164 was old state    163
 New state    165 was old state    168
 New state    166 was old state    167
 New state    167 was old state    166
 New state    168 was old state    165
 New state    169 was old state    172
 New state    170 was old state    171
 New state    171 was old state    152
 New state    172 was old state    176
 New state    173 was old state    175
 New state    174 was old state    184
 New state    175 was old state    173
 New state    176 was old state    174
 New state    179 was old state    180
 New state    180 was old state    181
 New state    181 was old state    182
 New state    182 was old state    179
 New state    184 was old state    185
 New state    185 was old state    189
 New state    186 was old state    188
 New state    187 was old state    194
 New state    188 was old state    192
 New state    189 was old state    193
 New state    190 was old state    187
 New state    191 was old state    186
 New state    192 was old state    196
 New state    193 was old state    198
 New state    194 was old state    200
 New state    195 was old state    202
 New state    196 was old state    204
 New state    197 was old state    203
 New state    198 was old state    199
 New state    199 was old state    197
 New state    200 was old state    205
 New state    202 was old state    207
 New state    203 was old state    206
 New state    204 was old state    211
 New state    205 was old state    208
 New state    206 was old state    191
 New state    207 was old state    190
 New state    208 was old state    227
 New state    211 was old state    217
 New state    212 was old state    213
 New state    213 was old state    212
 New state    216 was old state    218
 New state    217 was old state    220
 New state    218 was old state    216
 New state    220 was old state    225
 New state    221 was old state    222
 New state    222 was old state    221
 New state    225 was old state    228
 New state    227 was old state    237
 New state    228 was old state    271
 New state    231 was old state    232
 New state    232 was old state    231
 New state    233 was old state    236
 New state    234 was old state    235
 New state    235 was old state    234
 New state    236 was old state    233
 New state    237 was old state    239
 New state    239 was old state    246
 New state    240 was old state    241
 New state    241 was old state    240
 New state    243 was old state    250
 New state    244 was old state    249
 New state    245 was old state    243
 New state    246 was old state    244
 New state    247 was old state    245
 New state    248 was old state    255
 New state    249 was old state    248
 New state    250 was old state    247
 New state    252 was old state    253
 New state    253 was old state    254
 New state    254 was old state    252
 New state    255 was old state    284
 New state    259 was old state    260
 New state    260 was old state    259
 New state    261 was old state    266
 New state    262 was old state    265
 New state    263 was old state    270
 New state    264 was old state    261
 New state    265 was old state    262
 New state    266 was old state    264
 New state    267 was old state    263
 New state    270 was old state    267
 New state    271 was old state    274
 New state    272 was old state    273
 New state    273 was old state    272
 New state    274 was old state    275
 New state    275 was old state    276
 New state    276 was old state    277
 New state    277 was old state    278
 New state    278 was old state    279
 New state    279 was old state    280
 New state    280 was old state    305
 New state    281 was old state    282
 New state    282 was old state    283
 New state    283 was old state    281
 New state    284 was old state    286
 New state    286 was old state    293
 New state    287 was old state    289
 New state    288 was old state    292
 New state    289 was old state    291
 New state    290 was old state    288
 New state    291 was old state    287
 New state    292 was old state    290
 New state    293 was old state    296
 New state    294 was old state    295
 New state    295 was old state    297
 New state    296 was old state    294
 New state    297 was old state    302
 New state    298 was old state    301
 New state    299 was old state    300
 New state    300 was old state    306
 New state    301 was old state    304
 New state    302 was old state    303
 New state    303 was old state    299
 New state    304 was old state    298
 New state    305 was old state    308
 New state    306 was old state    307
 New state    307 was old state    309
 New state    308 was old state    310
 New state    309 was old state    315
 New state    310 was old state    311
 New state    311 was old state    330
 New state    312 was old state    313
 New state    313 was old state    314
 New state    314 was old state    312
 New state    315 was old state    317
 New state    317 was old state    327
 New state    320 was old state    322
 New state    321 was old state    324
 New state    322 was old state    321
 New state    323 was old state    320
 New state    324 was old state    325
 New state    325 was old state    326
 New state    326 was old state    323
 New state    327 was old state    328
 New state    328 was old state    329
 New state    329 was old state    335
 New state    330 was old state    332
 New state    332 was old state    334
 New state    334 was old state    338
 New state    335 was old state    336
 New state    336 was old state    337
 New state    337 was old state    343
 New state    338 was old state    353
 New state    339 was old state    340
 New state    340 was old state    339
 New state    341 was old state    342
 New state    342 was old state    341
 New state    343 was old state    344
 New state    344 was old state    345
 New state    345 was old state    348
 No map to state    348
 New state    351 was old state    352
 New state    352 was old state    351
 No map to state    353
 New state    355 was old state    356
 New state    356 was old state    365
 New state    357 was old state    366
 New state    358 was old state    355
 New state    362 was old state    363
 New state    363 was old state    364
 New state    364 was old state    357
 New state    365 was old state    358
 New state    366 was old state    362
 New state    369 was old state    371
 New state    370 was old state    369
 New state    371 was old state    370
 New state    372 was old state    375
 New state    373 was old state    376
 New state    374 was old state    377
 New state    375 was old state    373
 New state    376 was old state    374
 New state    377 was old state    372
 New state    378 was old state    380
 New state    379 was old state    382
 New state    380 was old state    383
 New state    382 was old state    379
 New state    383 was old state    378
 New state    386 was old state    387
 New state    387 was old state    386
 New state    388 was old state    390
 New state    389 was old state    391
 New state    390 was old state    389
 New state    391 was old state    388
 New state    392 was old state    394
 New state    393 was old state    395
 New state    394 was old state    393
 New state    395 was old state    392
 New state    396 was old state    397
 New state    397 was old state    396
 New state    398 was old state    399
 New state    399 was old state    398
 New state    401 was old state    402
 New state    402 was old state    404
 New state    404 was old state    401
 New state    405 was old state    408
 New state    406 was old state    407
 New state    407 was old state    405
 New state    408 was old state    406
 New state    409 was old state    411
 New state    410 was old state    412
 New state    411 was old state    410
 New state    412 was old state    409
 New state    417 was old state    419
 New state    418 was old state    417
 New state    419 was old state    418
 New state    420 was old state    422
 New state    422 was old state    420
 New state    425 was old state    426
 New state    426 was old state    425
 New state    427 was old state    428
 New state    428 was old state    427
 New state    431 was old state    433
 New state    432 was old state    431
 New state    433 was old state    432
 New state    441 was old state    444
 New state    443 was old state    441
 New state    444 was old state    446
 New state    446 was old state    443
 New state    454 was old state    455
 New state    455 was old state    454
 New state    456 was old state    459
 New state    457 was old state    456
 New state    458 was old state    457
 New state    459 was old state    460
 New state    460 was old state    458
 New state    465 was old state    466
 New state    466 was old state    465
 New state    467 was old state    468
 New state    468 was old state    467
 New state    472 was old state    475
 New state    473 was old state    477
 New state    474 was old state    472
 New state    475 was old state    473
 New state    477 was old state    474
 New state    483 was old state    485
 New state    484 was old state    488
 New state    485 was old state    486
 New state    486 was old state    487
 New state    487 was old state    483
 New state    488 was old state    484
 New state    489 was old state    490
 New state    490 was old state    489
 New state    491 was old state    493
 New state    492 was old state    494
 New state    493 was old state    491
 New state    494 was old state    492
 New state    498 was old state    499
 New state    499 was old state    501
 New state    501 was old state    498
 New state    505 was old state    506
 New state    506 was old state    507
 New state    507 was old state    505
 New state    510 was old state    511
 New state    511 was old state    510
 New state    513 was old state    514
 New state    514 was old state    513
 New state    521 was old state    522
 New state    522 was old state    521
 New state    523 was old state    525
 New state    524 was old state    523
 New state    525 was old state    526
 New state    526 was old state    524
 New state    527 was old state    528
 New state    528 was old state    527
 New state    529 was old state    530
 New state    530 was old state    529
 New state    533 was old state    538
 New state    534 was old state    539
 New state    535 was old state    537
 New state    536 was old state    535
 New state    537 was old state    533
 New state    538 was old state    536
 New state    539 was old state    534
 New state    540 was old state    544
 New state    541 was old state    542
 New state    542 was old state    543
 New state    543 was old state    541
 New state    544 was old state    540
 New state    545 was old state    546
 New state    546 was old state    545
 New state    550 was old state    551
 New state    551 was old state    550
 Excitation Energies [eV] at current iteration:
 Root      1 :     8.930238299138976
 Root      2 :     8.930247469940053
 Root      3 :     9.742456110863682
 Root      4 :     9.847126448423028
 Root      5 :     9.847127142102144
 Root      6 :    10.579455589047260
 Root      7 :    10.838254805093840
 Root      8 :    10.850953149045080
 Root      9 :    10.850955404092070
 Root     10 :    11.175326179716940
 Root     11 :    11.279030033494400
 Root     12 :    11.482900901063510
 Root     13 :    11.482904784545890
 Root     14 :    11.493470691581730
 Root     15 :    11.493474856742380
 Root     16 :    11.498082430293110
 Root     17 :    11.592847333307130
 Root     18 :    11.592848366940730
 Root     19 :    12.002434976951300
 Root     20 :    12.002436240809110
 Root     21 :    12.171513053061780
 Root     22 :    12.171513528378770
 Root     23 :    12.464917909186750
 Root     24 :    12.464919056391060
 Root     25 :    12.604588893244950
 Root     26 :    12.628907173784820
 Root     27 :    12.628907756872620
 Root     28 :    12.930865909589420
 Root     29 :    13.160877160045330
 Root     30 :    13.162838057699930
 Root     31 :    13.239110459939230
 Root     32 :    13.239111649887660
 Root     33 :    13.355413109120680
 Root     34 :    13.355413525305690
 Root     35 :    13.380125338163250
 Root     36 :    13.412099461719360
 Root     37 :    13.412100906115910
 Root     38 :    13.532345016414710
 Root     39 :    13.532347625641850
 Root     40 :    13.586514284940660
 Root     41 :    13.827989079952940
 Root     42 :    13.845567835931350
 Root     43 :    13.942436486977700
 Root     44 :    13.942439029700190
 Root     45 :    14.310387730018480
 Root     46 :    14.310388049925840
 Root     47 :    14.502627222728370
 Root     48 :    14.557435606794550
 Root     49 :    14.722091163534380
 Root     50 :    14.795206617124460
 Root     51 :    14.795208374312650
 Root     52 :    14.946941161000590
 Root     53 :    14.946941712071190
 Root     54 :    15.052725076977810
 Root     55 :    15.228764357395190
 Root     56 :    15.296737199962340
 Root     57 :    15.296738048481170
 Root     58 :    15.475462229673520
 Root     59 :    15.642888733836980
 Root     60 :    15.642889866440980
 Root     61 :    15.709686404383040
 Root     62 :    15.751327574334030
 Root     63 :    15.751329131207100
 Root     64 :    16.016236756727520
 Root     65 :    16.053094066446060
 Root     66 :    16.053097823853870
 Root     67 :    16.098280329764890
 Root     68 :    16.098284562237290
 Root     69 :    16.366526168670350
 Root     70 :    16.663374124534470
 Root     71 :    16.663393176871250
 Root     72 :    16.902038067624810
 Root     73 :    16.902044142935270
 Root     74 :    17.169315141389130
 Root     75 :    17.185232199326520
 Root     76 :    17.271890913519710
 Root     77 :    17.271893142566630
 Root     78 :    17.274672352743950
 Root     79 :    17.358674793764540
 Root     80 :    17.505786314475660
 Root     81 :    17.646547663470700
 Root     82 :    17.890240736088750
 Root     83 :    17.964675744838300
 Root     84 :    17.964678167032070
 Root     85 :    18.018183472199690
 Root     86 :    18.119195570857010
 Root     87 :    18.119200484175590
 Root     88 :    18.138712679043690
 Root     89 :    18.138715165301540
 Root     90 :    18.251557442236740
 Root     91 :    18.251562219985020
 Root     92 :    18.273030696496200
 Root     93 :    18.345988030975800
 Root     94 :    18.345989377045180
 Root     95 :    18.539371562261380
 Root     96 :    18.585816457211650
 Root     97 :    18.585817297642550
 Root     98 :    18.633576528464710
 Root     99 :    18.633580203436860
 Root    100 :    18.637979670277780
 Root    101 :    18.637981060903510
 Root    102 :    18.719304951493100
 Root    103 :    18.719305037348460
 Root    104 :    18.744758220349630
 Root    105 :    18.946064377214370
 Root    106 :    18.999518777399760
 Root    107 :    18.999523980800540
 Root    108 :    19.017515889986100
 Root    109 :    19.079690524656350
 Root    110 :    19.079693511393240
 Root    111 :    19.166024682718970
 Root    112 :    19.231073621954040
 Root    113 :    19.231077384328460
 Root    114 :    19.312584837253680
 Root    115 :    19.312585487455800
 Root    116 :    19.534933484852640
 Root    117 :    19.648314896321180
 Root    118 :    19.648315004066180
 Root    119 :    19.721308078153570
 Root    120 :    19.721308732331080
 Root    121 :    19.994285204647450
 Root    122 :    19.994285543472930
 Root    123 :    20.013654043711260
 Root    124 :    20.032711234259980
 Root    125 :    20.259066748728920
 Root    126 :    20.390176096398050
 Root    127 :    20.454172893008940
 Root    128 :    20.454173766028950
 Root    129 :    20.504307574980010
 Root    130 :    20.529545392152160
 Root    131 :    20.529546301872990
 Root    132 :    20.637882778464750
 Root    133 :    20.759896889594220
 Root    134 :    20.759896941118580
 Root    135 :    20.781346846722100
 Root    136 :    20.781352141301110
 Root    137 :    20.847006854949470
 Root    138 :    20.896313734274720
 Root    139 :    20.896315567404730
 Root    140 :    20.995895212755010
 Root    141 :    21.017185040957640
 Root    142 :    21.017185680699790
 Root    143 :    21.142037016862130
 Root    144 :    21.179635288996950
 Root    145 :    21.247317622384090
 Root    146 :    21.247319070914680
 Root    147 :    21.430371339821110
 Root    148 :    21.434011150051850
 Root    149 :    21.434013425969210
 Root    150 :    21.434251229319260
 Root    151 :    21.547765751206260
 Root    152 :    21.567658922403190
 Root    153 :    21.567662360232180
 Root    154 :    21.614207045496530
 Root    155 :    21.620685439443700
 Root    156 :    21.667210453064650
 Root    157 :    21.667216040276260
 Root    158 :    21.678077966664880
 Root    159 :    21.678080340846010
 Root    160 :    21.800825398202670
 Root    161 :    21.914285662753730
 Root    162 :    21.914285724402650
 Root    163 :    21.990279465001400
 Root    164 :    21.990280153882160
 Root    165 :    22.031117478798920
 Root    166 :    22.031118646692350
 Root    167 :    22.073260903620070
 Root    168 :    22.073260946993820
 Root    169 :    22.244867822920320
 Root    170 :    22.244867954261920
 Root    171 :    22.330821428874130
 Root    172 :    22.340380661109410
 Root    173 :    22.340381459576760
 Root    174 :    22.353247975725100
 Root    175 :    22.469982646751650
 Root    176 :    22.469983236548610
 Root    177 :    22.664710519038240
 Root    178 :    22.664713863948420
 Root    179 :    22.789600374606940
 Root    180 :    23.154976416915120
 Root    181 :    23.154977615143700
 Root    182 :    23.256008017948210
 Root    183 :    23.375800568490320
 Root    184 :    23.402383765209160
 Root    185 :    23.551853883101250
 Root    186 :    23.551854623913740
 Root    187 :    23.690893015650680
 Root    188 :    23.690893466583620
 Root    189 :    23.712165224184950
 Root    190 :    23.739355519133100
 Root    191 :    23.739356598609000
 Root    192 :    23.788987213014930
 Root    193 :    23.816834638268570
 Root    194 :    24.051566476897770
 Root    195 :    24.080154998590630
 Root    196 :    24.080156650640780
 Root    197 :    24.096710388131790
 Root    198 :    24.143290634372760
 Root    199 :    24.143293766429530
 Root    200 :    24.154188711245390
 Root    201 :    24.184588332936160
 Root    202 :    24.269199696054040
 Root    203 :    24.269202500983610
 Root    204 :    24.395485797180550
 Root    205 :    24.437906115783370
 Root    206 :    24.515242728939910
 Root    207 :    24.515244597664250
 Root    208 :    25.176671454649630
 Root    209 :    25.177140427777320
 Root    210 :    25.177141490843070
 Root    211 :    25.338973474982760
 Root    212 :    25.366404125003320
 Root    213 :    25.366404544077090
 Root    214 :    25.396267212488860
 Root    215 :    25.396267298445490
 Root    216 :    25.569615178358950
 Root    217 :    25.569617347337690
 Root    218 :    25.586697282501750
 Root    219 :    25.618083528413750
 Root    220 :    25.739890192277210
 Root    221 :    25.811883959368750
 Root    222 :    25.811884725872930
 Root    223 :    26.302591452052050
 Root    224 :    26.302591502607930
 Root    225 :    26.681605063309220
 Root    226 :    26.773516098603440
 Root    227 :    27.427760441800370
 Root    228 :    27.825237612979120
 Root    229 :    27.917445803418950
 Root    230 :    28.317094509176210
 Root    231 :    28.537882923524060
 Root    232 :    28.537883116729880
 Root    233 :    28.865750969581730
 Root    234 :    28.865751280103990
 Root    235 :    28.883017259083990
 Root    236 :    28.883017584472840
 Root    237 :    29.053792077183640
 Root    238 :    29.053792609637660
 Root    239 :    29.090405584717130
 Root    240 :    29.239086519886050
 Root    241 :    29.239086554576080
 Root    242 :    29.307946738301980
 Root    243 :    29.938698552787880
 Root    244 :    29.938699717755610
 Root    245 :    29.940335185985310
 Root    246 :    30.030037302270360
 Root    247 :    30.030037651353210
 Root    248 :    30.119416245003930
 Root    249 :    30.347458078815880
 Root    250 :    30.347459001946630
 Root    251 :    30.530783332484360
 Root    252 :    31.158371607286390
 Root    253 :    31.158371866859120
 Root    254 :    31.256549658737710
 Root    255 :    32.088646703093430
 Root    256 :    32.096712615009270
 Root    257 :    32.150216823403350
 Root    258 :    32.150223455142120
 Root    259 :    32.274974447388430
 Root    260 :    32.274974872100400
 Root    261 :    32.528902527177240
 Root    262 :    32.528903157827620
 Root    263 :    32.556884508224110
 Root    264 :    32.580664631849340
 Root    265 :    32.580666198507730
 Root    266 :    32.589274133262740
 Root    267 :    32.589274481491980
 Root    268 :    32.661042963540890
 Root    269 :    32.757956008844540
 Root    270 :    32.757956631150100
 Root    271 :    33.214682227156670
 Root    272 :    33.214682421751430
 Root    273 :    33.691821781537760
 Root    274 :    33.761150718055620
 Root    275 :    33.761150878845050
 Root    276 :    33.946140584194540
 Root    277 :    33.946141019962330
 Root    278 :    34.425574615170840
 Root    279 :    34.425578143780960
 Root    280 :    34.474670691761040
 Root    281 :    34.620867035051930
 Root    282 :    34.771529918984090
 Root    283 :    34.771533134844880
 Root    284 :    35.073014964754680
 Root    285 :    35.073016555116630
 Root    286 :    35.145186874692430
 Root    287 :    35.292788329658560
 Root    288 :    35.319156843455640
 Root    289 :    35.319159149037700
 Root    290 :    35.346532585444560
 Root    291 :    35.346532630528220
 Root    292 :    35.381407237328350
 Root    293 :    36.467845953250820
 Root    294 :    36.724505895517570
 Root    295 :    36.724511630583720
 Root    296 :    36.940423469143400
 Root    297 :    37.058098356276840
 Root    298 :    37.058103182788380
 Root    299 :    37.278840317183160
 Root    300 :    37.311401197077310
 Root    301 :    37.311402030342430
 Root    302 :    37.342323946216010
 Root    303 :    37.545484241522260
 Root    304 :    37.545485403739930
 Root    305 :    37.677110932745030
 Root    306 :    37.677111314349890
 Root    307 :    37.902890037301290
 Root    308 :    38.012672819551480
 Root    309 :    38.152502835436760
 Root    310 :    38.900857501135010
 Root    311 :    39.151740352828900
 Root    312 :    39.176131811384440
 Root    313 :    39.176137014734500
 Root    314 :    39.473665366831510
 Root    315 :    39.762379946024400
 Root    316 :    39.762382532477960
 Root    317 :    39.941556012313050
 Root    318 :    40.064367826589520
 Root    319 :    40.064368248763760
 Root    320 :    40.506682623069840
 Root    321 :    40.779972667131360
 Root    322 :    40.862028642594830
 Root    323 :    40.862031839862320
 Root    324 :    41.146358409716250
 Root    325 :    41.146359201828020
 Root    326 :    41.289603961250520
 Root    327 :    42.157432366862640
 Root    328 :    42.157432627933640
 Root    329 :    42.395941847650430
 Root    330 :    42.789609100459780
 Root    331 :    42.789609934640720
 Root    332 :    42.910710824339250
 Root    333 :    42.933264149172490
 Root    334 :    43.235969274687090
 Root    335 :    43.253737781507470
 Root    336 :    43.253739567200830
 Root    337 :    43.517766480487030
 Root    338 :    43.592000215996630
 Root    339 :    43.627957279199590
 Root    340 :    43.627957323897260
 Root    341 :    43.938774689864350
 Root    342 :    43.938774795951640
 Root    343 :    45.190764519543260
 Root    344 :    45.190765728748500
 Root    345 :    45.545832558768890
 Root    346 :    45.809435989764300
 Root    347 :    45.809436395359640
 Root    348 :    46.057535153660960
 Root    349 :    47.603164967001640
 Root    350 :    47.603166399740520
 Root    351 :    47.908556206725400
 Root    352 :    47.908556416787050
 Root    353 :    48.740471760495340
 Root    354 :    50.122974899677170
 Root    355 :    50.913551108831520
 Root    356 :    51.198995915013220
 Root    357 :    51.198996014097960
 Root    358 :    51.288299946003670
 Root    359 :    51.398400865909470
 Root    360 :    51.398401440942310
 Root    361 :    51.464499727243900
 Root    362 :    51.742737565238700
 Root    363 :    51.742737808806100
 Root    364 :    52.030434369495610
 Root    365 :    52.030434647163300
 Root    366 :    52.119854583391300
 Root    367 :    52.323623577119810
 Root    368 :    52.323623784447640
 Root    369 :    53.491910991685000
 Root    370 :    53.698185286128510
 Root    371 :    53.698186030740840
 Root    372 :    53.792029407359450
 Root    373 :    53.797048670596750
 Root    374 :    53.797048806720720
 Root    375 :    53.806034128065850
 Root    376 :    53.964153489031320
 Root    377 :    53.964154057843420
 Root    378 :    54.031062328634590
 Root    379 :    54.167794249168110
 Root    380 :    54.352056902244580
 Root    381 :    54.377183271778630
 Root    382 :    54.484045924123260
 Root    383 :    54.484046546655340
 Root    384 :    56.203852576135680
 Root    385 :    56.203852724420270
 Root    386 :    56.396845269057560
 Root    387 :    56.396845347780110
 Root    388 :    58.110392228758260
 Root    389 :    58.110392311320870
 Root    390 :    58.154142107506180
 Root    391 :    58.198570276035710
 Root    392 :    58.297050110184540
 Root    393 :    58.297050172815260
 Root    394 :    58.575220122736420
 Root    395 :    58.575220548019860
 Root    396 :    58.800562703459730
 Root    397 :    58.800562967955730
 Root    398 :    59.007386023625840
 Root    399 :    59.007386459390940
 Root    400 :    59.568415845161100
 Root    401 :    60.509853576628890
 Root    402 :    60.509853998991980
 Root    403 :    60.564414666220140
 Root    404 :    60.569757805827610
 Root    405 :    60.713725641907890
 Root    406 :    60.713725868649070
 Root    407 :    60.795364837083280
 Root    408 :    60.972315088594970
 Root    409 :    60.997003055155940
 Root    410 :    60.997003711023190
 Root    411 :    61.017706779204690
 Root    412 :    61.148349022358030
 Root    413 :    61.946835719312200
 Root    414 :    61.946835868227950
 Root    415 :    62.156069481654260
 Root    416 :    62.156069982053140
 Root    417 :    62.438398814296190
 Root    418 :    62.440736706199810
 Root    419 :    62.440736726148420
 Root    420 :    62.599601265694250
 Root    421 :    62.599601330451580
 Root    422 :    62.614873439516010
 Root    423 :    63.057764937231810
 Root    424 :    63.057764937593370
 Root    425 :    63.554734599479660
 Root    426 :    63.554734831045900
 Root    427 :    63.564865668572120
 Root    428 :    63.960177645708490
 Root    429 :    64.509974723709450
 Root    430 :    64.710590950250590
 Root    431 :    64.913247776172970
 Root    432 :    65.020868323441600
 Root    433 :    65.148354432747820
 Root    434 :    65.148355173871830
 Root    435 :    65.306098128286390
 Root    436 :    65.306098132648340
 Root    437 :    65.767100897801740
 Root    438 :    66.791067052149590
 Root    439 :    66.791067984690030
 Root    440 :    67.429980974369530
 Root    441 :    67.924755674295450
 Root    442 :    68.064005497703260
 Root    443 :    68.064005733674970
 Root    444 :    68.257202441264570
 Root    445 :    68.257202478216390
 Root    446 :    68.276686133333600
 Root    447 :    68.750317587859880
 Root    448 :    68.750317675371580
 Root    449 :    68.875267592953290
 Root    450 :    68.875267791395100
 Root    451 :    69.230582899343370
 Root    452 :    69.230583358030240
 Root    453 :    69.324658681082010
 Root    454 :    69.726855129511210
 Root    455 :    69.726855224017910
 Root    456 :    70.388481622783980
 Root    457 :    70.600281941103790
 Root    458 :    70.600282245449150
 Root    459 :    70.638821347579380
 Root    460 :    70.638822065272220
 Root    461 :    70.681387000256850
 Root    462 :    71.342621356087890
 Root    463 :    71.964195985707010
 Root    464 :    71.964196514451810
 Root    465 :    72.967666951016100
 Root    466 :    72.967667326938600
 Root    467 :    73.372654527136220
 Root    468 :    73.372654685776270
 Root    469 :    73.993058302583880
 Root    470 :    75.190288128925200
 Root    471 :    75.190288174861270
 Root    472 :    75.935990550422190
 Root    473 :    76.155528510192450
 Root    474 :    76.214129807053680
 Root    475 :    76.214130453817930
 Root    476 :    76.397803322434650
 Root    477 :    76.397803414022060
 Root    478 :    76.841747581017420
 Root    479 :    76.878004479806090
 Root    480 :    76.878004621299780
 Root    481 :    77.469423775387820
 Root    482 :    78.040675974116940
 Root    483 :    78.160045439085830
 Root    484 :    78.538219762135110
 Root    485 :    78.538219898249840
 Root    486 :    78.598569511505730
 Root    487 :    78.633436366001580
 Root    488 :    78.633436841668270
 Root    489 :    78.997500646214660
 Root    490 :    78.997500844800780
 Root    491 :    79.427553183070800
 Root    492 :    79.427553261416250
 Root    493 :    79.504595386215940
 Root    494 :    79.571642988968560
 Root    495 :    79.947749750250620
 Root    496 :    79.947750311367660
 Root    497 :    81.444369300727700
 Root    498 :    81.680619182396010
 Root    499 :    81.813831701513540
 Root    500 :    81.885895753647830
 Root    501 :    81.885895780262150
 Root    502 :    82.576583323479070
 Root    503 :    82.576584727296280
 Root    504 :    83.288975377844990
 Root    505 :    83.365493999116520
 Root    506 :    83.365494154258390
 Root    507 :    83.547505468960690
 Root    508 :    84.986216055416860
 Root    509 :    84.986216197283310
 Root    510 :    86.321524494283120
 Root    511 :    86.321524845031180
 Root    512 :    87.162549028705830
 Root    513 :    87.248780921857720
 Root    514 :    87.248780938871550
 Root    515 :    88.173209896040860
 Root    516 :    88.173209898785400
 Root    517 :    88.932313893029970
 Root    518 :    89.951327480175730
 Root    519 :    90.064626422054150
 Root    520 :    90.064626917950250
 Root    521 :    90.507679198504450
 Root    522 :    90.507679315268820
 Root    523 :    90.642368584785640
 Root    524 :    90.642369224617210
 Root    525 :    90.750118534192770
 Root    526 :    90.995962449074800
 Root    527 :    91.273481307109180
 Root    528 :    91.273481887686970
 Root    529 :    92.539338979286940
 Root    530 :    92.616833078495960
 Root    531 :    92.616833168443510
 Root    532 :    92.816992612260920
 Root    533 :    93.315034699716070
 Root    534 :    93.315034799158130
 Root    535 :    93.503178758817670
 Root    536 :    93.644540357580950
 Root    537 :    93.644540646905310
 Root    538 :    93.665853047056610
 Root    539 :    93.668415847320220
 Root    540 :    95.404206238626270
 Root    541 :    95.469754224034020
 Root    542 :    95.546003811377990
 Root    543 :    95.546004141362890
 Root    544 :    95.546493088081930
 Root    545 :    97.910955282343810
 Root    546 :    97.910955966659490
 Root    547 :    98.881529602053690
 Root    548 :    99.954578153043340
 Root    549 :    99.954578913890230
 Root    550 :   101.712230163633400
 Root    551 :   101.712230783747800
 Root    552 :   103.753430614474800
 Root    553 :   103.753431629780000
 Convergence achieved for final wavefunctions.
 ***********************************************************************
 Excited states from <AA,BB:AA,BB> singles matrix:
 ***********************************************************************
 
 1PDM for each excited state written to RWF  633
 Ground to excited state transition densities written to RWF  633
 Ground to excited state transition electric dipole moments (Au):
       state          X           Y           Z        Dip. S.      Osc.
         1        -0.0000      0.0000      0.0000      0.0000      0.0000
         2         0.0000     -0.0000     -0.0000      0.0000      0.0000
         3        -0.0000      0.0000      0.0000      0.0000      0.0000
         4        -0.6124      0.0000     -0.0000      0.3751      0.0905
         5        -0.0000     -0.6124      0.0000      0.3751      0.0905
         6         0.0000     -0.0000     -0.8760      0.7674      0.1989
         7        -0.0000     -0.0000     -0.0000      0.0000      0.0000
         8        -0.0000      0.4727      0.0000      0.2234      0.0594
         9        -0.4727     -0.0000     -0.0000      0.2234      0.0594
        10        -0.0000     -0.0000      1.0366      1.0746      0.2942
        11         0.0000      0.0000     -0.0000      0.0000      0.0000
        12        -0.4443     -0.0000     -0.0000      0.1974      0.0555
        13         0.0000     -0.4442     -0.0000      0.1974      0.0555
        14         0.0000      0.0000      0.0000      0.0000      0.0000
        15         0.0000     -0.0000     -0.0000      0.0000      0.0000
        16        -0.0000     -0.0000     -0.0000      0.0000      0.0000
        17         0.6621      0.0000     -0.0000      0.4384      0.1245
        18        -0.0000      0.6621     -0.0000      0.4384      0.1245
        19         0.0000      0.0000     -0.0000      0.0000      0.0000
        20         0.0000      0.0000     -0.0000      0.0000      0.0000
        21         0.0000      0.0000      0.0000      0.0000      0.0000
        22        -0.0000      0.0000      0.0000      0.0000      0.0000
        23        -0.0000     -0.0000     -0.0000      0.0000      0.0000
        24        -0.0000     -0.0000     -0.0000      0.0000      0.0000
        25        -0.0000      0.0000      0.0000      0.0000      0.0000
        26         0.0000      0.0000      0.0000      0.0000      0.0000
        27        -0.0000      0.0000      0.0000      0.0000      0.0000
        28        -0.0000      0.0000     -0.0000      0.0000      0.0000
        29        -0.0000     -0.0000     -0.0000      0.0000      0.0000
        30        -0.0000     -0.0000      0.0000      0.0000      0.0000
        31        -0.0000     -0.0940      0.0000      0.0088      0.0029
        32        -0.0940      0.0000     -0.0000      0.0088      0.0029
        33        -0.0000      0.0000     -0.0000      0.0000      0.0000
        34        -0.0000      0.0000      0.0000      0.0000      0.0000
        35        -0.0000      0.0000      0.0000      0.0000      0.0000
        36        -0.0000     -0.0000      0.0000      0.0000      0.0000
        37         0.0000     -0.0000     -0.0000      0.0000      0.0000
        38         0.5097     -0.0000      0.0000      0.2598      0.0861
        39         0.0000      0.5097     -0.0000      0.2598      0.0861
        40         0.0000     -0.0000     -0.6565      0.4310      0.1435
        41        -0.0000     -0.0000      0.2236      0.0500      0.0169
        42         0.0000     -0.0000      0.0000      0.0000      0.0000
        43         0.4154     -0.0000      0.0000      0.1726      0.0589
        44         0.0000      0.4154      0.0000      0.1726      0.0589
        45        -0.8435     -0.0000     -0.0000      0.7114      0.2494
        46         0.0000     -0.8435     -0.0000      0.7114      0.2494
        47         0.0000      0.0000      0.4716      0.2224      0.0790
        48         0.0000      0.0000     -0.0000      0.0000      0.0000
        49         0.0000     -0.0000      0.0000      0.0000      0.0000
        50         0.0000     -0.4271      0.0000      0.1824      0.0661
        51         0.4270      0.0000      0.0000      0.1824      0.0661
        52         0.8465     -0.0000      0.0000      0.7166      0.2624
        53         0.0000      0.8465     -0.0000      0.7166      0.2624
        54        -0.0000      0.0000      1.4870      2.2112      0.8155
        55         0.0000     -0.0000      0.0000      0.0000      0.0000
        56        -0.0000     -0.3404      0.0000      0.1159      0.0434
        57         0.3404     -0.0000      0.0000      0.1159      0.0434
        58         0.0000     -0.0000     -0.0411      0.0017      0.0006
        59        -0.0000      0.8801     -0.0000      0.7746      0.2969
        60         0.8801      0.0000      0.0000      0.7746      0.2969
        61        -0.0000      0.0000     -0.0000      0.0000      0.0000
        62        -0.0000      0.0000     -0.0000      0.0000      0.0000
        63        -0.0000      0.0000      0.0000      0.0000      0.0000
        64         0.0000     -0.0000     -0.0000      0.0000      0.0000
        65        -0.0000     -0.0000     -0.0000      0.0000      0.0000
        66        -0.0000      0.0000     -0.0000      0.0000      0.0000
        67         0.0000      0.3950      0.0000      0.1560      0.0615
        68         0.3950     -0.0000      0.0000      0.1560      0.0615
        69         0.0000      0.0000     -0.2096      0.0440      0.0176
        70        -0.0000     -0.0000     -0.0000      0.0000      0.0000
        71        -0.0000      0.0000     -0.0000      0.0000      0.0000
        72        -0.2119      0.0000     -0.0000      0.0449      0.0186
        73         0.0000      0.2119     -0.0000      0.0449      0.0186
        74         0.0000      0.0000      0.8689      0.7549      0.3175
        75        -0.0000     -0.0000      0.0000      0.0000      0.0000
        76        -0.0000      0.0000      0.0000      0.0000      0.0000
        77         0.0000      0.0000      0.0000      0.0000      0.0000
        78        -0.0000     -0.0000     -0.0000      0.0000      0.0000
        79        -0.0000     -0.0000      0.0000      0.0000      0.0000
        80        -0.0000     -0.0000     -0.0000      0.0000      0.0000
        81         0.0000      0.0000      0.0000      0.0000      0.0000
        82        -0.0000     -0.0000      0.0000      0.0000      0.0000
        83         0.3343     -0.0000     -0.0000      0.1118      0.0492
        84         0.0000      0.3343     -0.0000      0.1118      0.0492
        85        -0.0000     -0.0000      0.0000      0.0000      0.0000
        86        -0.0000     -0.0000     -0.0000      0.0000      0.0000
        87        -0.0000      0.0000      0.0000      0.0000      0.0000
        88        -0.0000      0.0000      0.0000      0.0000      0.0000
        89        -0.0000      0.0000     -0.0000      0.0000      0.0000
        90         0.4906     -0.0000      0.0000      0.2406      0.1076
        91         0.0000      0.4906     -0.0000      0.2406      0.1076
        92        -0.0000      0.0000     -0.0000      0.0000      0.0000
        93         0.0000     -0.0000      0.0000      0.0000      0.0000
        94        -0.0000     -0.0000     -0.0000      0.0000      0.0000
        95         0.0000     -0.0000     -0.7349      0.5401      0.2453
        96         0.0000      0.0000      0.0000      0.0000      0.0000
        97        -0.0000     -0.0000      0.0000      0.0000      0.0000
        98        -0.0000     -0.0000     -0.0000      0.0000      0.0000
        99         0.0000      0.0000      0.0000      0.0000      0.0000
       100        -0.1362      0.0000      0.0000      0.0186      0.0085
       101        -0.0000     -0.1362     -0.0000      0.0186      0.0085
       102         0.0000      0.0118      0.0000      0.0001      0.0001
       103         0.0118     -0.0000     -0.0000      0.0001      0.0001
       104        -0.0000      0.0000      0.3715      0.1380      0.0634
       105         0.0000      0.0000      0.0000      0.0000      0.0000
       106         0.0000      0.0000      0.0000      0.0000      0.0000
       107         0.0000     -0.0000      0.0000      0.0000      0.0000
       108        -0.0000     -0.0000     -0.0000      0.0000      0.0000
       109        -0.4213     -0.0000      0.0000      0.1775      0.0830
       110         0.0000     -0.4213     -0.0000      0.1775      0.0830
       111        -0.0000      0.0000     -0.0000      0.0000      0.0000
       112         0.4761     -0.0000      0.0000      0.2267      0.1068
       113         0.0000      0.4761     -0.0000      0.2267      0.1068
       114         0.0000      0.0000     -0.0000      0.0000      0.0000
       115        -0.0000      0.0000     -0.0000      0.0000      0.0000
       116        -0.0000     -0.0000     -0.4401      0.1937      0.0927
       117         0.0000     -0.0000     -0.0000      0.0000      0.0000
       118        -0.0000      0.0000      0.0000      0.0000      0.0000
       119        -0.0000      0.0000     -0.0000      0.0000      0.0000
       120         0.0000      0.0000     -0.0000      0.0000      0.0000
       121         0.3558     -0.0000      0.0000      0.1266      0.0620
       122         0.0000      0.3558      0.0000      0.1266      0.0620
       123        -0.0000     -0.0000      0.5805      0.3370      0.1652
       124         0.0000     -0.0000      0.0000      0.0000      0.0000
       125         0.0000      0.0000      0.0000      0.0000      0.0000
       126         0.0000      0.0000     -0.0000      0.0000      0.0000
       127         0.0000     -0.0000      0.0000      0.0000      0.0000
       128        -0.0000      0.0000      0.0000      0.0000      0.0000
       129        -0.0000      0.0000     -0.0000      0.0000      0.0000
       130        -0.0000      0.0000      0.0000      0.0000      0.0000
       131         0.0000      0.0000     -0.0000      0.0000      0.0000
       132        -0.0000      0.0000     -0.1440      0.0207      0.0105
       133        -0.0000     -0.0000      0.0000      0.0000      0.0000
       134         0.0000      0.0000      0.0000      0.0000      0.0000
       135         0.0000      0.3500      0.0000      0.1225      0.0624
       136         0.3499     -0.0000     -0.0000      0.1225      0.0623
       137        -0.0000      0.0000      0.0000      0.0000      0.0000
       138        -0.4877      0.0000     -0.0000      0.2379      0.1218
       139        -0.0000     -0.4877      0.0000      0.2378      0.1218
       140         0.0000      0.0000      0.0000      0.0000      0.0000
       141         0.0000      0.0000     -0.0000      0.0000      0.0000
       142         0.0000      0.0000      0.0000      0.0000      0.0000
       143        -0.0000      0.0000     -0.1619      0.0262      0.0136
       144        -0.0000      0.0000      0.0000      0.0000      0.0000
       145        -0.0000      0.0000      0.0000      0.0000      0.0000
       146         0.0000      0.0000      0.0000      0.0000      0.0000
       147        -0.0000     -0.0000      0.0000      0.0000      0.0000
       148        -0.0000     -0.0000      0.0000      0.0000      0.0000
       149         0.0000      0.0000      0.0000      0.0000      0.0000
       150        -0.0000      0.0000     -0.0670      0.0045      0.0024
       151         0.0000      0.0000      0.0000      0.0000      0.0000
       152        -0.2546     -0.0000     -0.0000      0.0648      0.0342
       153         0.0000     -0.2546     -0.0000      0.0648      0.0343
       154         0.0000      0.0000      0.0000      0.0000      0.0000
       155        -0.0000     -0.0000      0.0000      0.0000      0.0000
       156        -0.0000     -0.0000     -0.0000      0.0000      0.0000
       157         0.0000     -0.0000      0.0000      0.0000      0.0000
       158        -0.4364      0.0000      0.0000      0.1904      0.1011
       159        -0.0000     -0.4364      0.0000      0.1904      0.1011
       160         0.0000      0.0000     -0.0000      0.0000      0.0000
       161         0.0000      0.0000     -0.0000      0.0000      0.0000
       162         0.0000      0.0000      0.0000      0.0000      0.0000
       163         0.1346      0.0000      0.0000      0.0181      0.0098
       164        -0.0000      0.1346      0.0000      0.0181      0.0098
       165        -0.0725      0.0000     -0.0000      0.0053      0.0028
       166         0.0000      0.0725     -0.0000      0.0053      0.0028
       167        -0.0000      0.0000      0.0000      0.0000      0.0000
       168         0.0000     -0.0000     -0.0000      0.0000      0.0000
       169         0.0491      0.0000     -0.0000      0.0024      0.0013
       170        -0.0000      0.0491     -0.0000      0.0024      0.0013
       171        -0.0000      0.0000      0.2701      0.0730      0.0399
       172         0.0000     -0.0000     -0.0000      0.0000      0.0000
       173         0.0000      0.0000     -0.0000      0.0000      0.0000
       174        -0.0000     -0.0000     -0.0000      0.0000      0.0000
       175        -0.0000     -0.0000     -0.0000      0.0000      0.0000
       176         0.0000     -0.0000     -0.0000      0.0000      0.0000
       177        -0.0000     -0.1302      0.0000      0.0170      0.0094
       178        -0.1302      0.0000      0.0000      0.0170      0.0094
       179         0.0000      0.0000     -0.0000      0.0000      0.0000
       180        -0.4458      0.0000      0.0000      0.1988      0.1128
       181        -0.0000     -0.4459     -0.0000      0.1988      0.1128
       182         0.0000      0.0000     -0.8846      0.7825      0.4458
       183         0.0000      0.0000     -0.0000      0.0000      0.0000
       184        -0.0000      0.0000     -0.5953      0.3544      0.2032
       185         0.0000      0.0522     -0.0000      0.0027      0.0016
       186         0.0522     -0.0000      0.0000      0.0027      0.0016
       187         0.2085     -0.0000      0.0000      0.0435      0.0252
       188         0.0000      0.2085     -0.0000      0.0435      0.0252
       189         0.0000      0.0000      0.0000      0.0000      0.0000
       190         0.0000      0.0000      0.0000      0.0000      0.0000
       191         0.0000      0.0000     -0.0000      0.0000      0.0000
       192         0.0000      0.0000     -0.0560      0.0031      0.0018
       193        -0.0000      0.0000      0.0000      0.0000      0.0000
       194        -0.0000      0.0000      0.0000      0.0000      0.0000
       195        -0.0000     -0.1992      0.0000      0.0397      0.0234
       196        -0.1992      0.0000     -0.0000      0.0397      0.0234
       197        -0.0000     -0.0000      0.0000      0.0000      0.0000
       198        -0.0000      0.0000      0.0000      0.0000      0.0000
       199         0.0000     -0.0000     -0.0000      0.0000      0.0000
       200         0.0000      0.0000      0.1833      0.0336      0.0199
       201         0.0000     -0.0000      0.0000      0.0000      0.0000
       202        -0.4365     -0.0000     -0.0000      0.1906      0.1133
       203         0.0000     -0.4365      0.0000      0.1906      0.1133
       204         0.0000     -0.0000     -0.0000      0.0000      0.0000
       205         0.0000     -0.0000      0.2530      0.0640      0.0383
       206         1.0389     -0.0000     -0.0000      1.0794      0.6483
       207         0.0000      1.0389      0.0000      1.0794      0.6483
       208        -0.0000      0.0000     -0.3406      0.1160      0.0715
       209        -0.0000     -0.0000      0.0000      0.0000      0.0000
       210         0.0000      0.0000     -0.0000      0.0000      0.0000
       211        -0.0000      0.0000      0.0000      0.0000      0.0000
       212        -0.0000      0.1445      0.0000      0.0209      0.0130
       213         0.1445      0.0000      0.0000      0.0209      0.0130
       214         0.0000      0.0000     -0.0000      0.0000      0.0000
       215        -0.0000     -0.0000     -0.0000      0.0000      0.0000
       216         0.0000      0.0000     -0.0000      0.0000      0.0000
       217         0.0000     -0.0000     -0.0000      0.0000      0.0000
       218         0.0000      0.0000     -0.1449      0.0210      0.0132
       219         0.0000     -0.0000     -0.0000      0.0000      0.0000
       220         0.0000      0.0000     -0.0000      0.0000      0.0000
       221        -0.0561     -0.0000     -0.0000      0.0031      0.0020
       222         0.0000     -0.0561      0.0000      0.0031      0.0020
       223         0.0185      0.0000      0.0000      0.0003      0.0002
       224        -0.0000      0.0185      0.0000      0.0003      0.0002
       225        -0.0000      0.0000     -0.0000      0.0000      0.0000
       226        -0.0000     -0.0000      0.0000      0.0000      0.0000
       227         0.0000     -0.0000     -0.0754      0.0057      0.0038
       228        -0.0000     -0.0000      0.0000      0.0000      0.0000
       229        -0.0000     -0.0000      0.0000      0.0000      0.0000
       230        -0.0000      0.0000      0.1888      0.0356      0.0247
       231         0.0000     -0.2213     -0.0000      0.0490      0.0342
       232        -0.2213      0.0000     -0.0000      0.0490      0.0342
       233        -0.0000      0.0090      0.0000      0.0001      0.0001
       234         0.0090      0.0000     -0.0000      0.0001      0.0001
       235        -0.0000     -0.0000     -0.0000      0.0000      0.0000
       236         0.0000     -0.0000      0.0000      0.0000      0.0000
       237         0.0000      0.0000      0.0000      0.0000      0.0000
       238        -0.0000      0.0000      0.0000      0.0000      0.0000
       239        -0.0000     -0.0000      0.0394      0.0016      0.0011
       240        -0.0049      0.0000     -0.0000      0.0000      0.0000
       241         0.0000     -0.0049      0.0000      0.0000      0.0000
       242        -0.0000     -0.0000      0.0000      0.0000      0.0000
       243        -0.0000     -0.0000     -0.0000      0.0000      0.0000
       244        -0.0000      0.0000      0.0000      0.0000      0.0000
       245         0.0000     -0.0000      0.0000      0.0000      0.0000
       246        -0.0000     -0.0000      0.0000      0.0000      0.0000
       247        -0.0000      0.0000     -0.0000      0.0000      0.0000
       248         0.0000     -0.0000     -0.1085      0.0118      0.0087
       249        -0.0000     -0.0000     -0.0000      0.0000      0.0000
       250         0.0000      0.0000     -0.0000      0.0000      0.0000
       251        -0.0000      0.0000     -0.0000      0.0000      0.0000
       252         0.0000     -0.3629      0.0000      0.1317      0.1005
[...]
      7   0.308682D+00  0.588257D-01  0.000000D+00  0.000000D+00  0.000000D+00
      8   0.000000D+00  0.000000D+00  0.000000D+00  0.000000D+00  0.385126D-01
      9   0.000000D+00  0.000000D+00  0.000000D+00  0.385128D-01  0.000000D+00
     10   0.000000D+00  0.000000D+00  0.445282D+00  0.000000D+00  0.000000D+00
     11   0.000000D+00  0.000000D+00  0.000000D+00  0.000000D+00 -0.347537D+00
     12   0.000000D+00  0.000000D+00  0.000000D+00  0.000000D+00  0.347535D+00
     13   0.000000D+00  0.000000D+00  0.000000D+00  0.000000D+00  0.000000D+00
     14   0.000000D+00  0.000000D+00  0.000000D+00  0.347534D+00  0.000000D+00
     15   0.000000D+00  0.000000D+00  0.000000D+00 -0.397149D-01  0.000000D+00
     16   0.000000D+00  0.000000D+00  0.000000D+00  0.000000D+00  0.397136D-01
               486           487           488           489           490 
      1  -0.768885D+02 -0.768872D+02 -0.768872D+02 -0.768738D+02 -0.768738D+02
      2   0.000000D+00  0.000000D+00  0.000000D+00  0.000000D+00  0.000000D+00
      3   0.000000D+00  0.000000D+00  0.000000D+00  0.000000D+00  0.000000D+00
      4   0.000000D+00  0.000000D+00  0.000000D+00  0.000000D+00  0.000000D+00
      5   0.000000D+00  0.000000D+00  0.000000D+00  0.000000D+00  0.000000D+00
      6   0.000000D+00  0.000000D+00  0.000000D+00  0.000000D+00  0.000000D+00
      7   0.000000D+00  0.000000D+00  0.000000D+00  0.000000D+00  0.000000D+00
      8   0.000000D+00  0.000000D+00 -0.485682D-01 -0.140052D+00  0.000000D+00
      9   0.000000D+00  0.485680D-01  0.000000D+00  0.000000D+00  0.140052D+00
     10   0.000000D+00  0.000000D+00  0.000000D+00  0.000000D+00  0.000000D+00
     11   0.419326D+00  0.000000D+00 -0.350817D+00  0.607121D-01  0.000000D+00
     12   0.419317D+00  0.000000D+00  0.350830D+00 -0.607121D-01  0.000000D+00
     13   0.651409D-01  0.000000D+00  0.111934D-05  0.000000D+00  0.000000D+00
     14   0.000000D+00 -0.350825D+00  0.000000D+00  0.000000D+00  0.607122D-01
     15   0.000000D+00 -0.261126D+00  0.000000D+00  0.000000D+00  0.196171D+00
     16   0.433679D-05  0.000000D+00 -0.261126D+00  0.196172D+00  0.000000D+00
               491           492           493           494           495 
      1  -0.768580D+02 -0.768580D+02 -0.768552D+02 -0.768527D+02 -0.768389D+02
      2   0.000000D+00  0.000000D+00  0.000000D+00  0.000000D+00  0.000000D+00
      3   0.000000D+00  0.000000D+00  0.000000D+00  0.000000D+00  0.000000D+00
      4   0.000000D+00  0.000000D+00  0.000000D+00  0.000000D+00  0.000000D+00
      5   0.000000D+00  0.000000D+00  0.000000D+00  0.000000D+00  0.000000D+00
      6   0.000000D+00  0.000000D+00  0.000000D+00  0.000000D+00  0.000000D+00
      7   0.000000D+00  0.000000D+00  0.000000D+00  0.000000D+00  0.000000D+00
      8  -0.638240D-01  0.000000D+00  0.000000D+00  0.000000D+00  0.000000D+00
      9   0.000000D+00 -0.638238D-01  0.000000D+00  0.000000D+00 -0.479259D+00
     10   0.000000D+00  0.000000D+00 -0.386951D-02  0.000000D+00  0.000000D+00
     11  -0.834979D-01  0.000000D+00  0.000000D+00  0.861108D-02  0.000000D+00
     12   0.834979D-01  0.000000D+00  0.000000D+00  0.861092D-02  0.000000D+00
     13   0.000000D+00  0.000000D+00  0.000000D+00  0.213367D+00  0.000000D+00
     14   0.000000D+00  0.834978D-01  0.000000D+00  0.000000D+00  0.230057D+00
     15  -0.145432D-05 -0.373034D+00  0.000000D+00  0.000000D+00 -0.254973D+00
     16   0.373034D+00 -0.145432D-05  0.000000D+00  0.000000D+00  0.000000D+00
               496           497           498           499           500 
      1  -0.768389D+02 -0.767839D+02 -0.767752D+02 -0.767703D+02 -0.767677D+02
      2   0.000000D+00  0.000000D+00  0.000000D+00  0.000000D+00  0.114830D+00
      3   0.000000D+00  0.000000D+00  0.000000D+00  0.000000D+00  0.000000D+00
      4   0.000000D+00  0.000000D+00  0.000000D+00  0.408421D-01  0.000000D+00
      5   0.000000D+00  0.000000D+00  0.000000D+00  0.000000D+00 -0.300169D+00
      6   0.000000D+00  0.000000D+00  0.000000D+00  0.000000D+00  0.000000D+00
      7   0.000000D+00  0.000000D+00  0.000000D+00 -0.154744D+00  0.000000D+00
      8   0.479258D+00  0.000000D+00  0.000000D+00  0.000000D+00  0.000000D+00
      9   0.000000D+00  0.000000D+00  0.000000D+00  0.000000D+00  0.000000D+00
     10   0.000000D+00  0.000000D+00  0.000000D+00  0.000000D+00  0.000000D+00
     11   0.230057D+00  0.119278D+00  0.000000D+00  0.000000D+00  0.000000D+00
     12  -0.230057D+00  0.119278D+00  0.000000D+00  0.000000D+00  0.000000D+00
     13   0.000000D+00 -0.636851D+00  0.000000D+00  0.000000D+00  0.000000D+00
     14   0.000000D+00  0.000000D+00  0.000000D+00  0.000000D+00  0.000000D+00
     15   0.000000D+00  0.000000D+00  0.000000D+00  0.000000D+00  0.000000D+00
     16  -0.254972D+00  0.000000D+00  0.000000D+00  0.000000D+00  0.000000D+00
               501           502           503           504           505 
      1  -0.767677D+02 -0.767423D+02 -0.767423D+02 -0.767161D+02 -0.767133D+02
      2   0.000000D+00  0.000000D+00  0.000000D+00  0.000000D+00  0.000000D+00
      3   0.114830D+00  0.000000D+00  0.000000D+00  0.000000D+00  0.000000D+00
      4   0.000000D+00  0.000000D+00  0.000000D+00  0.000000D+00  0.000000D+00
      5   0.000000D+00  0.000000D+00  0.000000D+00  0.000000D+00  0.000000D+00
      6  -0.300169D+00  0.000000D+00  0.000000D+00  0.000000D+00  0.000000D+00
      7   0.000000D+00  0.000000D+00  0.000000D+00  0.000000D+00  0.000000D+00
      8   0.000000D+00 -0.171389D+00  0.000000D+00  0.000000D+00 -0.137813D+00
      9   0.000000D+00  0.000000D+00  0.171389D+00  0.000000D+00  0.000000D+00
     10   0.000000D+00  0.000000D+00  0.000000D+00  0.000000D+00  0.000000D+00
     11   0.000000D+00 -0.100468D+00  0.000000D+00  0.118578D+00  0.320008D+00
     12   0.000000D+00  0.100468D+00  0.000000D+00  0.118577D+00 -0.320009D+00
     13   0.000000D+00  0.000000D+00  0.000000D+00 -0.521970D+00  0.107945D-05
     14   0.000000D+00  0.000000D+00 -0.100468D+00  0.000000D+00  0.000000D+00
     15   0.000000D+00  0.000000D+00  0.373582D+00  0.000000D+00  0.000000D+00
     16   0.000000D+00  0.373583D+00  0.000000D+00  0.000000D+00  0.290000D+00
               506           507           508           509           510 
      1  -0.767133D+02 -0.767066D+02 -0.766538D+02 -0.766538D+02 -0.766047D+02
      2   0.000000D+00  0.000000D+00 -0.595675D-01  0.000000D+00  0.000000D+00
      3   0.000000D+00  0.000000D+00  0.000000D+00 -0.595675D-01  0.216721D-01
      4   0.000000D+00  0.000000D+00  0.000000D+00  0.000000D+00  0.000000D+00
      5   0.000000D+00  0.000000D+00  0.118923D+00  0.000000D+00  0.000000D+00
      6   0.000000D+00  0.000000D+00  0.000000D+00  0.118923D+00 -0.578620D-01
      7   0.000000D+00  0.000000D+00  0.000000D+00  0.000000D+00  0.000000D+00
      8   0.000000D+00  0.000000D+00  0.000000D+00  0.000000D+00  0.000000D+00
      9  -0.137813D+00  0.000000D+00  0.000000D+00  0.000000D+00  0.000000D+00
     10   0.000000D+00  0.000000D+00  0.000000D+00  0.000000D+00  0.000000D+00
     11   0.000000D+00  0.850248D-01  0.000000D+00  0.000000D+00  0.000000D+00
     12   0.000000D+00  0.850249D-01  0.000000D+00  0.000000D+00  0.000000D+00
     13   0.000000D+00  0.522197D+00  0.000000D+00  0.000000D+00  0.000000D+00
     14  -0.320009D+00  0.000000D+00  0.000000D+00  0.000000D+00  0.000000D+00
     15  -0.290000D+00  0.000000D+00  0.000000D+00  0.000000D+00  0.000000D+00
     16   0.000000D+00  0.000000D+00  0.000000D+00  0.000000D+00  0.000000D+00
               511           512           513           514           515 
      1  -0.766047D+02 -0.765738D+02 -0.765706D+02 -0.765706D+02 -0.765366D+02
      2   0.216721D-01  0.000000D+00  0.803363D-01  0.000000D+00  0.000000D+00
      3   0.000000D+00  0.000000D+00  0.000000D+00 -0.803364D-01 -0.829689D-01
      4   0.000000D+00  0.852964D-02  0.000000D+00  0.000000D+00  0.000000D+00
      5  -0.578621D-01  0.000000D+00 -0.198246D+00  0.000000D+00  0.000000D+00
      6   0.000000D+00  0.000000D+00  0.000000D+00  0.198246D+00  0.216393D+00
      7   0.000000D+00 -0.414537D-01  0.000000D+00  0.000000D+00  0.000000D+00
      8   0.000000D+00  0.000000D+00  0.000000D+00  0.000000D+00  0.000000D+00
      9   0.000000D+00  0.000000D+00  0.000000D+00  0.000000D+00  0.000000D+00
     10   0.000000D+00  0.000000D+00  0.000000D+00  0.000000D+00  0.000000D+00
     11   0.000000D+00  0.000000D+00  0.000000D+00  0.000000D+00  0.000000D+00
     12   0.000000D+00  0.000000D+00  0.000000D+00  0.000000D+00  0.000000D+00
     13   0.000000D+00  0.000000D+00  0.000000D+00  0.000000D+00  0.000000D+00
     14   0.000000D+00  0.000000D+00  0.000000D+00  0.000000D+00  0.000000D+00
     15   0.000000D+00  0.000000D+00  0.000000D+00  0.000000D+00  0.000000D+00
     16   0.000000D+00  0.000000D+00  0.000000D+00  0.000000D+00  0.000000D+00
               516           517           518           519           520 
      1  -0.765366D+02 -0.765087D+02 -0.764713D+02 -0.764671D+02 -0.764671D+02
      2  -0.829690D-01  0.000000D+00  0.000000D+00  0.000000D+00  0.000000D+00
      3   0.000000D+00  0.000000D+00  0.000000D+00  0.000000D+00  0.000000D+00
      4   0.000000D+00  0.154850D+00  0.724895D-01  0.000000D+00  0.000000D+00
      5   0.216393D+00  0.000000D+00  0.000000D+00  0.000000D+00  0.000000D+00
      6   0.000000D+00  0.000000D+00  0.000000D+00  0.000000D+00  0.000000D+00
      7   0.000000D+00 -0.470785D+00 -0.215171D+00  0.000000D+00  0.000000D+00
      8   0.000000D+00  0.000000D+00  0.000000D+00  0.000000D+00  0.761493D-01
      9   0.000000D+00  0.000000D+00  0.000000D+00 -0.761492D-01  0.000000D+00
     10   0.000000D+00  0.000000D+00  0.000000D+00  0.000000D+00  0.000000D+00
     11   0.000000D+00  0.000000D+00  0.000000D+00  0.000000D+00 -0.391168D-02
     12   0.000000D+00  0.000000D+00  0.000000D+00  0.000000D+00  0.391171D-02
     13   0.000000D+00  0.000000D+00  0.000000D+00  0.000000D+00  0.000000D+00
     14   0.000000D+00  0.000000D+00  0.000000D+00 -0.391159D-02  0.000000D+00
     15   0.000000D+00  0.000000D+00  0.000000D+00  0.103430D+00  0.000000D+00
     16   0.000000D+00  0.000000D+00  0.000000D+00  0.000000D+00  0.103430D+00
               521           522           523           524           525 
      1  -0.764508D+02 -0.764508D+02 -0.764459D+02 -0.764459D+02 -0.764419D+02
      2   0.000000D+00  0.000000D+00  0.000000D+00  0.000000D+00  0.000000D+00
      3   0.000000D+00  0.000000D+00  0.000000D+00  0.000000D+00  0.000000D+00
      4   0.000000D+00  0.000000D+00  0.000000D+00  0.000000D+00  0.000000D+00
      5   0.000000D+00  0.000000D+00  0.000000D+00  0.000000D+00  0.000000D+00
      6   0.000000D+00  0.000000D+00  0.000000D+00  0.000000D+00  0.000000D+00
      7   0.000000D+00  0.000000D+00  0.000000D+00  0.000000D+00  0.000000D+00
      8  -0.283300D+00  0.000000D+00 -0.473435D+00  0.000000D+00  0.000000D+00
      9   0.000000D+00  0.283300D+00  0.000000D+00  0.473435D+00  0.000000D+00
     10   0.000000D+00  0.000000D+00  0.000000D+00  0.000000D+00 -0.100186D+00
     11   0.757171D-01  0.000000D+00 -0.679041D-01  0.000000D+00  0.000000D+00
     12  -0.757172D-01  0.000000D+00  0.679043D-01  0.000000D+00  0.000000D+00
     13   0.000000D+00  0.000000D+00  0.000000D+00  0.000000D+00  0.000000D+00
     14   0.000000D+00  0.757173D-01  0.000000D+00 -0.679043D-01  0.000000D+00
     15   0.000000D+00  0.326509D+00  0.000000D+00  0.881618D-01  0.000000D+00
     16   0.326508D+00  0.000000D+00  0.881621D-01  0.000000D+00  0.000000D+00
               526           527           528           529           530 
      1  -0.764329D+02 -0.764227D+02 -0.764227D+02 -0.763762D+02 -0.763733D+02
      2   0.000000D+00  0.000000D+00  0.000000D+00  0.000000D+00  0.000000D+00
      3   0.000000D+00  0.000000D+00  0.000000D+00  0.000000D+00  0.174454D+00
      4   0.000000D+00  0.000000D+00  0.000000D+00  0.000000D+00  0.000000D+00
      5   0.000000D+00  0.000000D+00  0.000000D+00  0.000000D+00  0.000000D+00
      6   0.000000D+00  0.000000D+00  0.000000D+00  0.000000D+00 -0.504103D+00
      7   0.000000D+00  0.000000D+00  0.000000D+00  0.000000D+00 -0.151347D-05
      8   0.000000D+00  0.586115D+00  0.000000D+00  0.000000D+00  0.000000D+00
      9   0.000000D+00  0.000000D+00 -0.586115D+00  0.000000D+00  0.000000D+00
     10   0.000000D+00  0.000000D+00  0.000000D+00  0.000000D+00  0.000000D+00
     11  -0.138230D+00 -0.180236D+00  0.000000D+00  0.000000D+00  0.000000D+00
     12  -0.138229D+00  0.180236D+00  0.000000D+00  0.000000D+00  0.000000D+00
     13  -0.106896D+01  0.123174D-05  0.000000D+00  0.000000D+00  0.000000D+00
     14   0.000000D+00  0.000000D+00 -0.180236D+00  0.000000D+00  0.000000D+00
     15   0.000000D+00  0.000000D+00 -0.789320D+00  0.000000D+00  0.000000D+00
     16  -0.121296D-05 -0.789321D+00  0.000000D+00  0.000000D+00  0.000000D+00
               531           532           533           534           535 
      1  -0.763733D+02 -0.763660D+02 -0.763477D+02 -0.763477D+02 -0.763408D+02
      2  -0.174454D+00  0.000000D+00  0.000000D+00  0.843723D-01  0.000000D+00
      3   0.000000D+00  0.000000D+00  0.843723D-01  0.000000D+00  0.000000D+00
      4   0.000000D+00  0.145513D+00  0.000000D+00  0.000000D+00  0.000000D+00
      5   0.504103D+00  0.000000D+00  0.000000D+00 -0.232164D+00  0.000000D+00
      6   0.000000D+00  0.172364D-05 -0.232164D+00  0.000000D+00  0.000000D+00
      7   0.000000D+00 -0.419296D+00  0.000000D+00  0.000000D+00  0.000000D+00
      8   0.000000D+00  0.000000D+00  0.000000D+00  0.000000D+00  0.000000D+00
      9   0.000000D+00  0.000000D+00  0.000000D+00  0.000000D+00  0.000000D+00
     10   0.000000D+00  0.000000D+00  0.000000D+00  0.000000D+00  0.000000D+00
     11   0.000000D+00  0.000000D+00  0.000000D+00  0.000000D+00  0.163165D+00
     12   0.000000D+00  0.000000D+00  0.000000D+00  0.000000D+00  0.163165D+00
     13   0.000000D+00  0.000000D+00  0.000000D+00  0.000000D+00 -0.570916D+00
     14   0.000000D+00  0.000000D+00  0.000000D+00  0.000000D+00  0.000000D+00
     15   0.000000D+00  0.000000D+00  0.000000D+00  0.000000D+00  0.000000D+00
     16   0.000000D+00  0.000000D+00  0.000000D+00  0.000000D+00  0.000000D+00
               536           537           538           539           540 
      1  -0.763356D+02 -0.763356D+02 -0.763348D+02 -0.763347D+02 -0.762709D+02
      2   0.310660D-02  0.000000D+00  0.000000D+00  0.000000D+00  0.000000D+00
      3   0.000000D+00  0.310680D-02  0.000000D+00  0.000000D+00  0.000000D+00
      4   0.000000D+00  0.000000D+00  0.496503D-01  0.000000D+00  0.000000D+00
      5  -0.358659D-01  0.000000D+00  0.000000D+00  0.000000D+00  0.000000D+00
      6   0.000000D+00 -0.358665D-01  0.000000D+00  0.000000D+00  0.000000D+00
      7   0.000000D+00 -0.168701D-05 -0.151247D+00  0.000000D+00  0.000000D+00
      8   0.000000D+00  0.000000D+00  0.000000D+00  0.000000D+00  0.000000D+00
      9   0.000000D+00  0.000000D+00  0.000000D+00  0.000000D+00  0.000000D+00
     10   0.000000D+00  0.000000D+00  0.000000D+00  0.000000D+00 -0.191170D-01
     11   0.000000D+00  0.000000D+00  0.000000D+00  0.000000D+00  0.000000D+00
     12   0.000000D+00  0.000000D+00  0.000000D+00  0.000000D+00  0.000000D+00
     13   0.000000D+00  0.000000D+00  0.000000D+00  0.000000D+00  0.000000D+00
     14   0.000000D+00  0.000000D+00  0.000000D+00  0.000000D+00  0.000000D+00
     15   0.000000D+00  0.000000D+00  0.000000D+00  0.000000D+00  0.000000D+00
     16   0.000000D+00  0.000000D+00  0.000000D+00  0.000000D+00  0.000000D+00
               541           542           543           544           545 
      1  -0.762685D+02 -0.762657D+02 -0.762657D+02 -0.762657D+02 -0.761788D+02
      2   0.000000D+00  0.000000D+00  0.000000D+00  0.000000D+00  0.000000D+00
      3   0.000000D+00  0.000000D+00  0.000000D+00  0.000000D+00 -0.757911D-01
      4   0.000000D+00  0.000000D+00  0.000000D+00  0.000000D+00  0.000000D+00
      5   0.000000D+00  0.000000D+00  0.000000D+00  0.000000D+00  0.000000D+00
      6   0.000000D+00  0.000000D+00  0.000000D+00  0.000000D+00  0.209778D+00
      7   0.000000D+00  0.000000D+00  0.000000D+00  0.000000D+00  0.000000D+00
      8   0.450319D-05  0.453140D+00  0.000000D+00 -0.507183D-03  0.000000D+00
      9   0.000000D+00  0.000000D+00  0.453140D+00  0.000000D+00  0.000000D+00
     10   0.000000D+00  0.000000D+00  0.000000D+00  0.000000D+00  0.000000D+00
     11  -0.803362D-01  0.108016D+00  0.000000D+00  0.869231D-01  0.000000D+00
     12  -0.803383D-01 -0.107819D+00  0.000000D+00  0.871647D-01  0.000000D+00
     13   0.117483D-01 -0.172576D-02  0.000000D+00 -0.154210D+01  0.000000D+00
     14   0.000000D+00  0.000000D+00 -0.107917D+00  0.000000D+00  0.000000D+00
     15   0.000000D+00  0.000000D+00  0.449277D+00  0.000000D+00  0.000000D+00
     16  -0.452015D-05 -0.449277D+00  0.000000D+00  0.502809D-03  0.000000D+00
               546           547           548           549           550 
      1  -0.761788D+02 -0.761431D+02 -0.761037D+02 -0.761037D+02 -0.760391D+02
      2  -0.757911D-01  0.000000D+00  0.000000D+00  0.000000D+00  0.000000D+00
      3   0.000000D+00  0.000000D+00  0.000000D+00  0.000000D+00  0.000000D+00
      4   0.000000D+00  0.856951D-01  0.000000D+00  0.000000D+00  0.000000D+00
      5   0.209778D+00  0.000000D+00  0.000000D+00  0.000000D+00  0.000000D+00
      6   0.000000D+00  0.000000D+00  0.000000D+00  0.000000D+00  0.000000D+00
      7   0.000000D+00 -0.202625D+00  0.000000D+00  0.000000D+00  0.000000D+00
      8   0.000000D+00  0.000000D+00 -0.461663D+00  0.000000D+00 -0.318508D+00
      9   0.000000D+00  0.000000D+00  0.000000D+00  0.461663D+00  0.000000D+00
     10   0.000000D+00  0.000000D+00  0.000000D+00  0.000000D+00  0.000000D+00
     11   0.000000D+00  0.000000D+00  0.159595D+00  0.000000D+00  0.187172D+00
     12   0.000000D+00  0.000000D+00 -0.159595D+00  0.000000D+00 -0.187172D+00
     13   0.000000D+00  0.000000D+00  0.000000D+00  0.000000D+00  0.000000D+00
     14   0.000000D+00  0.000000D+00  0.000000D+00  0.159595D+00  0.000000D+00
     15   0.000000D+00  0.000000D+00  0.000000D+00  0.256006D+00  0.000000D+00
     16   0.000000D+00  0.000000D+00  0.256006D+00  0.000000D+00  0.303920D+00
               551           552           553 
      1  -0.760391D+02 -0.759641D+02 -0.759641D+02
      2   0.000000D+00  0.000000D+00 -0.103675D+00
      3   0.000000D+00 -0.103675D+00  0.000000D+00
      4   0.000000D+00  0.000000D+00  0.000000D+00
      5   0.000000D+00  0.000000D+00  0.306243D+00
      6   0.000000D+00  0.306242D+00  0.000000D+00
      7   0.000000D+00  0.000000D+00  0.000000D+00
      8   0.000000D+00  0.000000D+00  0.000000D+00
      9   0.318508D+00  0.000000D+00  0.000000D+00
     10   0.000000D+00  0.000000D+00  0.000000D+00
     11   0.000000D+00  0.000000D+00  0.000000D+00
     12   0.000000D+00  0.000000D+00  0.000000D+00
     13   0.000000D+00  0.000000D+00  0.000000D+00
     14   0.187172D+00  0.000000D+00  0.000000D+00
     15   0.303920D+00  0.000000D+00  0.000000D+00
     16   0.000000D+00  0.000000D+00  0.000000D+00
 Unable to Open any file for archive entry.
 1\1\GINC-HEL12\SP\RB3LYP TD-FC\Gen\C2H6\SABYASACHI\21-Mar-2022\0\\#P T
 D(Nstates=10000) b3lyp/Gen SCF(maxcycles=100) Int(Grid=ultrafine)\\xGD
 B7_00001_tier4.com\\0,1\C,0,0.,0.,0.761397\C,0,0.,0.,-0.761397\H,0,0.,
 1.01711,1.157248\H,0,0.880843,-0.508555,1.157248\H,0,-0.880843,-0.5085
 55,1.157248\H,0,0.880843,0.508555,-1.157248\H,0,-0.880843,0.508555,-1.
 157248\H,0,0.,-1.01711,-1.157248\\Version=EM64L-G16RevC.01\State=1-A1G
 \HF=-79.776942\RMSD=2.031e-09\PG=D03D [C3(C1.C1),3SGD(H2)]\\@
 The archive entry for this job was punched.


 LOVE IS BLIND, THAT'S WHY ALL THE WORLD LOVES A LOUVER.
 Job cpu time:       0 days  0 hours  2 minutes 27.3 seconds.
 Elapsed time:       0 days  0 hours  0 minutes 18.7 seconds.
 File lengths (MBytes):  RWF=    401 Int=      0 D2E=      0 Chk=    102 Scr=      1
 Normal termination of Gaussian 16 at Mon Mar 21 19:57:04 2022.
