 Entering Gaussian System, Link 0=g16
 Input=000026.com
 Output=000026.log
 Initial command:
 /home/sabyasachi/g16/l1.exe "/scratch/sabyasachi/PBS_7976028.helios/Gau-41452.inp" -scrdir="/scratch/sabyasachi/PBS_7976028.helios/"
 Entering Link 1 = /home/sabyasachi/g16/l1.exe PID=     41453.
  
 Copyright (c) 1988-2019, Gaussian, Inc.  All Rights Reserved.
  
 This is part of the Gaussian(R) 16 program.  It is based on
 the Gaussian(R) 09 system (copyright 2009, Gaussian, Inc.),
 the Gaussian(R) 03 system (copyright 2003, Gaussian, Inc.),
 the Gaussian(R) 98 system (copyright 1998, Gaussian, Inc.),
 the Gaussian(R) 94 system (copyright 1995, Gaussian, Inc.),
 the Gaussian 92(TM) system (copyright 1992, Gaussian, Inc.),
 the Gaussian 90(TM) system (copyright 1990, Gaussian, Inc.),
 the Gaussian 88(TM) system (copyright 1988, Gaussian, Inc.),
 the Gaussian 86(TM) system (copyright 1986, Carnegie Mellon
 University), and the Gaussian 82(TM) system (copyright 1983,
 Carnegie Mellon University). Gaussian is a federally registered
 trademark of Gaussian, Inc.
  
 This software contains proprietary and confidential information,
 including trade secrets, belonging to Gaussian, Inc.
  
 This software is provided under written license and may be
 used, copied, transmitted, or stored only in accord with that
 written license.
  
 The following legend is applicable only to US Government
 contracts under FAR:
  
                    RESTRICTED RIGHTS LEGEND
  
 Use, reproduction and disclosure by the US Government is
 subject to restrictions as set forth in subparagraphs (a)
 and (c) of the Commercial Computer Software - Restricted
 Rights clause in FAR 52.227-19.
  
 Gaussian, Inc.
 340 Quinnipiac St., Bldg. 40, Wallingford CT 06492
  
  
 ---------------------------------------------------------------
 Warning -- This program may not be used in any manner that
 competes with the business of Gaussian, Inc. or will provide
 assistance to any competitor of Gaussian, Inc.  The licensee
 of this program is prohibited from giving any competitor of
 Gaussian, Inc. access to this program.  By using this program,
 the user acknowledges that Gaussian, Inc. is engaged in the
 business of creating and licensing software in the field of
 computational chemistry and represents and warrants to the
 licensee that it is not a competitor of Gaussian, Inc. and that
 it will not use this program in any manner prohibited above.
 ---------------------------------------------------------------
  

 Cite this work as:
 Gaussian 16, Revision C.01,
 M. J. Frisch, G. W. Trucks, H. B. Schlegel, G. E. Scuseria, 
 M. A. Robb, J. R. Cheeseman, G. Scalmani, V. Barone, 
 G. A. Petersson, H. Nakatsuji, X. Li, M. Caricato, A. V. Marenich, 
 J. Bloino, B. G. Janesko, R. Gomperts, B. Mennucci, H. P. Hratchian, 
 J. V. Ortiz, A. F. Izmaylov, J. L. Sonnenberg, D. Williams-Young, 
 F. Ding, F. Lipparini, F. Egidi, J. Goings, B. Peng, A. Petrone, 
 T. Henderson, D. Ranasinghe, V. G. Zakrzewski, J. Gao, N. Rega, 
 G. Zheng, W. Liang, M. Hada, M. Ehara, K. Toyota, R. Fukuda, 
 J. Hasegawa, M. Ishida, T. Nakajima, Y. Honda, O. Kitao, H. Nakai, 
 T. Vreven, K. Throssell, J. A. Montgomery, Jr., J. E. Peralta, 
 F. Ogliaro, M. J. Bearpark, J. J. Heyd, E. N. Brothers, K. N. Kudin, 
 V. N. Staroverov, T. A. Keith, R. Kobayashi, J. Normand, 
 K. Raghavachari, A. P. Rendell, J. C. Burant, S. S. Iyengar, 
 J. Tomasi, M. Cossi, J. M. Millam, M. Klene, C. Adamo, R. Cammi, 
 J. W. Ochterski, R. L. Martin, K. Morokuma, O. Farkas, 
 J. B. Foresman, and D. J. Fox, Gaussian, Inc., Wallingford CT, 2019.
 
 ******************************************
 Gaussian 16:  EM64L-G16RevC.01  3-Jul-2019
                21-Mar-2022 
 ******************************************
 %mem=64gb
 %nproc=8
 Will use up to    8 processors via shared memory.
 ---------------------------------------------------------------------
 #P TD(Nstates=10000) b3lyp/Gen SCF(maxcycles=100) Int(Grid=ultrafine)
 ---------------------------------------------------------------------
 1/38=1,172=1/1;
 2/12=2,17=6,18=5,40=1/2;
 3/5=7,11=9,25=1,30=1,74=-5,75=-5/1,2,3,8;
 4//1;
 5/5=2,7=100,38=5/2;
 8/6=1,10=1,108=10000/1;
 9/41=10000,42=1,70=2/14;
 6/7=2,8=2,9=2,10=2/1;
 99/5=1,9=1/99;
 Leave Link    1 at Mon Mar 21 19:59:28 2022, MaxMem=  8589934592 cpu:               0.4 elap:               0.1
 (Enter /home/sabyasachi/g16/l101.exe)
 ---------------------
 xGDB7_00001_tier4.com
 ---------------------
 Symbolic Z-matrix:
 Charge =  0 Multiplicity = 1
 8                    -1.0238   -0.43879   0. 
 6                     0.        0.41895   0. 
 8                     1.15299   0.10998   0. 
 1                    -0.65694  -1.33301   0. 
 1                    -0.3765    1.44977   0. 
 
 ITRead=  0  0  0  0  0
 MicOpt= -1 -1 -1 -1 -1
 NAtoms=      5 NQM=        5 NQMF=       0 NMMI=      0 NMMIF=      0
                NMic=       0 NMicF=      0.
                    Isotopes and Nuclear Properties:
 (Nuclear quadrupole moments (NQMom) in fm**2, nuclear magnetic moments (NMagM)
  in nuclear magnetons)

  Atom         1           2           3           4           5
 IAtWgt=          16          12          16           1           1
 AtmWgt=  15.9949146  12.0000000  15.9949146   1.0078250   1.0078250
 NucSpn=           0           0           0           1           1
 AtZEff=  -0.0000000  -0.0000000  -0.0000000  -0.0000000  -0.0000000
 NQMom=    0.0000000   0.0000000   0.0000000   0.0000000   0.0000000
 NMagM=    0.0000000   0.0000000   0.0000000   2.7928460   2.7928460
 AtZNuc=   8.0000000   6.0000000   8.0000000   1.0000000   1.0000000
 Leave Link  101 at Mon Mar 21 19:59:28 2022, MaxMem=  8589934592 cpu:               0.6 elap:               0.1
 (Enter /home/sabyasachi/g16/l202.exe)
                          Input orientation:                          
 ---------------------------------------------------------------------
 Center     Atomic      Atomic             Coordinates (Angstroms)
 Number     Number       Type             X           Y           Z
 ---------------------------------------------------------------------
      1          8           0       -1.023804   -0.438792    0.000000
      2          6           0        0.000000    0.418952    0.000000
      3          8           0        1.152985    0.109983    0.000000
      4          1           0       -0.656942   -1.333012    0.000000
      5          1           0       -0.376499    1.449770    0.000000
 ---------------------------------------------------------------------
                    Distance matrix (angstroms):
                    1          2          3          4          5
     1  O    0.000000
     2  C    1.335627   0.000000
     3  O    2.244897   1.193665   0.000000
     4  H    0.966549   1.871083   2.314751   0.000000
     5  H    1.996414   1.097423   2.033310   2.796878   0.000000
 Stoichiometry    CH2O2
 Framework group  CS[SG(CH2O2)]
 Deg. of freedom     7
 Full point group                 CS      NOp   2
 Largest Abelian subgroup         CS      NOp   2
 Largest concise Abelian subgroup C1      NOp   1
                         Standard orientation:                         
 ---------------------------------------------------------------------
 Center     Atomic      Atomic             Coordinates (Angstroms)
 Number     Number       Type             X           Y           Z
 ---------------------------------------------------------------------
      1          8           0       -1.023805   -0.438791    0.000000
      2          6           0       -0.000000    0.418952    0.000000
      3          8           0        1.152985    0.109982   -0.000000
      4          1           0       -0.656943   -1.333011    0.000000
      5          1           0       -0.376498    1.449770    0.000000
 ---------------------------------------------------------------------
 Rotational constants (GHZ):          78.3457848          12.2009615          10.5569106
 Leave Link  202 at Mon Mar 21 19:59:28 2022, MaxMem=  8589934592 cpu:               0.1 elap:               0.0
 (Enter /home/sabyasachi/g16/l301.exe)
 General basis read from cards:  (5D, 7F)
 Centers:       4      5
 S 3 1.00
     Exponent=  1.3010701000D+01 Coefficients=  1.9682158000D-02
     Exponent=  1.9622572000D+00 Coefficients=  1.3796524000D-01
     Exponent=  4.4453796000D-01 Coefficients=  4.7831935000D-01
 S 1 1.00
     Exponent=  1.2194962000D-01 Coefficients=  1.0000000000D+00
 P 1 1.00
     Exponent=  8.0000000000D-01 Coefficients=  1.0000000000D+00
 P 1 1.00
     Exponent=  1.1704099050D-01 Coefficients=  1.0000000000D+00
 ****
 Centers:       2
 S 5 1.00
     Exponent=  1.2384016938D+03 Coefficients=  5.4568832082D-03
     Exponent=  1.8629004992D+02 Coefficients=  4.0638409211D-02
     Exponent=  4.2251176346D+01 Coefficients=  1.8025593888D-01
     Exponent=  1.1676557932D+01 Coefficients=  4.6315121755D-01
     Exponent=  3.5930506482D+00 Coefficients=  4.4087173314D-01
 S 1 1.00
     Exponent=  4.0245147363D-01 Coefficients=  1.0000000000D+00
 S 1 1.00
     Exponent=  1.3090182668D-01 Coefficients=  1.0000000000D+00
 S 1 1.00
     Exponent=  6.7053540256D-02 Coefficients=  1.0000000000D+00
 P 3 1.00
     Exponent=  9.4680970621D+00 Coefficients=  3.8387871728D-02
     Exponent=  2.0103545142D+00 Coefficients=  2.1117025112D-01
     Exponent=  5.4771004707D-01 Coefficients=  5.1328172114D-01
 P 1 1.00
     Exponent=  1.5268613795D-01 Coefficients=  1.0000000000D+00
 D 1 1.00
     Exponent=  8.0000000000D-01 Coefficients=  1.0000000000D+00
 D 1 1.00
     Exponent=  1.1713185140D-01 Coefficients=  1.0000000000D+00
 ****
 Centers:       1      3
 S 5 1.00
     Exponent=  2.2661767785D+03 Coefficients= -5.3431809926D-03
     Exponent=  3.4087010191D+02 Coefficients= -3.9890039230D-02
     Exponent=  7.7363135167D+01 Coefficients= -1.7853911985D-01
     Exponent=  2.1479644940D+01 Coefficients= -4.6427684959D-01
     Exponent=  6.6589433124D+00 Coefficients= -4.4309745172D-01
 S 1 1.00
     Exponent=  8.0975975668D-01 Coefficients=  1.0000000000D+00
 S 1 1.00
     Exponent=  2.5530772234D-01 Coefficients=  1.0000000000D+00
 S 1 1.00
     Exponent=  7.6572453250D-02 Coefficients=  1.0000000000D+00
 P 3 1.00
     Exponent=  1.7721504317D+01 Coefficients=  4.3394573193D-02
     Exponent=  3.8635505440D+00 Coefficients=  2.3094120765D-01
     Exponent=  1.0480920883D+00 Coefficients=  5.1375311064D-01
 P 1 1.00
     Exponent=  2.7641544411D-01 Coefficients=  1.0000000000D+00
 P 1 1.00
     Exponent=  6.9002276350D-02 Coefficients=  1.0000000000D+00
 D 1 1.00
     Exponent=  1.2000000000D+00 Coefficients=  1.0000000000D+00
 D 1 1.00
     Exponent=  1.7992024323D-01 Coefficients=  1.0000000000D+00
 ****
 Ernie: Thresh=  0.10000D-02 Tol=  0.10000D-05 Strict=F.
 There are    64 symmetry adapted cartesian basis functions of A'  symmetry.
 There are    24 symmetry adapted cartesian basis functions of A"  symmetry.
 There are    58 symmetry adapted basis functions of A'  symmetry.
 There are    24 symmetry adapted basis functions of A"  symmetry.
    82 basis functions,   122 primitive gaussians,    88 cartesian basis functions
    12 alpha electrons       12 beta electrons
       nuclear repulsion energy        70.5741297168 Hartrees.
 IExCor=  402 DFT=T Ex+Corr=B3LYP ExCW=0 ScaHFX=  0.200000
 ScaDFX=  0.800000  0.720000  1.000000  0.810000 ScalE2=  1.000000  1.000000
 IRadAn=      5 IRanWt=     -1 IRanGd=            0 ICorTp=0 IEmpDi=  4
 NAtoms=    5 NActive=    5 NUniq=    5 SFac= 1.00D+00 NAtFMM=   60 NAOKFM=F Big=F
 Integral buffers will be    131072 words long.
 Regular integral format.
 Two-electron integral symmetry is turned on.
 Leave Link  301 at Mon Mar 21 19:59:28 2022, MaxMem=  8589934592 cpu:               0.5 elap:               0.1
 (Enter /home/sabyasachi/g16/l302.exe)
 NPDir=0 NMtPBC=     1 NCelOv=     1 NCel=       1 NClECP=     1 NCelD=      1
         NCelK=      1 NCelE2=     1 NClLst=     1 CellRange=     0.0.
 One-electron integrals computed using PRISM.
 One-electron integral symmetry used in STVInt
 NBasis=    82 RedAO= T EigKep=  3.68D-04  NBF=    58    24
 NBsUse=    82 1.00D-06 EigRej= -1.00D+00 NBFU=    58    24
 Precomputing XC quadrature grid using
 IXCGrd= 4 IRadAn=           5 IRanWt=          -1 IRanGd=           0 AccXCQ= 0.00D+00.
 Generated NRdTot=       0 NPtTot=           0 NUsed=           0 NTot=          32
 NSgBfM=    88    88    88    88    88 MxSgAt=     5 MxSgA2=     5.
 Leave Link  302 at Mon Mar 21 19:59:28 2022, MaxMem=  8589934592 cpu:               0.9 elap:               0.1
 (Enter /home/sabyasachi/g16/l303.exe)
 DipDrv:  MaxL=1.
 Leave Link  303 at Mon Mar 21 19:59:28 2022, MaxMem=  8589934592 cpu:               0.2 elap:               0.0
 (Enter /home/sabyasachi/g16/l308.exe)
 Leave Link  308 at Mon Mar 21 19:59:28 2022, MaxMem=  8589934592 cpu:               0.2 elap:               0.0
 (Enter /home/sabyasachi/g16/l401.exe)
 ExpMin= 6.71D-02 ExpMax= 2.27D+03 ExpMxC= 3.41D+02 IAcc=3 IRadAn=         5 AccDes= 0.00D+00
 Harris functional with IExCor=  402 and IRadAn=       5 diagonalized for initial guess.
 HarFok:  IExCor=  402 AccDes= 0.00D+00 IRadAn=         5 IDoV= 1 UseB2=F ITyADJ=14
 ICtDFT=  3500011 ScaDFX=  1.000000  1.000000  1.000000  1.000000
 FoFCou: FMM=F IPFlag=           0 FMFlag=      100000 FMFlg1=           0
         NFxFlg=           0 DoJE=T BraDBF=F KetDBF=T FulRan=T
         wScrn=  0.000000 ICntrl=       500 IOpCl=  0 I1Cent=   200000004 NGrid=           0
         NMat0=    1 NMatS0=      1 NMatT0=    0 NMatD0=    1 NMtDS0=    0 NMtDT0=    0
 Petite list used in FoFCou.
 Harris En= -189.649548395416    
 JPrj=0 DoOrth=F DoCkMO=F.
 Initial guess orbital symmetries:
       Occupied  (A') (A') (A') (A') (A') (A') (A') (A') (A") (A')
                 (A") (A')
       Virtual   (A") (A') (A') (A') (A") (A') (A') (A') (A") (A')
                 (A") (A') (A') (A') (A") (A') (A') (A') (A') (A")
                 (A') (A") (A') (A') (A') (A") (A') (A') (A') (A")
                 (A") (A') (A") (A') (A") (A') (A') (A') (A') (A')
                 (A') (A") (A") (A') (A') (A') (A") (A') (A') (A')
                 (A") (A') (A") (A') (A') (A') (A") (A') (A') (A')
                 (A") (A') (A") (A") (A') (A") (A') (A') (A') (A')
 The electronic state of the initial guess is 1-A'.
 Leave Link  401 at Mon Mar 21 19:59:29 2022, MaxMem=  8589934592 cpu:               1.6 elap:               0.2
 (Enter /home/sabyasachi/g16/l502.exe)
 Keep R1 ints in memory in symmetry-blocked form, NReq=13113352.
 FoFCou: FMM=F IPFlag=           0 FMFlag=           0 FMFlg1=           0
         NFxFlg=           0 DoJE=F BraDBF=F KetDBF=F FulRan=T
         wScrn=  0.000000 ICntrl=       600 IOpCl=  0 I1Cent=           0 NGrid=           0
         NMat0=    1 NMatS0=   3403 NMatT0=    0 NMatD0=    1 NMtDS0=    0 NMtDT0=    0
 Petite list used in FoFCou.
 Closed shell SCF:
 Using DIIS extrapolation, IDIIS=  1040.
 NGot=  8589934592 LenX=  8586916656 LenY=  8586908471
 Requested convergence on RMS density matrix=1.00D-08 within 100 cycles.
 Requested convergence on MAX density matrix=1.00D-06.
 Requested convergence on             energy=1.00D-06.
 No special actions if energy rises.
 Integral accuracy reduced to 1.0D-05 until final iterations.

 Cycle   1  Pass 0  IDiag  1:
 E= -189.556635273093    
 DIIS: error= 3.76D-02 at cycle   1 NSaved=   1.
 NSaved= 1 IEnMin= 1 EnMin= -189.556635273093     IErMin= 1 ErrMin= 3.76D-02
 ErrMax= 3.76D-02  0.00D+00 EMaxC= 1.00D-01 BMatC= 1.11D-01 BMatP= 1.11D-01
 IDIUse=3 WtCom= 6.24D-01 WtEn= 3.76D-01
 Coeff-Com:  0.100D+01
 Coeff-En:   0.100D+01
 Coeff:      0.100D+01
 Gap=     0.194 Goal=   None    Shift=    0.000
 GapD=    0.194 DampG=1.000 DampE=0.500 DampFc=0.5000 IDamp=-1.
 Damping current iteration by 5.00D-01
 RMSDP=9.18D-03 MaxDP=1.89D-01              OVMax= 2.40D-01

 Cycle   2  Pass 0  IDiag  1:
 E= -189.562523776696     Delta-E=       -0.005888503603 Rises=F Damp=T
 DIIS: error= 1.06D-02 at cycle   2 NSaved=   2.
 NSaved= 2 IEnMin= 2 EnMin= -189.562523776696     IErMin= 2 ErrMin= 1.06D-02
 ErrMax= 1.06D-02  0.00D+00 EMaxC= 1.00D-01 BMatC= 2.43D-02 BMatP= 1.11D-01
 IDIUse=3 WtCom= 8.94D-01 WtEn= 1.06D-01
 Coeff-Com:  0.295D+00 0.705D+00
 Coeff-En:   0.472D+00 0.528D+00
 Coeff:      0.314D+00 0.686D+00
 Gap=     0.284 Goal=   None    Shift=    0.000
 RMSDP=2.82D-03 MaxDP=4.78D-02 DE=-5.89D-03 OVMax= 1.62D-01

 Cycle   3  Pass 0  IDiag  1:
 E= -189.630325943709     Delta-E=       -0.067802167012 Rises=F Damp=F
 DIIS: error= 9.84D-03 at cycle   3 NSaved=   3.
 NSaved= 3 IEnMin= 3 EnMin= -189.630325943709     IErMin= 3 ErrMin= 9.84D-03
 ErrMax= 9.84D-03  0.00D+00 EMaxC= 1.00D-01 BMatC= 1.09D-02 BMatP= 2.43D-02
 IDIUse=3 WtCom= 9.02D-01 WtEn= 9.84D-02
 Coeff-Com:  0.152D+00 0.431D+00 0.418D+00
 Coeff-En:   0.000D+00 0.000D+00 0.100D+01
 Coeff:      0.137D+00 0.388D+00 0.475D+00
 Gap=     0.284 Goal=   None    Shift=    0.000
 RMSDP=1.16D-03 MaxDP=2.81D-02 DE=-6.78D-02 OVMax= 4.92D-02

 Cycle   4  Pass 0  IDiag  1:
 E= -189.637449214436     Delta-E=       -0.007123270728 Rises=F Damp=F
 DIIS: error= 3.65D-03 at cycle   4 NSaved=   4.
 NSaved= 4 IEnMin= 4 EnMin= -189.637449214436     IErMin= 4 ErrMin= 3.65D-03
 ErrMax= 3.65D-03  0.00D+00 EMaxC= 1.00D-01 BMatC= 1.81D-03 BMatP= 1.09D-02
 IDIUse=3 WtCom= 9.64D-01 WtEn= 3.65D-02
 Coeff-Com:  0.237D-01 0.919D-01 0.298D+00 0.587D+00
 Coeff-En:   0.000D+00 0.000D+00 0.165D+00 0.835D+00
 Coeff:      0.229D-01 0.886D-01 0.293D+00 0.596D+00
 Gap=     0.286 Goal=   None    Shift=    0.000
 RMSDP=3.91D-04 MaxDP=9.47D-03 DE=-7.12D-03 OVMax= 1.39D-02

 Cycle   5  Pass 0  IDiag  1:
 E= -189.638735743852     Delta-E=       -0.001286529416 Rises=F Damp=F
 DIIS: error= 6.35D-04 at cycle   5 NSaved=   5.
 NSaved= 5 IEnMin= 5 EnMin= -189.638735743852     IErMin= 5 ErrMin= 6.35D-04
 ErrMax= 6.35D-04  0.00D+00 EMaxC= 1.00D-01 BMatC= 5.16D-05 BMatP= 1.81D-03
 IDIUse=3 WtCom= 9.94D-01 WtEn= 6.35D-03
 Coeff-Com: -0.205D-03 0.811D-02 0.977D-01 0.272D+00 0.623D+00
 Coeff-En:   0.000D+00 0.000D+00 0.000D+00 0.000D+00 0.100D+01
 Coeff:     -0.204D-03 0.806D-02 0.971D-01 0.270D+00 0.625D+00
 Gap=     0.286 Goal=   None    Shift=    0.000
 RMSDP=8.35D-05 MaxDP=2.46D-03 DE=-1.29D-03 OVMax= 2.19D-03

 Cycle   6  Pass 0  IDiag  1:
 E= -189.638781935786     Delta-E=       -0.000046191934 Rises=F Damp=F
 DIIS: error= 1.13D-04 at cycle   6 NSaved=   6.
 NSaved= 6 IEnMin= 6 EnMin= -189.638781935786     IErMin= 6 ErrMin= 1.13D-04
 ErrMax= 1.13D-04  0.00D+00 EMaxC= 1.00D-01 BMatC= 1.67D-06 BMatP= 5.16D-05
 IDIUse=3 WtCom= 9.99D-01 WtEn= 1.13D-03
 Coeff-Com: -0.991D-03-0.215D-02 0.212D-01 0.648D-01 0.228D+00 0.690D+00
 Coeff-En:   0.000D+00 0.000D+00 0.000D+00 0.000D+00 0.000D+00 0.100D+01
 Coeff:     -0.990D-03-0.215D-02 0.211D-01 0.647D-01 0.227D+00 0.690D+00
 Gap=     0.286 Goal=   None    Shift=    0.000
 RMSDP=1.64D-05 MaxDP=3.14D-04 DE=-4.62D-05 OVMax= 3.34D-04

 Cycle   7  Pass 0  IDiag  1:
 E= -189.638783338269     Delta-E=       -0.000001402483 Rises=F Damp=F
 DIIS: error= 1.41D-05 at cycle   7 NSaved=   7.
 NSaved= 7 IEnMin= 7 EnMin= -189.638783338269     IErMin= 7 ErrMin= 1.41D-05
 ErrMax= 1.41D-05  0.00D+00 EMaxC= 1.00D-01 BMatC= 2.88D-08 BMatP= 1.67D-06
 IDIUse=1 WtCom= 1.00D+00 WtEn= 0.00D+00
 Coeff-Com: -0.473D-04-0.762D-03 0.229D-02 0.586D-02 0.304D-01 0.115D+00
 Coeff-Com:  0.847D+00
 Coeff:     -0.473D-04-0.762D-03 0.229D-02 0.586D-02 0.304D-01 0.115D+00
 Coeff:      0.847D+00
 Gap=     0.286 Goal=   None    Shift=    0.000
 RMSDP=2.46D-06 MaxDP=3.38D-05 DE=-1.40D-06 OVMax= 6.30D-05

 Initial convergence to 1.0D-05 achieved.  Increase integral accuracy.
 Cycle   8  Pass 1  IDiag  1:
 E= -189.638783831840     Delta-E=       -0.000000493571 Rises=F Damp=F
 DIIS: error= 2.88D-06 at cycle   1 NSaved=   1.
 NSaved= 1 IEnMin= 1 EnMin= -189.638783831840     IErMin= 1 ErrMin= 2.88D-06
 ErrMax= 2.88D-06  0.00D+00 EMaxC= 1.00D-01 BMatC= 1.15D-09 BMatP= 1.15D-09
 IDIUse=1 WtCom= 1.00D+00 WtEn= 0.00D+00
 Coeff-Com:  0.100D+01
 Coeff:      0.100D+01
 Gap=     0.287 Goal=   None    Shift=    0.000
 RMSDP=2.46D-06 MaxDP=3.38D-05 DE=-4.94D-07 OVMax= 2.62D-05

 Cycle   9  Pass 1  IDiag  1:
 E= -189.638783831803     Delta-E=        0.000000000037 Rises=F Damp=F
 DIIS: error= 3.98D-06 at cycle   2 NSaved=   2.
 NSaved= 2 IEnMin= 1 EnMin= -189.638783831840     IErMin= 1 ErrMin= 2.88D-06
 ErrMax= 3.98D-06  0.00D+00 EMaxC= 1.00D-01 BMatC= 1.82D-09 BMatP= 1.15D-09
 IDIUse=1 WtCom= 1.00D+00 WtEn= 0.00D+00
 Coeff-Com:  0.566D+00 0.434D+00
 Coeff:      0.566D+00 0.434D+00
 Gap=     0.286 Goal=   None    Shift=    0.000
 RMSDP=4.77D-07 MaxDP=1.34D-05 DE= 3.71D-11 OVMax= 2.14D-05

 Cycle  10  Pass 1  IDiag  1:
 E= -189.638783832962     Delta-E=       -0.000000001159 Rises=F Damp=F
 DIIS: error= 1.60D-06 at cycle   3 NSaved=   3.
 NSaved= 3 IEnMin= 3 EnMin= -189.638783832962     IErMin= 3 ErrMin= 1.60D-06
 ErrMax= 1.60D-06  0.00D+00 EMaxC= 1.00D-01 BMatC= 3.38D-10 BMatP= 1.15D-09
 IDIUse=1 WtCom= 1.00D+00 WtEn= 0.00D+00
 Coeff-Com:  0.155D+00 0.303D+00 0.542D+00
 Coeff:      0.155D+00 0.303D+00 0.542D+00
 Gap=     0.287 Goal=   None    Shift=    0.000
 RMSDP=1.96D-07 MaxDP=3.21D-06 DE=-1.16D-09 OVMax= 5.80D-06

 Cycle  11  Pass 1  IDiag  1:
 E= -189.638783833213     Delta-E=       -0.000000000251 Rises=F Damp=F
 DIIS: error= 2.41D-07 at cycle   4 NSaved=   4.
 NSaved= 4 IEnMin= 4 EnMin= -189.638783833213     IErMin= 4 ErrMin= 2.41D-07
 ErrMax= 2.41D-07  0.00D+00 EMaxC= 1.00D-01 BMatC= 5.64D-12 BMatP= 3.38D-10
 IDIUse=1 WtCom= 1.00D+00 WtEn= 0.00D+00
 Coeff-Com: -0.648D-02 0.672D-01 0.165D+00 0.775D+00
 Coeff:     -0.648D-02 0.672D-01 0.165D+00 0.775D+00
 Gap=     0.287 Goal=   None    Shift=    0.000
 RMSDP=5.37D-08 MaxDP=8.88D-07 DE=-2.51D-10 OVMax= 9.20D-07

 Cycle  12  Pass 1  IDiag  1:
 E= -189.638783833220     Delta-E=       -0.000000000006 Rises=F Damp=F
 DIIS: error= 6.39D-08 at cycle   5 NSaved=   5.
 NSaved= 5 IEnMin= 5 EnMin= -189.638783833220     IErMin= 5 ErrMin= 6.39D-08
 ErrMax= 6.39D-08  0.00D+00 EMaxC= 1.00D-01 BMatC= 7.47D-13 BMatP= 5.64D-12
 IDIUse=1 WtCom= 1.00D+00 WtEn= 0.00D+00
 Coeff-Com: -0.108D-01 0.143D-01 0.381D-01 0.340D+00 0.619D+00
 Coeff:     -0.108D-01 0.143D-01 0.381D-01 0.340D+00 0.619D+00
 Gap=     0.287 Goal=   None    Shift=    0.000
 RMSDP=8.92D-09 MaxDP=1.65D-07 DE=-6.48D-12 OVMax= 2.14D-07

 SCF Done:  E(RB3LYP) =  -189.638783833     A.U. after   12 cycles
            NFock= 12  Conv=0.89D-08     -V/T= 2.0082
 KE= 1.880994582264D+02 PE=-5.866639847426D+02 EE= 1.383516129661D+02
 Leave Link  502 at Mon Mar 21 19:59:30 2022, MaxMem=  8589934592 cpu:               6.8 elap:               0.9
 (Enter /home/sabyasachi/g16/l801.exe)
 DoSCS=F DFT=T ScalE2(SS,OS)=  1.000000  1.000000
 ExpMin= 6.71D-02 ExpMax= 2.27D+03 ExpMxC= 3.41D+02 IAcc=3 IRadAn=         5 AccDes= 0.00D+00
 HarFok:  IExCor=  205 AccDes= 0.00D+00 IRadAn=         5 IDoV=-2 UseB2=F ITyADJ=14
 ICtDFT= 12500011 ScaDFX=  1.000000  1.000000  1.000000  1.000000
 Largest valence mixing into a core orbital is  7.07D-05
 Largest core mixing into a valence orbital is  1.23D-05
 Range of M.O.s used for correlation:     4    82
 NBasis=    82 NAE=    12 NBE=    12 NFC=     3 NFV=     0
 NROrb=     79 NOA=     9 NOB=     9 NVA=    70 NVB=    70

 **** Warning!!: The largest alpha MO coefficient is  0.16428895D+02

 Leave Link  801 at Mon Mar 21 19:59:30 2022, MaxMem=  8589934592 cpu:               0.4 elap:               0.1
 (Enter /home/sabyasachi/g16/l914.exe)
 RHF ground state
 Keep R1, R2, and R3 ints in memory in symmetry-blocked form, NReq=426857000.
 FoFCou: FMM=F IPFlag=           0 FMFlag=           0 FMFlg1=           0
         NFxFlg=           0 DoJE=F BraDBF=F KetDBF=F FulRan=T
         wScrn=  0.000000 ICntrl=       600 IOpCl=  0 I1Cent=           0 NGrid=           0
         NMat0=    1 NMatS0=   3403 NMatT0=    0 NMatD0=    1 NMtDS0=    0 NMtDT0=    0
 Petite list used in FoFCou.
 MDV=  8589934592 DFT=T DoStab=F Mixed=T DoRPA=T DoScal=F NonHer=T
 Making orbital integer symmetry assigments:
 Orbital symmetries:
       Occupied  (A') (A') (A') (A') (A') (A') (A') (A') (A") (A')
                 (A") (A')
       Virtual   (A") (A') (A') (A') (A") (A') (A') (A') (A") (A')
                 (A") (A') (A') (A") (A') (A') (A') (A') (A") (A')
                 (A') (A") (A') (A') (A') (A") (A') (A') (A') (A")
                 (A") (A') (A") (A') (A") (A') (A') (A') (A') (A')
                 (A') (A") (A") (A') (A') (A") (A') (A') (A") (A')
                 (A') (A') (A") (A') (A') (A") (A') (A') (A') (A')
                 (A") (A') (A") (A") (A') (A") (A') (A') (A') (A')
   630 initial guesses have been made.
 Convergence on wavefunction:    0.001000000000000
 Davidson Disk Diagonalization:  ConvIn= 1.00D-03 SkipCon=T Conv= 1.00D-03.
 Max sub-space:  3780 roots to seek:  1260 dimension of matrix:         1260
 *** WARNING: Number of orthogonal guesses is          630
 Iteration     1 Dimension   630 NMult     0 NNew    630
 CISAX will form   630 AO SS matrices at one time.
 NMat=   630 NSing=   630 JSym2X=-1.
 New state      3 was old state      4
 New state      4 was old state      5
 New state      5 was old state      3
 New state      6 was old state      9
 New state      7 was old state      6
 New state      8 was old state      7
 New state      9 was old state      8
 New state     16 was old state     17
 New state     17 was old state     19
 New state     19 was old state     22
 New state     20 was old state     16
 New state     22 was old state     20
 New state     25 was old state     31
 New state     27 was old state     25
 New state     28 was old state     30
 New state     29 was old state     28
 New state     30 was old state     29
 New state     31 was old state     27
 New state     40 was old state     43
 New state     42 was old state     40
 New state     43 was old state     42
 New state     45 was old state     46
 New state     46 was old state     45
 New state     47 was old state     48
 New state     48 was old state     47
 New state     50 was old state     51
 New state     51 was old state     53
 New state     52 was old state     50
 New state     53 was old state     52
 New state     54 was old state     57
 New state     55 was old state     54
 New state     56 was old state     58
 New state     57 was old state     63
 New state     58 was old state     56
 New state     61 was old state     55
 New state     63 was old state     61
 New state     67 was old state     68
 New state     68 was old state     67
 New state     73 was old state     74
 New state     74 was old state     75
 New state     75 was old state     73
 New state     77 was old state     78
 New state     78 was old state     80
 New state     80 was old state     77
 New state     82 was old state     83
 New state     83 was old state     87
 New state     84 was old state     86
 New state     85 was old state     84
 New state     86 was old state     89
 New state     87 was old state     85
 New state     88 was old state     91
 New state     89 was old state     93
 New state     91 was old state     88
 New state     92 was old state     94
 New state     93 was old state     92
 New state     94 was old state     95
 New state     95 was old state     96
 New state     96 was old state     99
 New state     97 was old state    100
 New state     98 was old state    101
 New state     99 was old state     97
 New state    100 was old state     98
 New state    101 was old state    102
 New state    102 was old state    106
 New state    103 was old state    104
 New state    104 was old state    105
 New state    105 was old state    103
 New state    106 was old state    111
 New state    107 was old state    109
 New state    108 was old state    113
 New state    109 was old state    110
 New state    110 was old state    112
 New state    111 was old state    108
 New state    112 was old state    107
 New state    113 was old state    115
 New state    115 was old state    121
 New state    116 was old state    118
 New state    118 was old state    119
 New state    119 was old state    123
 New state    120 was old state    124
 New state    121 was old state    120
 New state    122 was old state    126
 New state    123 was old state    116
 New state    124 was old state    122
 New state    125 was old state    129
 New state    126 was old state    128
 New state    127 was old state    135
 New state    128 was old state    125
 New state    129 was old state    131
 New state    130 was old state    127
 New state    131 was old state    132
 New state    132 was old state    130
 New state    134 was old state    136
 New state    135 was old state    138
 New state    136 was old state    137
 New state    137 was old state    140
 New state    138 was old state    139
 New state    139 was old state    134
 New state    140 was old state    141
 New state    141 was old state    145
 New state    143 was old state    144
 New state    144 was old state    143
 New state    145 was old state    148
 New state    147 was old state    151
 New state    148 was old state    147
 New state    149 was old state    153
 New state    150 was old state    152
 New state    151 was old state    150
 New state    152 was old state    154
 New state    153 was old state    156
 New state    154 was old state    155
 New state    155 was old state    157
 New state    156 was old state    160
 New state    157 was old state    159
 New state    158 was old state    149
 New state    159 was old state    158
 New state    160 was old state    163
 New state    161 was old state    165
 New state    163 was old state    161
 New state    164 was old state    166
 New state    165 was old state    164
 New state    166 was old state    178
 New state    168 was old state    169
 New state    169 was old state    168
 New state    171 was old state    173
 New state    172 was old state    171
 New state    173 was old state    176
 New state    176 was old state    172
 New state    178 was old state    181
 New state    181 was old state    184
 New state    182 was old state    187
 New state    183 was old state    185
 New state    184 was old state    182
 New state    185 was old state    186
 New state    186 was old state    190
 New state    187 was old state    183
 New state    189 was old state    191
 New state    190 was old state    192
 New state    191 was old state    193
 New state    192 was old state    189
 New state    193 was old state    197
 New state    194 was old state    201
 New state    195 was old state    196
 New state    196 was old state    195
 New state    197 was old state    198
 New state    198 was old state    194
 New state    199 was old state    200
 New state    200 was old state    204
 New state    201 was old state    203
 New state    202 was old state    206
 New state    203 was old state    205
 New state    204 was old state    208
 New state    205 was old state    207
 New state    206 was old state    202
 New state    207 was old state    209
 New state    208 was old state    211
 New state    209 was old state    212
 New state    210 was old state    214
 New state    211 was old state    210
 New state    212 was old state    215
 New state    214 was old state    216
 New state    215 was old state    219
 New state    216 was old state    220
 New state    219 was old state    228
 New state    220 was old state    223
 New state    222 was old state    226
 New state    223 was old state    225
 New state    224 was old state    227
 New state    225 was old state    222
 New state    226 was old state    224
 New state    227 was old state    231
 New state    228 was old state    229
 New state    229 was old state    230
 New state    230 was old state    232
 New state    231 was old state    235
 New state    232 was old state    233
 New state    233 was old state    234
 New state    234 was old state    240
 New state    235 was old state    245
 New state    236 was old state    242
 New state    238 was old state    239
 New state    239 was old state    241
 New state    240 was old state    248
 New state    241 was old state    238
 New state    242 was old state    236
 New state    245 was old state    256
 New state    246 was old state    247
 New state    247 was old state    246
 New state    248 was old state    249
 New state    249 was old state    252
 New state    251 was old state    253
 New state    252 was old state    254
 New state    253 was old state    258
 New state    254 was old state    257
 New state    255 was old state    251
 New state    256 was old state    255
 New state    257 was old state    261
 New state    258 was old state    260
 New state    259 was old state    262
 New state    260 was old state    263
 New state    261 was old state    259
 New state    262 was old state    267
 No map to state    263
 New state    267 was old state    268
 New state    268 was old state    269
 New state    269 was old state    273
 No map to state    270
 New state    272 was old state    270
 New state    273 was old state    272
 New state    274 was old state    275
 New state    275 was old state    277
 New state    276 was old state    274
 New state    277 was old state    282
 New state    278 was old state    276
 New state    279 was old state    278
 New state    281 was old state    279
 New state    282 was old state    281
 New state    283 was old state    288
 New state    284 was old state    283
 New state    285 was old state    287
 New state    286 was old state    285
 New state    287 was old state    286
 New state    288 was old state    290
 New state    289 was old state    284
 New state    290 was old state    292
 New state    291 was old state    289
 New state    292 was old state    291
 New state    293 was old state    296
 New state    295 was old state    293
 New state    296 was old state    295
 New state    298 was old state    299
 New state    299 was old state    298
 New state    300 was old state    302
 New state    301 was old state    300
 New state    302 was old state    301
 New state    303 was old state    305
 New state    304 was old state    307
 New state    305 was old state    304
 New state    307 was old state    309
 New state    308 was old state    313
 New state    309 was old state    308
 New state    311 was old state    312
 New state    312 was old state    311
 New state    313 was old state    314
 New state    314 was old state    315
 New state    315 was old state    323
 New state    316 was old state    317
 New state    317 was old state    318
 New state    318 was old state    319
 New state    319 was old state    316
 New state    323 was old state    324
 New state    324 was old state    328
 New state    328 was old state    329
 New state    329 was old state    331
 New state    331 was old state    332
 New state    332 was old state    333
 New state    333 was old state    340
 New state    336 was old state    338
 New state    338 was old state    339
 New state    339 was old state    336
 New state    340 was old state    341
 New state    341 was old state    342
 New state    342 was old state    348
 New state    344 was old state    345
 New state    345 was old state    347
 New state    346 was old state    344
 New state    347 was old state    346
 New state    348 was old state    349
 New state    349 was old state    351
 New state    351 was old state    352
 New state    352 was old state    354
 New state    353 was old state    358
 New state    354 was old state    353
 New state    357 was old state    359
 New state    358 was old state    357
 New state    359 was old state    360
 New state    360 was old state    363
 New state    361 was old state    362
 New state    362 was old state    361
 New state    363 was old state    366
 New state    364 was old state    375
 New state    365 was old state    364
 New state    366 was old state    367
 New state    367 was old state    365
 New state    369 was old state    371
 New state    370 was old state    369
 New state    371 was old state    370
 New state    375 was old state    377
 New state    376 was old state    378
 New state    377 was old state    380
 New state    378 was old state    376
 New state    380 was old state    381
 New state    381 was old state    383
 New state    383 was old state    387
 New state    384 was old state    385
 New state    385 was old state    386
 New state    386 was old state    384
 New state    387 was old state    391
 New state    389 was old state    390
 New state    390 was old state    392
 New state    391 was old state    398
 New state    392 was old state    396
 New state    393 was old state    394
 New state    394 was old state    393
 New state    396 was old state    397
 New state    397 was old state    402
 New state    398 was old state    399
 New state    399 was old state    400
 New state    400 was old state    404
 New state    402 was old state    407
 New state    403 was old state    406
 New state    404 was old state    403
 New state    406 was old state    410
 New state    407 was old state    408
 New state    408 was old state    412
 New state    410 was old state    411
 New state    411 was old state    415
 New state    412 was old state    414
 New state    414 was old state    416
 New state    415 was old state    419
 New state    416 was old state    418
 New state    418 was old state    420
 New state    419 was old state    421
 New state    420 was old state    422
 New state    421 was old state    424
 New state    422 was old state    423
 New state    423 was old state    425
 New state    424 was old state    426
 New state    425 was old state    427
 New state    426 was old state    430
 New state    427 was old state    428
 New state    428 was old state    431
 New state    430 was old state    446
 New state    431 was old state    432
 New state    432 was old state    433
 New state    433 was old state    434
 New state    434 was old state    435
 New state    435 was old state    436
 No map to state    436
 New state    437 was old state    438
 New state    438 was old state    440
 New state    439 was old state    437
 New state    440 was old state    441
 New state    441 was old state    442
 New state    442 was old state    439
 New state    443 was old state    444
 New state    444 was old state    443
 New state    446 was old state    447
 New state    447 was old state    448
 New state    448 was old state    449
 New state    449 was old state    450
 New state    450 was old state    451
 New state    451 was old state    456
 New state    453 was old state    454
 New state    454 was old state    455
 New state    455 was old state    453
 New state    456 was old state    457
 New state    457 was old state    458
 New state    458 was old state    462
 New state    460 was old state    463
 New state    461 was old state    460
 New state    462 was old state    461
 New state    463 was old state    464
 New state    464 was old state    467
 New state    467 was old state    468
 New state    468 was old state    477
 New state    469 was old state    470
 New state    470 was old state    469
 New state    476 was old state    478
 New state    477 was old state    479
 New state    478 was old state    476
 New state    479 was old state    480
 New state    480 was old state    481
 New state    481 was old state    487
 New state    484 was old state    485
 New state    485 was old state    484
 New state    486 was old state    488
 New state    487 was old state    486
 New state    488 was old state    490
 No map to state    490
 New state    495 was old state    496
 New state    496 was old state    495
 New state    497 was old state    498
 New state    498 was old state    497
 New state    501 was old state    502
 New state    502 was old state    501
 New state    505 was old state    506
 New state    506 was old state    505
 New state    513 was old state    515
 New state    514 was old state    513
 New state    515 was old state    514
 New state    519 was old state    520
 New state    520 was old state    519
 New state    524 was old state    525
 New state    525 was old state    524
 New state    533 was old state    536
 New state    536 was old state    537
 New state    537 was old state    540
 New state    538 was old state    541
 New state    540 was old state    545
 New state    541 was old state    542
 New state    542 was old state    538
 New state    543 was old state    546
 New state    544 was old state    543
 New state    545 was old state    544
 New state    546 was old state    547
 New state    547 was old state    533
 New state    548 was old state    551
 New state    551 was old state    552
 New state    552 was old state    548
 New state    556 was old state    557
 New state    557 was old state    556
 New state    558 was old state    559
 New state    559 was old state    563
 New state    560 was old state    558
 New state    562 was old state    560
 New state    563 was old state    562
 New state    564 was old state    565
 New state    565 was old state    564
 New state    566 was old state    567
 New state    567 was old state    568
 New state    568 was old state    570
 New state    569 was old state    566
 New state    570 was old state    569
 New state    572 was old state    573
 New state    573 was old state    572
 New state    574 was old state    575
 New state    575 was old state    574
 New state    576 was old state    577
 New state    577 was old state    578
 New state    578 was old state    576
 New state    580 was old state    581
 New state    581 was old state    580
 New state    586 was old state    587
 New state    587 was old state    586
 New state    595 was old state    596
 New state    596 was old state    595
 New state    600 was old state    601
 New state    601 was old state    600
 New state    603 was old state    604
 New state    604 was old state    603
 New state    608 was old state    609
 New state    609 was old state    608
 New state    612 was old state    614
 New state    613 was old state    612
 New state    614 was old state    613
 New state    621 was old state    623
 New state    622 was old state    621
 New state    623 was old state    622
 Excitation Energies [eV] at current iteration:
 Root      1 :     5.838497313600541
 Root      2 :     7.584403949161056
 Root      3 :     8.347440514011467
 Root      4 :     8.528693301706914
 Root      5 :     8.701968957631694
 Root      6 :     9.190758498046883
 Root      7 :     9.493287677325531
 Root      8 :     9.620289712610493
 Root      9 :     9.639706546958724
 Root     10 :    10.364692978368910
 Root     11 :    10.591196371944030
 Root     12 :    10.688734368413400
 Root     13 :    10.746864328120330
 Root     14 :    10.903780993115120
 Root     15 :    11.033322736338970
 Root     16 :    11.277262279719090
 Root     17 :    11.318129871015350
 Root     18 :    11.476065122930530
 Root     19 :    11.527654694798860
 Root     20 :    11.759317071280460
 Root     21 :    11.767049042240730
 Root     22 :    11.931079352651970
 Root     23 :    12.006965223174650
 Root     24 :    12.183775534511810
 Root     25 :    12.283459873766020
 Root     26 :    12.437723287207140
 Root     27 :    12.561284562421950
 Root     28 :    12.687303904490440
 Root     29 :    12.707638630091280
 Root     30 :    12.724562389513900
 Root     31 :    12.876475193694640
 Root     32 :    13.058843938321770
 Root     33 :    13.141319736315650
 Root     34 :    13.489135163187990
 Root     35 :    13.628048317355950
 Root     36 :    13.710776522077530
 Root     37 :    13.867301637446450
 Root     38 :    13.887763838200810
 Root     39 :    13.951293897034250
 Root     40 :    14.116114500574390
 Root     41 :    14.155557572563240
 Root     42 :    14.189562474390230
 Root     43 :    14.284351678202430
 Root     44 :    14.376828649531190
 Root     45 :    14.677807983641360
 Root     46 :    14.740100572215380
 Root     47 :    14.852437070592910
 Root     48 :    14.855310608498850
 Root     49 :    14.972204822959430
 Root     50 :    15.133538667165690
 Root     51 :    15.140271100577410
 Root     52 :    15.140883688128230
 Root     53 :    15.168192055238810
 Root     54 :    15.525249974671150
 Root     55 :    15.555647600685580
 Root     56 :    15.639946281686420
 Root     57 :    15.699159558368880
 Root     58 :    15.702379805727580
 Root     59 :    15.872126296624190
 Root     60 :    15.879271647817500
 Root     61 :    15.933273918439780
 Root     62 :    15.982387436590970
 Root     63 :    16.028059200108170
 Root     64 :    16.176839095408260
 Root     65 :    16.375341237891990
 Root     66 :    16.409742460637660
 Root     67 :    16.437536268730660
 Root     68 :    16.551679200123240
 Root     69 :    16.582021496032810
 Root     70 :    16.655418075903970
 Root     71 :    16.759008633722810
 Root     72 :    16.841259445376530
 Root     73 :    16.944247567826280
 Root     74 :    17.009564232824650
 Root     75 :    17.056503474779970
 Root     76 :    17.224254591213470
 Root     77 :    17.268093118387460
 Root     78 :    17.333973191383500
 Root     79 :    17.435446623207860
 Root     80 :    17.472399731846480
 Root     81 :    17.621344969252150
 Root     82 :    17.634800113289980
 Root     83 :    17.644840978433570
 Root     84 :    17.740265329958980
 Root     85 :    17.874011339448270
 Root     86 :    17.888052379793270
 Root     87 :    17.954191669498480
 Root     88 :    18.102242300872150
 Root     89 :    18.133069276715040
 Root     90 :    18.202844802042980
 Root     91 :    18.348092829620820
 Root     92 :    18.379606057515180
 Root     93 :    18.481692195567800
 Root     94 :    18.601414418217940
 Root     95 :    18.623855012713190
 Root     96 :    18.910268250470600
 Root     97 :    18.972651941471530
 Root     98 :    19.124661835287640
 Root     99 :    19.233659351256350
 Root    100 :    19.331502478224390
 Root    101 :    19.374516323433250
 Root    102 :    19.460709675290740
 Root    103 :    19.646731743310540
 Root    104 :    19.725150365813700
 Root    105 :    19.726922311183320
 Root    106 :    19.777201095788360
 Root    107 :    19.948941421593260
 Root    108 :    20.022318756067690
 Root    109 :    20.037876184693270
 Root    110 :    20.056297780168430
 Root    111 :    20.136000472657630
 Root    112 :    20.151027015980070
 Root    113 :    20.320354354451460
 Root    114 :    20.427402763997690
 Root    115 :    20.449033788372920
 Root    116 :    20.811390651383700
 Root    117 :    20.849090602666150
 Root    118 :    20.899858162427890
 Root    119 :    20.963363547649920
 Root    120 :    20.969638645730700
 Root    121 :    21.023951285057850
 Root    122 :    21.159593953639600
 Root    123 :    21.173872783563850
 Root    124 :    21.305016448073990
 Root    125 :    21.314099585876350
 Root    126 :    21.330684970904500
 Root    127 :    21.426911870945260
 Root    128 :    21.490616165090200
 Root    129 :    21.510026142363840
 Root    130 :    21.546038889507880
 Root    131 :    21.694783963613700
 Root    132 :    21.771189570604130
 Root    133 :    21.904530564484230
 Root    134 :    22.029532454246780
 Root    135 :    22.119146006669490
 Root    136 :    22.150604300234220
 Root    137 :    22.153857022263500
 Root    138 :    22.202826982805700
 Root    139 :    22.230080103634010
 Root    140 :    22.373977120899880
 Root    141 :    22.482996531555760
 Root    142 :    22.484879973650730
 Root    143 :    22.615896218608220
 Root    144 :    22.824475629826940
 Root    145 :    22.989516378825910
 Root    146 :    23.008227905796300
 Root    147 :    23.084683998751550
 Root    148 :    23.130281686093430
 Root    149 :    23.201606381568880
 Root    150 :    23.201699722021950
 Root    151 :    23.331071273967030
 Root    152 :    23.351464355961040
 Root    153 :    23.533707040832280
 Root    154 :    23.539372758710210
 Root    155 :    23.684606094816770
 Root    156 :    23.875375946276680
 Root    157 :    23.927736393494640
 Root    158 :    24.138742244259310
 Root    159 :    24.202747810545400
 Root    160 :    24.265274067988160
 Root    161 :    24.290746408078760
 Root    162 :    24.308660146078640
 Root    163 :    24.404189711021960
 Root    164 :    24.449777870203220
 Root    165 :    24.560769715714160
 Root    166 :    24.723393388283170
 Root    167 :    24.815291660332670
 Root    168 :    24.842843757714300
 Root    169 :    24.902156192945610
 Root    170 :    24.949971910251450
 Root    171 :    25.186579471239880
 Root    172 :    25.186832040425550
 Root    173 :    25.310095828002300
 Root    174 :    25.379310925043950
 Root    175 :    25.401997420387380
 Root    176 :    25.445589896026570
 Root    177 :    25.478788958603830
 Root    178 :    25.653709995639880
 Root    179 :    25.678728618255380
 Root    180 :    25.811488724945820
 Root    181 :    25.871278799758650
 Root    182 :    25.967640510844220
 Root    183 :    26.041152994040570
 Root    184 :    26.093539077777730
 Root    185 :    26.133524983381750
 Root    186 :    26.224419949407810
 Root    187 :    26.278799902466680
 Root    188 :    26.410491288712240
 Root    189 :    26.490577047194560
 Root    190 :    26.523894886947690
 Root    191 :    26.615476212552410
 Root    192 :    26.670235610446860
 Root    193 :    26.794902084151910
 Root    194 :    26.854921625866560
 Root    195 :    26.905346058324410
 Root    196 :    26.993710304088340
 Root    197 :    27.033313014232820
 Root    198 :    27.100704721240110
 Root    199 :    27.163412901904900
 Root    200 :    27.215587634134830
 Root    201 :    27.237172455321720
 Root    202 :    27.328287329724000
 Root    203 :    27.402508678827010
 Root    204 :    27.442803900994130
 Root    205 :    27.533461009355210
 Root    206 :    27.651427196978850
 Root    207 :    27.724821669896840
 Root    208 :    27.891356315628360
 Root    209 :    27.939042987633360
 Root    210 :    28.059781591049040
 Root    211 :    28.124686661222700
 Root    212 :    28.329974676655130
 Root    213 :    28.380225948843360
 Root    214 :    28.476542113123480
 Root    215 :    28.490812029240640
 Root    216 :    28.557970596633500
 Root    217 :    28.640047614327340
 Root    218 :    28.681789670774790
 Root    219 :    28.840625932349390
 Root    220 :    28.923125327967470
 Root    221 :    28.941647084326720
 Root    222 :    29.060121555872230
 Root    223 :    29.232852181367850
 Root    224 :    29.259610037072550
 Root    225 :    29.370026825211090
 Root    226 :    29.445014802655180
 Root    227 :    29.535076854187820
 Root    228 :    29.541727744235860
 Root    229 :    29.596272203622440
 Root    230 :    29.745006232254240
 Root    231 :    29.785837474334540
 Root    232 :    29.844358981146020
 Root    233 :    29.940998755090270
 Root    234 :    30.203421612608130
 Root    235 :    30.329297698625710
 Root    236 :    30.429073607714630
 Root    237 :    30.474375007313760
 Root    238 :    30.532393448907930
 Root    239 :    30.553911917384650
 Root    240 :    30.632377375896790
 Root    241 :    30.674507579555660
 Root    242 :    30.686439797959330
 Root    243 :    30.780671652895360
 Root    244 :    30.887352632687820
 Root    245 :    31.006896547571650
 Root    246 :    31.061247863111550
 Root    247 :    31.177912156726600
 Root    248 :    31.255176999787900
 Root    249 :    31.304277859296380
 Root    250 :    31.465906668019190
 Root    251 :    31.529148696288590
 Root    252 :    31.586108320371280
 Root    253 :    31.663664207297010
 Root    254 :    31.781223493097060
 Root    255 :    31.841365528852040
 Root    256 :    31.880218906199030
 Root    257 :    31.914725884563980
 Root    258 :    32.032257109617520
 Root    259 :    32.044221392849030
 Root    260 :    32.146121976344610
 Root    261 :    32.260614766838880
 Root    262 :    32.372377890810740
 Root    263 :    32.472644786895370
 Root    264 :    32.539816030840040
 Root    265 :    32.633054046964270
 Root    266 :    32.822638911385570
 Root    267 :    33.018671893310750
 Root    268 :    33.037949001488630
 Root    269 :    33.391311381552090
 Root    270 :    33.432499288409530
 Root    271 :    33.480056392292380
 Root    272 :    33.619332292160890
 Root    273 :    33.809478264505840
 Root    274 :    34.192595911136180
 Root    275 :    34.306660937727130
 Root    276 :    34.321380927623090
 Root    277 :    34.497380466035960
 Root    278 :    34.543991132489510
 Root    279 :    34.673826772149260
 Root    280 :    34.722017056541150
 Root    281 :    34.748009645672770
 Root    282 :    35.041721199539100
 Root    283 :    35.145772292757090
 Root    284 :    35.223053532331330
 Root    285 :    35.406836875467990
 Root    286 :    35.431508318212030
 Root    287 :    35.533481163352060
 Root    288 :    35.591428740305570
 Root    289 :    35.662345715214380
 Root    290 :    36.105018557342850
 Root    291 :    36.181468806045020
 Root    292 :    36.242910943154170
 Root    293 :    36.250595721600040
 Root    294 :    36.262701253594940
 Root    295 :    36.369840882858750
 Root    296 :    36.591454433007050
 Root    297 :    36.664049300752090
 Root    298 :    36.761010520716810
 Root    299 :    36.848598877260660
 Root    300 :    36.928363861027230
 Root    301 :    37.010625289859990
 Root    302 :    37.133287303758540
 Root    303 :    37.209010890658830
 Root    304 :    37.791894073556730
 Root    305 :    37.806854593278680
 Root    306 :    38.036181681184960
 Root    307 :    38.167101509993910
 Root    308 :    38.502809842173130
 Root    309 :    38.661437582725520
 Root    310 :    38.731553178327010
 Root    311 :    38.910338404560200
 Root    312 :    38.912659238461060
 Root    313 :    39.108285376228740
 Root    314 :    39.198650088940770
 Root    315 :    39.354918208785100
 Root    316 :    39.500637592701420
 Root    317 :    39.796298427277570
 Root    318 :    39.827077090212630
 Root    319 :    40.022565828312050
 Root    320 :    40.333499814888900
 Root    321 :    40.484131860081250
 Root    322 :    40.686794509851450
 Root    323 :    41.098873838612310
 Root    324 :    41.263589847743700
 Root    325 :    41.267149692913950
 Root    326 :    41.481020981511750
 Root    327 :    41.485983351072360
 Root    328 :    41.560562342578190
 Root    329 :    41.734411766049490
 Root    330 :    41.848337458202060
 Root    331 :    41.965559002452860
 Root    332 :    42.235612169094690
 Root    333 :    42.395152980293450
 Root    334 :    42.751960285550580
 Root    335 :    42.823829844573590
 Root    336 :    42.909770385039130
 Root    337 :    43.027684953112370
 Root    338 :    43.319223416817050
 Root    339 :    43.573152065726360
 Root    340 :    43.836560617116440
 Root    341 :    43.900638558064970
 Root    342 :    43.923943505841280
 Root    343 :    44.094412601116110
 Root    344 :    44.153608820344090
 Root    345 :    44.175344814089060
 Root    346 :    44.222286716640640
 Root    347 :    44.310518336127390
 Root    348 :    44.676728542214530
 Root    349 :    44.974184325248370
 Root    350 :    44.985509963238210
 Root    351 :    45.152651851150510
 Root    352 :    45.291661232899100
 Root    353 :    45.447193825915750
 Root    354 :    45.500481125451060
 Root    355 :    45.616951933141830
 Root    356 :    45.888986984551000
 Root    357 :    45.992664483926400
 Root    358 :    46.368071696019930
 Root    359 :    46.395636953739520
 Root    360 :    46.641046872356330
 Root    361 :    46.678893051540180
 Root    362 :    46.770841184330140
 Root    363 :    46.917612928574470
 Root    364 :    47.316034793876800
 Root    365 :    47.441915753496620
 Root    366 :    47.455391501754040
 Root    367 :    47.606183718713420
 Root    368 :    47.701798788658180
 Root    369 :    47.978912651610140
 Root    370 :    48.170023037397340
 Root    371 :    48.408025061623310
 Root    372 :    48.788129491366470
 Root    373 :    49.013770110775700
 Root    374 :    49.120986929773040
 Root    375 :    49.675940745059730
 Root    376 :    49.815556116058860
 Root    377 :    50.079410470359710
 Root    378 :    50.088914879260890
 Root    379 :    50.387106928726290
 Root    380 :    50.568030566959940
 Root    381 :    50.780288644689370
 Root    382 :    50.868023793520550
 Root    383 :    51.100979304432270
 Root    384 :    51.266975556542460
 Root    385 :    51.287551319808990
 Root    386 :    51.696236095028620
 Root    387 :    51.886739934255930
 Root    388 :    52.205687039810870
 Root    389 :    52.289414934320210
 Root    390 :    52.735711726551200
 Root    391 :    52.803109371167100
 Root    392 :    53.042351676359550
 Root    393 :    53.048092885308710
 Root    394 :    53.172687695501470
 Root    395 :    53.362065006022410
 Root    396 :    53.586967688519810
 Root    397 :    53.923287499600040
 Root    398 :    54.114097333308970
 Root    399 :    54.345607935745580
 Root    400 :    54.515088196497690
 Root    401 :    54.515883485122000
 Root    402 :    54.728357196378430
 Root    403 :    54.879932331875810
 Root    404 :    54.929208623722810
 Root    405 :    55.050657850767270
 Root    406 :    55.198089340845680
 Root    407 :    55.485056320412230
 Root    408 :    55.562917186536840
 Root    409 :    55.748799596729780
 Root    410 :    55.821200150821230
 Root    411 :    55.981123110993310
 Root    412 :    56.072281768312710
 Root    413 :    56.221455921201020
 Root    414 :    56.339676039983310
 Root    415 :    56.397563548062470
 Root    416 :    56.890081693233690
 Root    417 :    57.307411844305410
 Root    418 :    57.389763759467300
 Root    419 :    57.486055323164640
 Root    420 :    57.522936065276870
 Root    421 :    57.800791089418970
 Root    422 :    57.805155513655670
 Root    423 :    58.041439022567740
 Root    424 :    58.111660388301580
 Root    425 :    58.415982557102410
 Root    426 :    58.612147890222910
 Root    427 :    58.901056526587300
 Root    428 :    58.977672616275870
 Root    429 :    59.101726989594460
 Root    430 :    59.301641818666030
 Root    431 :    59.392989465602310
 Root    432 :    59.668058679223680
 Root    433 :    59.762814566776630
 Root    434 :    59.917027604550710
 Root    435 :    60.000573045589160
 Root    436 :    60.145042842382950
 Root    437 :    60.394387114773520
 Root    438 :    60.598994636324410
 Root    439 :    60.601104636688310
 Root    440 :    60.624127656070210
 Root    441 :    60.779373585006380
 Root    442 :    60.966289700026290
 Root    443 :    61.108393856340010
 Root    444 :    61.180258983812060
 Root    445 :    61.218040399238350
 Root    446 :    61.943730821713690
 Root    447 :    62.250078521162120
 Root    448 :    62.461511345627320
 Root    449 :    62.587157218927670
 Root    450 :    62.907214678092420
 Root    451 :    63.098413682353820
 Root    452 :    63.199340142441690
 Root    453 :    63.214492221821470
 Root    454 :    63.371260212691460
 Root    455 :    63.394164478736750
 Root    456 :    63.539233410742970
 Root    457 :    63.818406137763660
 Root    458 :    63.869533646522510
 Root    459 :    64.081959328880250
 Root    460 :    64.511677070530140
 Root    461 :    64.591197324100660
 Root    462 :    64.661779558853240
 Root    463 :    64.703460836433990
 Root    464 :    64.831771498931060
 Root    465 :    65.089766772888840
 Root    466 :    65.466374327977330
 Root    467 :    65.681420114668500
 Root    468 :    65.978221477414280
 Root    469 :    66.519752721100200
 Root    470 :    66.524076362265840
 Root    471 :    66.592296059460890
 Root    472 :    66.761271644940860
 Root    473 :    66.821354091680230
 Root    474 :    67.004932729012950
 Root    475 :    67.637465155409470
 Root    476 :    67.690846612260260
 Root    477 :    67.961681392871630
 Root    478 :    67.963239090037520
 Root    479 :    68.081457212508440
 Root    480 :    68.136196057623210
 Root    481 :    68.619593647248180
 Root    482 :    68.719329973872480
 Root    483 :    68.812583566663160
 Root    484 :    68.893419830148460
 Root    485 :    69.049487878464490
 Root    486 :    69.235529921807580
 Root    487 :    69.336467886812470
 Root    488 :    69.556293664803230
 Root    489 :    69.809345574279720
 Root    490 :    69.955995273579930
 Root    491 :    70.818317797483490
 Root    492 :    71.247979570746310
 Root    493 :    71.924917853186970
 Root    494 :    72.052938784606380
 Root    495 :    72.087102318355010
 Root    496 :    72.204190488843220
 Root    497 :    73.204725815770640
 Root    498 :    73.234422565666070
 Root    499 :    73.820530256486090
 Root    500 :    73.932334674075090
 Root    501 :    74.194018901567930
 Root    502 :    74.238239512913540
 Root    503 :    74.295719541545890
 Root    504 :    74.673402765890390
 Root    505 :    75.179768295686810
 Root    506 :    75.437841357288700
 Root    507 :    76.439040845693330
 Root    508 :    76.449005292307670
 Root    509 :    77.067626754270260
 Root    510 :    77.479419659554210
 Root    511 :    77.622866596282080
 Root    512 :    77.874356551418220
 Root    513 :    78.267661820533770
 Root    514 :    78.515405569575630
 Root    515 :    78.711530345701930
 Root    516 :    79.225000168324070
 Root    517 :    79.529650534800650
 Root    518 :    79.962890318385260
 Root    519 :    80.289134983363990
 Root    520 :    80.550441612669900
 Root    521 :    81.250698287764450
 Root    522 :    81.577196299931270
 Root    523 :    82.162360471858040
 Root    524 :    82.966025136723400
 Root    525 :    83.179820508816820
 Root    526 :    83.260352837554930
 Root    527 :    83.411226932199610
 Root    528 :    83.711117631997910
 Root    529 :    84.036908564321040
 Root    530 :    84.412121577544870
 Root    531 :    84.716855605233150
 Root    532 :    85.248374113104060
 Root    533 :    85.580053117052390
 Root    534 :    85.598344279497910
 Root    535 :    85.661876724913870
 Root    536 :    86.366135946158710
 Root    537 :    86.380079241784060
 Root    538 :    86.782698412974870
 Root    539 :    87.014026637954840
 Root    540 :    87.526366170778260
 Root    541 :    87.663737155347550
 Root    542 :    87.841527493505180
 Root    543 :    87.891121213706410
 Root    544 :    88.173395370610450
 Root    545 :    88.671002925004130
 Root    546 :    89.167165240996040
 Root    547 :    89.209377112152860
 Root    548 :    89.731194909978020
 Root    549 :    89.875025851452190
 Root    550 :    89.980691534595320
 Root    551 :    90.311132390733950
 Root    552 :    90.467168243940260
 Root    553 :    90.528972370987450
 Root    554 :    91.334490748082470
 Root    555 :    91.624389267873270
 Root    556 :    91.961396953119820
 Root    557 :    92.089858255029260
 Root    558 :    92.443051121329860
 Root    559 :    92.676465462554020
 Root    560 :    92.696587039407400
 Root    561 :    92.957233585480790
 Root    562 :    93.205559055920380
 Root    563 :    93.370147320895870
 Root    564 :    93.723813964170590
 Root    565 :    94.353498165575090
 Root    566 :    95.536121950020390
 Root    567 :    95.671783071051790
 Root    568 :    96.036411858985630
 Root    569 :    96.127955492844790
 Root    570 :    96.422692681063340
 Root    571 :    96.435147820778060
 Root    572 :    96.783319486437040
 Root    573 :    97.293843186442770
 Root    574 :    97.868315750779050
 Root    575 :    98.048154384716940
 Root    576 :    98.515346343940790
 Root    577 :    98.708640772863650
 Root    578 :    99.132675818426510
 Root    579 :    99.939708889211960
 Root    580 :    99.961284071636000
 Root    581 :   100.014020954235600
 Root    582 :   100.390089890683900
 Root    583 :   101.898538109784900
 Root    584 :   101.999042687830600
 Root    585 :   102.271079459055800
 Root    586 :   102.550501311446100
 Root    587 :   102.550511675498900
 Root    588 :   103.449226416670000
 Root    589 :   104.274647538997100
 Root    590 :   104.563798312609800
 Root    591 :   104.987355296867700
 Root    592 :   105.008495780378100
 Root    593 :   105.226662881629100
 Root    594 :   106.573293514559500
 Root    595 :   106.728007242769400
 Root    596 :   106.754486346046800
 Root    597 :   107.412600236859000
 Root    598 :   107.761107776674700
 Root    599 :   108.225440021837900
 Root    600 :   108.377518655119400
 Root    601 :   108.854318569211100
 Root    602 :   108.946639596777900
 Root    603 :   109.942575449269500
 Root    604 :   110.010315834961600
 Root    605 :   110.217690881655900
 Root    606 :   111.891835995891500
 Root    607 :   112.580457342310700
 Root    608 :   113.149117234658400
 Root    609 :   113.318285518233900
 Root    610 :   113.586544460050400
 Root    611 :   113.834200095980800
 Root    612 :   114.115950646735700
 Root    613 :   114.166253420615000
 Root    614 :   114.897792202993300
 Root    615 :   115.177404674388200
 Root    616 :   116.297159673847300
 Root    617 :   116.373647554215600
 Root    618 :   116.682251304341500
 Root    619 :   117.009755353599100
 Root    620 :   118.492387920395200
 Root    621 :   118.819033432042500
 Root    622 :   119.113432114212800
 Root    623 :   119.383144901466300
 Root    624 :   122.769481041054800
 Root    625 :   123.669616627408300
 Root    626 :   125.982855057997600
 Root    627 :   128.418549217089300
 Root    628 :   131.149806206460700
 Root    629 :   132.455236282041900
 Root    630 :   134.694074943262400
 Convergence achieved for final wavefunctions.
 ***********************************************************************
 Excited states from <AA,BB:AA,BB> singles matrix:
 ***********************************************************************
 
 1PDM for each excited state written to RWF  633
 Ground to excited state transition densities written to RWF  633
 Ground to excited state transition electric dipole moments (Au):
       state          X           Y           Z        Dip. S.      Osc.
         1        -0.0000     -0.0000      0.0769      0.0059      0.0008
         2        -0.0020     -0.4133     -0.0000      0.1708      0.0317
         3        -0.3211      0.3896      0.0000      0.2549      0.0521
         4         0.0000      0.0000     -0.1188      0.0141      0.0030
         5        -0.9221     -0.4400     -0.0000      1.0438      0.2225
         6        -0.0000     -0.0000     -0.0149      0.0002      0.0000
         7         0.0000      0.0000      0.0629      0.0040      0.0009
         8         0.5306     -0.2711      0.0000      0.3551      0.0837
         9         0.0000      0.0000      0.2570      0.0661      0.0156
        10         0.1960      0.1853     -0.0000      0.0728      0.0185
        11        -0.2468      0.4031     -0.0000      0.2234      0.0580
        12        -0.0000      0.0000      0.3586      0.1286      0.0337
        13        -0.0972     -0.1767      0.0000      0.0407      0.0107
        14         0.1278      0.0337      0.0000      0.0175      0.0047
        15         0.1566      0.0361     -0.0000      0.0258      0.0070
        16         0.0000      0.0000     -0.1422      0.0202      0.0056
        17         0.0000     -0.0000      0.0377      0.0014      0.0004
        18         0.0060     -0.5905      0.0000      0.3487      0.0980
        19         0.0000      0.0000      0.1450      0.0210      0.0059
        20         0.3165     -0.3349      0.0000      0.2124      0.0612
        21         0.0000     -0.0000     -0.2600      0.0676      0.0195
        22        -0.0000      0.0000     -0.2587      0.0669      0.0196
        23         0.4223      0.1104     -0.0000      0.1905      0.0560
        24        -0.0000     -0.0000     -0.1451      0.0211      0.0063
        25         0.0000      0.0000     -0.2100      0.0441      0.0133
        26        -0.0000     -0.0000     -0.0083      0.0001      0.0000
        27        -0.0840     -0.0205     -0.0000      0.0075      0.0023
        28        -0.1541     -0.0996     -0.0000      0.0337      0.0105
        29         0.0000      0.0000     -0.2028      0.0411      0.0128
        30         0.0000      0.0000     -0.2089      0.0436      0.0136
        31        -0.3129      0.0461     -0.0000      0.1000      0.0316
        32         0.1264     -0.3264     -0.0000      0.1225      0.0392
        33        -0.0000      0.0000     -0.0379      0.0014      0.0005
        34         0.4345      0.0543     -0.0000      0.1917      0.0634
        35         0.2104     -0.1285      0.0000      0.0608      0.0203
        36         0.1821      0.1503     -0.0000      0.0557      0.0187
        37        -0.0050      0.2346      0.0000      0.0550      0.0187
        38         0.0272      0.4581      0.0000      0.2106      0.0717
        39        -0.0000      0.0000     -0.2875      0.0827      0.0283
        40         0.0000      0.0000      0.0050      0.0000      0.0000
        41         0.4894     -0.2565      0.0000      0.3053      0.1059
        42         0.1546      0.3017      0.0000      0.1149      0.0399
        43         0.1148     -0.0410     -0.0000      0.0148      0.0052
        44        -0.0000      0.0000     -0.2770      0.0767      0.0270
        45        -0.0000      0.0000      0.3024      0.0914      0.0329
        46         0.2055     -0.4981      0.0000      0.2903      0.1049
        47        -0.0000      0.0000      0.1604      0.0257      0.0094
        48        -0.4370      0.0098     -0.0000      0.1911      0.0696
        49        -0.0000      0.0000     -0.0626      0.0039      0.0014
        50         0.0481     -0.1679     -0.0000      0.0305      0.0113
        51         0.0000      0.0000      0.3225      0.1040      0.0386
        52         0.4708      0.0696     -0.0000      0.2265      0.0840
        53         0.0000     -0.0000     -0.1207      0.0146      0.0054
        54        -0.0000     -0.0000     -0.0595      0.0035      0.0013
        55         0.0000     -0.0000     -0.2467      0.0608      0.0232
        56        -0.0351      0.0415     -0.0000      0.0029      0.0011
        57        -0.0000     -0.0000     -0.3486      0.1216      0.0468
        58        -0.2429      0.0192     -0.0000      0.0594      0.0228
        59        -0.1663     -0.0555      0.0000      0.0307      0.0120
        60        -0.0000     -0.0000     -0.2339      0.0547      0.0213
        61        -0.1548     -0.1057      0.0000      0.0351      0.0137
        62         0.1065      0.1823     -0.0000      0.0446      0.0175
        63         0.2712     -0.0071      0.0000      0.0736      0.0289
        64        -0.1691      0.3627      0.0000      0.1601      0.0635
        65         0.1702     -0.0584      0.0000      0.0324      0.0130
        66        -0.0000     -0.0000      0.0047      0.0000      0.0000
        67        -0.2244      0.1218      0.0000      0.0652      0.0262
        68         0.0000      0.0000      0.0424      0.0018      0.0007
        69        -0.1341     -0.2428      0.0000      0.0769      0.0312
        70         0.0000      0.0000     -0.3681      0.1355      0.0553
        71        -0.0971     -0.2546      0.0000      0.0742      0.0305
        72        -0.0000     -0.0000      0.1428      0.0204      0.0084
        73         0.2366     -0.1129      0.0000      0.0687      0.0285
        74        -0.0000      0.0000     -0.6431      0.4136      0.1723
        75         0.0532     -0.0602      0.0000      0.0065      0.0027
        76         0.1454      0.4825     -0.0000      0.2539      0.1072
        77         0.0117     -0.0007      0.0000      0.0001      0.0001
        78         0.0000      0.0000      0.2337      0.0546      0.0232
        79        -0.2152      0.2297     -0.0000      0.0990      0.0423
        80        -0.2320      0.0210     -0.0000      0.0542      0.0232
        81        -0.0000      0.0000      0.0300      0.0009      0.0004
        82        -0.0000      0.0000      0.0152      0.0002      0.0001
        83         0.1499      0.5033     -0.0000      0.2758      0.1192
        84        -0.0000      0.0000     -0.0982      0.0096      0.0042
        85         0.0000     -0.0000     -0.4697      0.2206      0.0966
        86        -0.1354      0.3045     -0.0000      0.1111      0.0487
        87         0.0000     -0.0000     -0.3776      0.1426      0.0627
        88         0.0000     -0.0000     -0.0057      0.0000      0.0000
        89         0.0785      0.0455     -0.0000      0.0082      0.0037
        90        -0.0292     -0.2907      0.0000      0.0853      0.0381
        91         0.0536     -0.2850     -0.0000      0.0841      0.0378
        92         0.0000      0.0000      0.1754      0.0308      0.0138
        93         0.3882      0.2997     -0.0000      0.2405      0.1089
        94         0.0000      0.0000     -0.3200      0.1024      0.0467
        95        -0.0953     -0.1360      0.0000      0.0276      0.0126
        96         0.3623     -0.0300     -0.0000      0.1322      0.0612
        97         0.0000      0.0000      0.2305      0.0531      0.0247
        98         0.0000      0.0000     -0.1460      0.0213      0.0100
        99        -0.1246      0.0701      0.0000      0.0204      0.0096
       100        -0.0998     -0.1520      0.0000      0.0331      0.0157
       101         0.0000      0.0000     -0.1628      0.0265      0.0126
       102        -0.3376     -0.4421     -0.0000      0.3094      0.1475
       103        -0.0958     -0.0712     -0.0000      0.0142      0.0069
       104        -0.0000     -0.0000      0.0990      0.0098      0.0047
       105        -0.0755      0.0949      0.0000      0.0147      0.0071
       106         0.0992     -0.1194      0.0000      0.0241      0.0117
       107        -0.0059     -0.1243      0.0000      0.0155      0.0076
       108        -0.5122     -0.2035     -0.0000      0.3038      0.1490
       109         0.0000      0.0000      0.0421      0.0018      0.0009
       110        -0.0466     -0.0800     -0.0000      0.0086      0.0042
       111         0.0000      0.0000      0.1480      0.0219      0.0108
       112        -0.0000     -0.0000      0.1425      0.0203      0.0100
       113        -0.3042      0.0802      0.0000      0.0990      0.0493
       114         0.3450      0.1996      0.0000      0.1589      0.0795
       115         0.1061      0.5345      0.0000      0.2970      0.1488
       116         0.0000      0.0000     -0.0906      0.0082      0.0042
       117         0.0834      0.2782      0.0000      0.0843      0.0431
       118         0.0993     -0.1964      0.0000      0.0484      0.0248
       119         0.1640     -0.0543     -0.0000      0.0298      0.0153
       120        -0.0000     -0.0000      0.2140      0.0458      0.0235
       121        -0.0000      0.0000     -0.2313      0.0535      0.0276
       122         0.0000      0.0000     -0.0746      0.0056      0.0029
       123         0.3432     -0.2017      0.0000      0.1585      0.0822
       124        -0.0401     -0.0716      0.0000      0.0067      0.0035
       125         0.0000      0.0000      0.1111      0.0123      0.0064
       126        -0.1429     -0.1217      0.0000      0.0352      0.0184
       127        -0.4229     -0.2031     -0.0000      0.2201      0.1155
       128         0.0000      0.0000     -0.0709      0.0050      0.0027
       129        -0.0000     -0.0000     -0.0072      0.0001      0.0000
       130         0.1639     -0.2130      0.0000      0.0722      0.0381
       131         0.0000     -0.0000     -0.1212      0.0147      0.0078
       132        -0.0152      0.0178      0.0000      0.0005      0.0003
       133         0.0202     -0.1581     -0.0000      0.0254      0.0136
       134         0.0155     -0.0975      0.0000      0.0097      0.0053
       135        -0.0000     -0.0000     -0.0705      0.0050      0.0027
       136         0.0000     -0.0000     -0.0085      0.0001      0.0000
       137        -0.0895      0.1485     -0.0000      0.0300      0.0163
       138         0.0000      0.0000     -0.0307      0.0009      0.0005
       139         0.1042     -0.0369      0.0000      0.0122      0.0067
       140        -0.2757      0.2350     -0.0000      0.1312      0.0719
       141        -0.0395     -0.3447     -0.0000      0.1204      0.0663
       142         0.0000      0.0000     -0.2498      0.0624      0.0344
       143        -0.0000     -0.0000      0.1846      0.0341      0.0189
       144         0.1768     -0.2142      0.0000      0.0771      0.0431
       145         0.2873     -0.0259      0.0000      0.0832      0.0469
       146        -0.0355     -0.1177     -0.0000      0.0151      0.0085
       147         0.0000      0.0000      0.0010      0.0000      0.0000
       148        -0.1930     -0.3800     -0.0000      0.1817      0.1030
       149        -0.0000     -0.0000      0.0881      0.0078      0.0044
       150         0.0796      0.0566      0.0000      0.0095      0.0054
       151         0.0000      0.0000     -0.4267      0.1821      0.1041
       152        -0.0138     -0.0682     -0.0000      0.0048      0.0028
       153         0.0000     -0.0000      0.3873      0.1500      0.0865
       154        -0.2464      0.0752      0.0000      0.0664      0.0383
       155        -0.0257      0.0732      0.0000      0.0060      0.0035
       156         0.1794      0.2093      0.0000      0.0760      0.0445
       157        -0.0000      0.0000      0.1312      0.0172      0.0101
       158        -0.3991     -0.1630      0.0000      0.1858      0.1099
       159        -0.2889      0.3513      0.0000      0.2069      0.1227
       160         0.0000     -0.0000     -0.0488      0.0024      0.0014
       161        -0.3554      0.1450     -0.0000      0.1474      0.0877
       162        -0.0000     -0.0000     -0.1227      0.0151      0.0090
       163        -0.0000      0.0000     -0.4504      0.2029      0.1213
       164         0.1244     -0.0902     -0.0000      0.0236      0.0141
       165         0.3844      0.1049     -0.0000      0.1587      0.0955
       166         0.1150     -0.4972      0.0000      0.2604      0.1577
       167        -0.0000     -0.0000     -0.1617      0.0262      0.0159
       168         0.3683      0.0114     -0.0000      0.1358      0.0826
       169         0.0000      0.0000      0.1698      0.0288      0.0176
       170         0.0000      0.0000     -0.1440      0.0207      0.0127
       171         0.0000     -0.0000      0.0103      0.0001      0.0001
       172         0.2481     -0.0852      0.0000      0.0688      0.0425
       173        -0.0000     -0.0000     -0.0923      0.0085      0.0053
       174         0.4556      0.5041     -0.0000      0.4616      0.2870
       175        -0.0000      0.0000      0.1932      0.0373      0.0232
       176        -0.3711      0.0475      0.0000      0.1400      0.0873
       177         0.4022     -0.1365      0.0000      0.1804      0.1126
       178         0.0751      0.0316      0.0000      0.0066      0.0042
       179         0.0000      0.0000      0.2593      0.0672      0.0423
       180         0.2517      0.0578      0.0000      0.0667      0.0422
       181         0.0000      0.0000     -0.2854      0.0815      0.0516
       182        -0.0000     -0.0000      0.1836      0.0337      0.0214
       183         0.0030     -0.2074     -0.0000      0.0430      0.0275
[...]
     14   0.000000D+00  0.146738D+01  0.000000D+00  0.000000D+00 -0.275549D+00
     15  -0.474041D+00  0.000000D+00 -0.894439D+00 -0.504570D+00  0.000000D+00
     16  -0.362984D+00  0.000000D+00 -0.139280D+00  0.174004D+00  0.000000D+00
               561           562           563           564           565 
      1  -0.186223D+03 -0.186214D+03 -0.186207D+03 -0.186194D+03 -0.186171D+03
      2   0.000000D+00  0.000000D+00  0.000000D+00  0.000000D+00  0.289500D-01
      3   0.000000D+00  0.000000D+00  0.000000D+00  0.000000D+00  0.886009D-01
      4  -0.174617D+00 -0.349216D-01  0.113731D+00  0.608120D-01  0.000000D+00
      5   0.000000D+00  0.000000D+00  0.000000D+00  0.000000D+00 -0.108031D+00
      6   0.000000D+00  0.000000D+00  0.000000D+00  0.000000D+00 -0.258637D+00
      7   0.494014D+00  0.950871D-01 -0.337210D+00 -0.200810D+00  0.000000D+00
      8   0.334703D-01  0.183327D+00  0.440533D+00  0.127001D-01  0.000000D+00
      9  -0.800552D+00 -0.533632D+00 -0.130759D+01  0.356002D+00  0.000000D+00
     10   0.000000D+00  0.000000D+00  0.000000D+00  0.000000D+00  0.178251D+00
     11   0.000000D+00  0.000000D+00  0.000000D+00  0.000000D+00 -0.186822D+01
     12   0.000000D+00  0.000000D+00  0.000000D+00  0.000000D+00  0.109802D+00
     13   0.000000D+00  0.000000D+00  0.000000D+00  0.000000D+00  0.206012D+00
     14   0.000000D+00  0.000000D+00  0.000000D+00  0.000000D+00 -0.498617D-01
     15   0.809454D+00  0.674256D+00  0.165508D+01 -0.393606D+00  0.000000D+00
     16  -0.153492D+00  0.100194D+00  0.391679D+00 -0.838914D-01  0.000000D+00
               566           567           568           569           570 
      1  -0.186128D+03 -0.186123D+03 -0.186110D+03 -0.186106D+03 -0.186095D+03
      2   0.293000D-01 -0.966603D-01  0.000000D+00 -0.807041D-01  0.124691D+00
      3   0.462628D-01  0.633714D-01  0.000000D+00  0.194651D+00 -0.119951D+00
      4   0.000000D+00  0.000000D+00  0.520055D-01  0.000000D+00  0.000000D+00
      5  -0.120046D+00  0.320453D+00  0.000000D+00  0.251134D+00 -0.405096D+00
      6  -0.110789D+00 -0.216333D+00  0.000000D+00 -0.585977D+00  0.376604D+00
      7   0.000000D+00  0.000000D+00 -0.158511D+00  0.000000D+00  0.000000D+00
      8   0.000000D+00  0.000000D+00  0.194982D-01  0.000000D+00  0.000000D+00
      9   0.000000D+00  0.000000D+00 -0.225965D-01  0.000000D+00  0.000000D+00
     10   0.456830D-01 -0.222039D+00  0.000000D+00 -0.258506D+00 -0.214287D-01
     11  -0.312624D+01  0.100955D+01  0.000000D+00 -0.165819D+01  0.144166D+00
     12  -0.109039D+00  0.195632D+00  0.000000D+00  0.411847D+00 -0.828368D-01
     13   0.130177D+00  0.511778D-01  0.000000D+00  0.388900D-01  0.203058D+00
     14  -0.778195D+00  0.883285D-01  0.000000D+00 -0.821380D+00  0.415616D+00
     15   0.000000D+00  0.000000D+00  0.786152D-01  0.000000D+00  0.000000D+00
     16   0.000000D+00  0.000000D+00 -0.266013D-01  0.000000D+00  0.000000D+00
               571           572           573           574           575 
      1  -0.186095D+03 -0.186082D+03 -0.186063D+03 -0.186042D+03 -0.186036D+03
      2   0.000000D+00  0.000000D+00  0.131044D+00  0.000000D+00  0.209734D+00
      3   0.000000D+00  0.000000D+00 -0.157249D-02  0.000000D+00  0.100778D+00
      4   0.522135D-01 -0.757415D-01  0.000000D+00 -0.190777D+00  0.000000D+00
      5   0.000000D+00  0.000000D+00 -0.425883D+00  0.000000D+00 -0.661794D+00
      6   0.000000D+00  0.000000D+00  0.588928D-02  0.000000D+00 -0.330290D+00
      7  -0.154472D+00  0.219309D+00  0.000000D+00  0.575853D+00  0.000000D+00
      8   0.595844D-01 -0.701623D-01  0.000000D+00  0.589549D-01  0.000000D+00
      9  -0.197281D+00  0.192893D+00  0.000000D+00 -0.117382D+01  0.000000D+00
     10   0.000000D+00  0.000000D+00  0.163764D+00  0.000000D+00 -0.129370D+01
     11   0.000000D+00  0.000000D+00 -0.730561D+00  0.000000D+00  0.166147D+01
     12   0.000000D+00  0.000000D+00  0.649261D-01  0.000000D+00 -0.176149D+00
     13   0.000000D+00  0.000000D+00  0.140455D-01  0.000000D+00 -0.108366D+00
     14   0.000000D+00  0.000000D+00  0.610225D+00  0.000000D+00 -0.101404D+01
     15   0.221210D+00 -0.262476D+00  0.000000D+00  0.160810D+01  0.000000D+00
     16  -0.100702D-01 -0.606211D-02  0.000000D+00 -0.133892D+00  0.000000D+00
               576           577           578           579           580 
      1  -0.186018D+03 -0.186011D+03 -0.185996D+03 -0.185966D+03 -0.185965D+03
      2   0.105019D+00 -0.173684D+00  0.000000D+00  0.000000D+00  0.972436D-01
      3  -0.133990D+00 -0.633847D-02  0.000000D+00  0.000000D+00  0.719579D-01
      4   0.000000D+00  0.000000D+00 -0.240667D+00 -0.157563D+00  0.000000D+00
      5  -0.343176D+00  0.573209D+00  0.000000D+00  0.000000D+00 -0.326864D+00
      6   0.462093D+00  0.264407D-01  0.000000D+00  0.000000D+00 -0.234921D+00
      7   0.000000D+00  0.000000D+00  0.763666D+00  0.510562D+00  0.000000D+00
      8   0.000000D+00  0.000000D+00 -0.488529D+00  0.233266D+00  0.000000D+00
      9   0.000000D+00  0.000000D+00  0.135370D+01 -0.174522D+01  0.000000D+00
     10  -0.820729D+00 -0.600169D+00  0.000000D+00  0.000000D+00 -0.629056D+00
     11   0.134847D+00  0.106199D+01  0.000000D+00  0.000000D+00  0.154783D+01
     12  -0.848544D+00 -0.203355D+00  0.000000D+00  0.000000D+00  0.213541D+00
     13  -0.226872D-01  0.176857D-01  0.000000D+00  0.000000D+00 -0.234190D+00
     14  -0.626569D+00 -0.527115D+00  0.000000D+00  0.000000D+00  0.718108D-02
     15   0.000000D+00  0.000000D+00 -0.154973D+01  0.227338D+01  0.000000D+00
     16   0.000000D+00  0.000000D+00 -0.355037D+00  0.120685D+00  0.000000D+00
               581           582           583           584           585 
      1  -0.185963D+03 -0.185950D+03 -0.185894D+03 -0.185890D+03 -0.185880D+03
      2  -0.356194D-02  0.000000D+00  0.000000D+00  0.355356D-01 -0.991077D-02
      3  -0.866478D-01  0.000000D+00  0.000000D+00  0.736705D-01  0.516135D-01
      4   0.000000D+00  0.102838D+00 -0.267144D+00  0.000000D+00  0.000000D+00
      5   0.127296D-01  0.000000D+00  0.000000D+00 -0.125167D+00  0.561968D-01
      6   0.267417D+00  0.000000D+00  0.000000D+00 -0.259687D+00 -0.149192D+00
      7   0.000000D+00 -0.333477D+00  0.847941D+00  0.000000D+00  0.000000D+00
      8   0.000000D+00  0.505591D-01 -0.698762D+00  0.000000D+00  0.000000D+00
      9   0.000000D+00  0.170179D+00  0.132254D+01  0.000000D+00  0.000000D+00
     10   0.320823D+00  0.000000D+00  0.000000D+00  0.289021D+00 -0.418483D+00
     11   0.500459D+00  0.000000D+00  0.000000D+00  0.520561D-01 -0.462142D+00
     12   0.598974D-01  0.000000D+00  0.000000D+00  0.504976D+00 -0.345240D+00
     13   0.276512D+00  0.000000D+00  0.000000D+00  0.105652D-01  0.214162D+00
     14   0.309004D+00  0.000000D+00  0.000000D+00  0.321007D+00 -0.817522D+00
     15   0.000000D+00 -0.177873D+00 -0.163563D+01  0.000000D+00  0.000000D+00
     16   0.000000D+00  0.251114D+00 -0.728874D+00  0.000000D+00  0.000000D+00
               586           587           588           589           590 
      1  -0.185870D+03 -0.185870D+03 -0.185837D+03 -0.185807D+03 -0.185796D+03
      2   0.000000D+00  0.655595D-02 -0.119689D+00  0.128599D+00  0.000000D+00
      3   0.000000D+00 -0.998602D-01 -0.106695D+00 -0.124783D+00  0.000000D+00
      4   0.159057D-01  0.000000D+00  0.000000D+00  0.000000D+00 -0.943741D-02
      5   0.000000D+00 -0.155394D-01  0.398158D+00 -0.484912D+00  0.000000D+00
      6   0.000000D+00  0.309333D+00  0.374960D+00  0.426458D+00  0.000000D+00
      7  -0.523367D-01  0.000000D+00  0.000000D+00  0.000000D+00  0.435035D-01
      8   0.154689D+00  0.000000D+00  0.000000D+00  0.000000D+00 -0.299652D+00
      9  -0.424665D+00  0.000000D+00  0.000000D+00  0.000000D+00  0.705616D+00
     10   0.000000D+00  0.272599D+00 -0.789879D-01  0.490159D+00  0.000000D+00
     11   0.000000D+00  0.117738D+00 -0.253756D+01 -0.107568D+01  0.000000D+00
     12   0.000000D+00  0.168174D+00 -0.322348D+00 -0.859137D-01  0.000000D+00
     13   0.000000D+00  0.393969D+00  0.532021D-01 -0.182127D-01  0.000000D+00
     14   0.000000D+00  0.215361D+00 -0.100164D+01  0.752067D+00  0.000000D+00
     15   0.430505D+00  0.000000D+00  0.000000D+00  0.000000D+00 -0.902047D+00
     16   0.663324D+00  0.000000D+00  0.000000D+00  0.000000D+00 -0.401161D+00
               591           592           593           594           595 
      1  -0.185781D+03 -0.185780D+03 -0.185772D+03 -0.185722D+03 -0.185717D+03
      2   0.000000D+00 -0.119832D-01  0.000000D+00  0.000000D+00  0.149507D-01
      3   0.000000D+00 -0.606518D-01  0.000000D+00  0.000000D+00 -0.898111D-02
      4   0.486783D-01  0.000000D+00  0.214608D+00 -0.208423D-01  0.000000D+00
      5   0.000000D+00  0.427579D-01  0.000000D+00  0.000000D+00 -0.644739D-01
      6   0.000000D+00  0.198855D+00  0.000000D+00  0.000000D+00  0.105654D-01
      7  -0.178895D+00  0.000000D+00 -0.721549D+00  0.615686D-01  0.000000D+00
      8   0.892341D-01  0.000000D+00  0.413430D+00  0.722211D-01  0.000000D+00
      9   0.630743D-01  0.000000D+00 -0.595535D+00 -0.197357D+00  0.000000D+00
     10   0.000000D+00  0.186067D+00  0.000000D+00  0.000000D+00  0.156130D+00
     11   0.000000D+00  0.386684D-01  0.000000D+00  0.000000D+00  0.103355D+01
     12   0.000000D+00  0.628587D+00  0.000000D+00  0.000000D+00  0.314059D+00
     13   0.000000D+00 -0.456333D+00  0.000000D+00  0.000000D+00 -0.185812D+00
     14   0.000000D+00  0.247497D+00  0.000000D+00  0.000000D+00  0.934368D+00
     15   0.167417D+00  0.000000D+00  0.427217D+00 -0.862490D-01  0.000000D+00
     16   0.358714D+00  0.000000D+00  0.196508D+00 -0.243350D-01  0.000000D+00
               596           597           598           599           600 
      1  -0.185716D+03 -0.185691D+03 -0.185679D+03 -0.185662D+03 -0.185656D+03
      2   0.000000D+00  0.115610D+00  0.427885D-01  0.000000D+00  0.894559D-01
      3   0.000000D+00  0.500924D-01 -0.197508D-01  0.000000D+00  0.121930D+00
      4  -0.672171D-01  0.000000D+00  0.000000D+00  0.621230D-01  0.000000D+00
      5   0.000000D+00 -0.438157D+00 -0.156908D+00  0.000000D+00 -0.339045D+00
      6   0.000000D+00 -0.177690D+00  0.531681D-01  0.000000D+00 -0.421394D+00
      7   0.227047D+00  0.000000D+00  0.000000D+00 -0.226384D+00  0.000000D+00
      8  -0.556303D-01  0.000000D+00  0.000000D+00  0.334979D+00  0.000000D+00
      9  -0.485455D-01  0.000000D+00  0.000000D+00 -0.104745D+01  0.000000D+00
     10   0.000000D+00 -0.125347D+00  0.215471D-01  0.000000D+00 -0.805393D+00
     11   0.000000D+00  0.205571D+00  0.323842D+00  0.000000D+00  0.323891D+00
     12   0.000000D+00  0.282149D+00  0.429672D+00  0.000000D+00 -0.289571D+00
     13   0.000000D+00  0.127324D-01 -0.619682D-01  0.000000D+00 -0.101068D-01
     14   0.000000D+00  0.281794D+00  0.272429D+00  0.000000D+00 -0.708804D+00
     15   0.111574D+00  0.000000D+00  0.000000D+00  0.123012D+01  0.000000D+00
     16  -0.342798D+00  0.000000D+00  0.000000D+00  0.322684D+00  0.000000D+00
               601           602           603           604           605 
      1  -0.185638D+03 -0.185635D+03 -0.185598D+03 -0.185596D+03 -0.185588D+03
      2   0.000000D+00  0.000000D+00  0.000000D+00  0.862018D-01  0.722056D-02
      3   0.000000D+00  0.000000D+00  0.000000D+00  0.769285D-01 -0.239473D-01
      4  -0.726872D-01 -0.414116D-01 -0.849405D-01  0.000000D+00  0.000000D+00
      5   0.000000D+00  0.000000D+00  0.000000D+00 -0.322462D+00 -0.350690D-01
      6   0.000000D+00  0.000000D+00  0.000000D+00 -0.260320D+00  0.666491D-01
      7   0.249151D+00  0.126281D+00  0.311619D+00  0.000000D+00  0.000000D+00
      8  -0.178938D+00  0.325310D-01  0.150707D+00  0.000000D+00  0.000000D+00
      9   0.379381D+00 -0.125145D+00 -0.110344D+01  0.000000D+00  0.000000D+00
     10   0.000000D+00  0.000000D+00  0.000000D+00 -0.922771D+00  0.102157D+01
     11   0.000000D+00  0.000000D+00  0.000000D+00 -0.274395D+01  0.436708D+00
     12   0.000000D+00  0.000000D+00  0.000000D+00  0.119008D+00  0.429334D+00
     13   0.000000D+00  0.000000D+00  0.000000D+00  0.390284D-01 -0.177203D-01
     14   0.000000D+00  0.000000D+00  0.000000D+00 -0.156975D+01  0.101592D+01
     15  -0.175112D+00  0.308139D-01  0.129956D+01  0.000000D+00  0.000000D+00
     16  -0.342933D+00  0.252915D+00  0.134457D+00  0.000000D+00  0.000000D+00
               606           607           608           609           610 
      1  -0.185527D+03 -0.185502D+03 -0.185481D+03 -0.185474D+03 -0.185465D+03
      2   0.217169D-01 -0.120214D+00  0.000000D+00  0.356869D-03  0.000000D+00
      3  -0.475795D-01  0.103787D-01  0.000000D+00 -0.413333D-01  0.000000D+00
      4   0.000000D+00  0.000000D+00  0.300569D-01  0.000000D+00 -0.949087D-01
      5  -0.952003D-01  0.442129D+00  0.000000D+00 -0.242877D-02  0.000000D+00
      6   0.180749D+00 -0.266298D-01  0.000000D+00  0.185587D+00  0.000000D+00
      7   0.000000D+00  0.000000D+00 -0.844927D-01  0.000000D+00  0.360133D+00
      8   0.000000D+00  0.000000D+00 -0.966750D-03  0.000000D+00 -0.328368D+00
      9   0.000000D+00  0.000000D+00  0.349639D+00  0.000000D+00  0.647486D+00
     10   0.244896D+00 -0.646088D+00  0.000000D+00  0.361373D+00  0.000000D+00
     11  -0.407182D+00  0.208400D+01  0.000000D+00 -0.232678D+01  0.000000D+00
     12   0.626314D-01 -0.313568D+00  0.000000D+00 -0.542233D-01  0.000000D+00
     13   0.795047D-01 -0.890004D-01  0.000000D+00  0.631259D-01  0.000000D+00
     14   0.404398D+00 -0.516538D+00  0.000000D+00 -0.829032D-01  0.000000D+00
     15   0.000000D+00  0.000000D+00 -0.504542D+00  0.000000D+00 -0.681067D+00
     16   0.000000D+00  0.000000D+00  0.205765D+00  0.000000D+00 -0.182076D+00
               611           612           613           614           615 
      1  -0.185455D+03 -0.185445D+03 -0.185443D+03 -0.185416D+03 -0.185406D+03
      2   0.000000D+00  0.333185D-01 -0.480518D-01 -0.125977D+00  0.115000D+00
      3   0.000000D+00  0.196994D-01 -0.591471D-01  0.967559D-01 -0.741363D-02
      4   0.672607D-01  0.000000D+00  0.000000D+00  0.000000D+00  0.000000D+00
      5   0.000000D+00 -0.158611D+00  0.192237D+00  0.516931D+00 -0.449989D+00
      6   0.000000D+00 -0.865660D-01  0.233923D+00 -0.375566D+00  0.345865D-01
      7  -0.249850D+00  0.000000D+00  0.000000D+00  0.000000D+00  0.000000D+00
      8   0.262289D-01  0.000000D+00  0.000000D+00  0.000000D+00  0.000000D+00
      9   0.452154D+00  0.000000D+00  0.000000D+00  0.000000D+00  0.000000D+00
     10   0.000000D+00  0.473780D+00 -0.477658D-02 -0.642064D+00  0.455464D-01
     11   0.000000D+00 -0.668114D+00 -0.619949D-01  0.288710D+01 -0.192811D+01
     12   0.000000D+00  0.340403D+00 -0.137317D+00  0.191069D+00  0.224907D+00
     13   0.000000D+00 -0.875752D-01 -0.519846D-01 -0.163755D+00  0.943630D-01
     14   0.000000D+00  0.564720D+00 -0.312097D+00 -0.685717D+00  0.401574D-01
     15  -0.447207D+00  0.000000D+00  0.000000D+00  0.000000D+00  0.000000D+00
     16  -0.206896D-01  0.000000D+00  0.000000D+00  0.000000D+00  0.000000D+00
               616           617           618           619           620 
      1  -0.185365D+03 -0.185362D+03 -0.185351D+03 -0.185339D+03 -0.185284D+03
      2   0.182073D-01  0.000000D+00 -0.119024D-01  0.000000D+00  0.327987D-01
      3  -0.159331D+00  0.000000D+00 -0.717870D-01  0.000000D+00  0.115570D+00
      4   0.000000D+00  0.353688D-01  0.000000D+00 -0.498321D-01  0.000000D+00
      5  -0.646570D-01  0.000000D+00  0.595918D-01  0.000000D+00 -0.141672D+00
      6   0.623527D+00  0.000000D+00  0.290741D+00  0.000000D+00 -0.443198D+00
      7   0.000000D+00 -0.123517D+00  0.000000D+00  0.192801D+00  0.000000D+00
      8   0.000000D+00 -0.759521D-01  0.000000D+00 -0.164028D+00  0.000000D+00
      9   0.000000D+00  0.314027D+00  0.000000D+00  0.331309D+00  0.000000D+00
     10  -0.144225D+01  0.000000D+00 -0.237126D+00  0.000000D+00  0.607205D+00
     11  -0.387904D+00  0.000000D+00 -0.128449D+00  0.000000D+00 -0.862985D+00
     12  -0.881021D+00  0.000000D+00 -0.111768D+00  0.000000D+00  0.735573D+00
     13  -0.831872D-01  0.000000D+00 -0.248558D+00  0.000000D+00  0.103351D+00
     14  -0.184438D+01  0.000000D+00 -0.388587D+00  0.000000D+00  0.683718D+00
     15   0.000000D+00 -0.191204D+00  0.000000D+00 -0.367937D+00  0.000000D+00
     16   0.000000D+00 -0.248271D-01  0.000000D+00  0.764113D-02  0.000000D+00
               621           622           623           624           625 
      1  -0.185272D+03 -0.185261D+03 -0.185252D+03 -0.185127D+03 -0.185094D+03
      2  -0.344874D-01  0.867556D-01 -0.970766D-01 -0.819915D-01 -0.380906D-01
      3   0.257357D-01 -0.628408D-01 -0.508830D-01  0.686178D-01  0.960783D-02
      4   0.000000D+00  0.000000D+00  0.000000D+00  0.000000D+00  0.000000D+00
      5   0.832091D-01 -0.364223D+00  0.402965D+00  0.345376D+00  0.172853D+00
      6  -0.124442D+00  0.248186D+00  0.229609D+00 -0.253437D+00 -0.366731D-01
      7   0.000000D+00  0.000000D+00  0.000000D+00  0.000000D+00  0.000000D+00
      8   0.000000D+00  0.000000D+00  0.000000D+00  0.000000D+00  0.000000D+00
      9   0.000000D+00  0.000000D+00  0.000000D+00  0.000000D+00  0.000000D+00
     10   0.274510D+00 -0.443804D+00 -0.367593D+00  0.878346D+00  0.413462D+00
     11  -0.156021D-01  0.111044D+01 -0.167542D+01 -0.169113D+01 -0.132022D+00
     12   0.204096D+00 -0.279315D+00 -0.491134D+00  0.360681D+00 -0.895209D-01
     13   0.196555D+00  0.248872D-01  0.124226D+00  0.638520D-01  0.133415D+00
     14   0.477564D+00  0.434718D-01 -0.721173D+00  0.246031D+00  0.482966D-01
     15   0.000000D+00  0.000000D+00  0.000000D+00  0.000000D+00  0.000000D+00
     16   0.000000D+00  0.000000D+00  0.000000D+00  0.000000D+00  0.000000D+00
               626           627           628           629           630 
      1  -0.185009D+03 -0.184919D+03 -0.184819D+03 -0.184771D+03 -0.184689D+03
      2   0.355607D-01 -0.752534D-02 -0.124820D-01  0.170296D-01  0.252523D-02
      3  -0.111723D-01  0.358869D-02  0.616635D-02 -0.161302D-01  0.249219D-01
      4   0.000000D+00  0.000000D+00  0.000000D+00  0.000000D+00  0.000000D+00
      5  -0.117974D+00 -0.104530D-01  0.276848D-01 -0.769279D-01  0.213796D-01
      6   0.574250D-01  0.121966D-03 -0.534432D-02  0.445503D-01 -0.693795D-01
      7   0.000000D+00  0.000000D+00  0.000000D+00  0.000000D+00  0.000000D+00
      8   0.000000D+00  0.000000D+00  0.000000D+00  0.000000D+00  0.000000D+00
      9   0.000000D+00  0.000000D+00  0.000000D+00  0.000000D+00  0.000000D+00
     10  -0.173254D+00  0.789995D-01 -0.104190D+00 -0.107725D+00  0.168318D+00
     11   0.975107D+00 -0.292044D+00 -0.139354D-01  0.350042D-01 -0.222255D+00
     12  -0.401350D-01 -0.141137D+00 -0.131061D+00 -0.651468D-01 -0.103627D+00
     13  -0.178421D+00 -0.446260D-01 -0.416281D-01 -0.569532D-01  0.813815D-01
     14   0.103209D+00 -0.276518D-01  0.142025D+00 -0.221813D+00  0.134726D+00
     15   0.000000D+00  0.000000D+00  0.000000D+00  0.000000D+00  0.000000D+00
     16   0.000000D+00  0.000000D+00  0.000000D+00  0.000000D+00  0.000000D+00
 Unable to Open any file for archive entry.
 1\1\GINC-HEL25\SP\RB3LYP TD-FC\Gen\C1H2O2\SABYASACHI\21-Mar-2022\0\\#P
  TD(Nstates=10000) b3lyp/Gen SCF(maxcycles=100) Int(Grid=ultrafine)\\x
 GDB7_00001_tier4.com\\0,1\O,0,-1.023804,-0.438792,0.\C,0,0.,0.418952,0
 .\O,0,1.152985,0.109983,0.\H,0,-0.656942,-1.333012,0.\H,0,-0.376499,1.
 44977,0.\\Version=EM64L-G16RevC.01\State=1-A'\HF=-189.6387838\RMSD=8.9
 17e-09\PG=CS [SG(C1H2O2)]\\@
 The archive entry for this job was punched.


 WE HAVE LEFT UNDONE THOSE THINGS WHICH WE OUGHT TO HAVE DONE,
 AND WE HAVE DONE THOSE THINGS WHICH WE OUGHT NOT TO HAVE DONE.
                   BOOK OF COMMON PRAYER                      
 Job cpu time:       0 days  0 hours  5 minutes  9.3 seconds.
 Elapsed time:       0 days  0 hours  0 minutes 38.9 seconds.
 File lengths (MBytes):  RWF=    508 Int=      0 D2E=      0 Chk=    107 Scr=      1
 Normal termination of Gaussian 16 at Mon Mar 21 20:00:07 2022.
