 Entering Gaussian System, Link 0=g16
 Input=000009.com
 Output=000009.log
 Initial command:
 /home/sabyasachi/g16/l1.exe "/scratch/sabyasachi/PBS_7976011.helios/Gau-25264.inp" -scrdir="/scratch/sabyasachi/PBS_7976011.helios/"
 Entering Link 1 = /home/sabyasachi/g16/l1.exe PID=     25265.
  
 Copyright (c) 1988-2019, Gaussian, Inc.  All Rights Reserved.
  
 This is part of the Gaussian(R) 16 program.  It is based on
 the Gaussian(R) 09 system (copyright 2009, Gaussian, Inc.),
 the Gaussian(R) 03 system (copyright 2003, Gaussian, Inc.),
 the Gaussian(R) 98 system (copyright 1998, Gaussian, Inc.),
 the Gaussian(R) 94 system (copyright 1995, Gaussian, Inc.),
 the Gaussian 92(TM) system (copyright 1992, Gaussian, Inc.),
 the Gaussian 90(TM) system (copyright 1990, Gaussian, Inc.),
 the Gaussian 88(TM) system (copyright 1988, Gaussian, Inc.),
 the Gaussian 86(TM) system (copyright 1986, Carnegie Mellon
 University), and the Gaussian 82(TM) system (copyright 1983,
 Carnegie Mellon University). Gaussian is a federally registered
 trademark of Gaussian, Inc.
  
 This software contains proprietary and confidential information,
 including trade secrets, belonging to Gaussian, Inc.
  
 This software is provided under written license and may be
 used, copied, transmitted, or stored only in accord with that
 written license.
  
 The following legend is applicable only to US Government
 contracts under FAR:
  
                    RESTRICTED RIGHTS LEGEND
  
 Use, reproduction and disclosure by the US Government is
 subject to restrictions as set forth in subparagraphs (a)
 and (c) of the Commercial Computer Software - Restricted
 Rights clause in FAR 52.227-19.
  
 Gaussian, Inc.
 340 Quinnipiac St., Bldg. 40, Wallingford CT 06492
  
  
 ---------------------------------------------------------------
 Warning -- This program may not be used in any manner that
 competes with the business of Gaussian, Inc. or will provide
 assistance to any competitor of Gaussian, Inc.  The licensee
 of this program is prohibited from giving any competitor of
 Gaussian, Inc. access to this program.  By using this program,
 the user acknowledges that Gaussian, Inc. is engaged in the
 business of creating and licensing software in the field of
 computational chemistry and represents and warrants to the
 licensee that it is not a competitor of Gaussian, Inc. and that
 it will not use this program in any manner prohibited above.
 ---------------------------------------------------------------
  

 Cite this work as:
 Gaussian 16, Revision C.01,
 M. J. Frisch, G. W. Trucks, H. B. Schlegel, G. E. Scuseria, 
 M. A. Robb, J. R. Cheeseman, G. Scalmani, V. Barone, 
 G. A. Petersson, H. Nakatsuji, X. Li, M. Caricato, A. V. Marenich, 
 J. Bloino, B. G. Janesko, R. Gomperts, B. Mennucci, H. P. Hratchian, 
 J. V. Ortiz, A. F. Izmaylov, J. L. Sonnenberg, D. Williams-Young, 
 F. Ding, F. Lipparini, F. Egidi, J. Goings, B. Peng, A. Petrone, 
 T. Henderson, D. Ranasinghe, V. G. Zakrzewski, J. Gao, N. Rega, 
 G. Zheng, W. Liang, M. Hada, M. Ehara, K. Toyota, R. Fukuda, 
 J. Hasegawa, M. Ishida, T. Nakajima, Y. Honda, O. Kitao, H. Nakai, 
 T. Vreven, K. Throssell, J. A. Montgomery, Jr., J. E. Peralta, 
 F. Ogliaro, M. J. Bearpark, J. J. Heyd, E. N. Brothers, K. N. Kudin, 
 V. N. Staroverov, T. A. Keith, R. Kobayashi, J. Normand, 
 K. Raghavachari, A. P. Rendell, J. C. Burant, S. S. Iyengar, 
 J. Tomasi, M. Cossi, J. M. Millam, M. Klene, C. Adamo, R. Cammi, 
 J. W. Ochterski, R. L. Martin, K. Morokuma, O. Farkas, 
 J. B. Foresman, and D. J. Fox, Gaussian, Inc., Wallingford CT, 2019.
 
 ******************************************
 Gaussian 16:  EM64L-G16RevC.01  3-Jul-2019
                21-Mar-2022 
 ******************************************
 %mem=64gb
 %nproc=8
 Will use up to    8 processors via shared memory.
 ---------------------------------------------------------------------
 #P TD(Nstates=10000) b3lyp/Gen SCF(maxcycles=100) Int(Grid=ultrafine)
 ---------------------------------------------------------------------
 1/38=1,172=1/1;
 2/12=2,17=6,18=5,40=1/2;
 3/5=7,11=9,25=1,30=1,74=-5,75=-5/1,2,3,8;
 4//1;
 5/5=2,7=100,38=5/2;
 8/6=1,10=1,108=10000/1;
 9/41=10000,42=1,70=2/14;
 6/7=2,8=2,9=2,10=2/1;
 99/5=1,9=1/99;
 Leave Link    1 at Mon Mar 21 20:04:15 2022, MaxMem=  8589934592 cpu:               0.4 elap:               0.1
 (Enter /home/sabyasachi/g16/l101.exe)
 ---------------------
 xGDB7_00001_tier4.com
 ---------------------
 Symbolic Z-matrix:
 Charge =  0 Multiplicity = 1
 9                     0.        0.        0.68819 
 9                     0.        0.       -0.68819 
 
 ITRead=  0  0
 MicOpt= -1 -1
 NAtoms=      2 NQM=        2 NQMF=       0 NMMI=      0 NMMIF=      0
                NMic=       0 NMicF=      0.
                    Isotopes and Nuclear Properties:
 (Nuclear quadrupole moments (NQMom) in fm**2, nuclear magnetic moments (NMagM)
  in nuclear magnetons)

  Atom         1           2
 IAtWgt=          19          19
 AtmWgt=  18.9984033  18.9984033
 NucSpn=           1           1
 AtZEff=  -0.0000000  -0.0000000
 NQMom=    0.0000000   0.0000000
 NMagM=    2.6288670   2.6288670
 AtZNuc=   9.0000000   9.0000000
 Leave Link  101 at Mon Mar 21 20:04:16 2022, MaxMem=  8589934592 cpu:               0.6 elap:               0.1
 (Enter /home/sabyasachi/g16/l202.exe)
                          Input orientation:                          
 ---------------------------------------------------------------------
 Center     Atomic      Atomic             Coordinates (Angstroms)
 Number     Number       Type             X           Y           Z
 ---------------------------------------------------------------------
      1          9           0        0.000000    0.000000    0.688193
      2          9           0        0.000000    0.000000   -0.688193
 ---------------------------------------------------------------------
 Stoichiometry    F2
 Framework group  D*H[C*(F.F)]
 Deg. of freedom     1
 Full point group                 D*H     NOp   8
 Largest Abelian subgroup         D2H     NOp   8
 Largest concise Abelian subgroup C2      NOp   2
                         Standard orientation:                         
 ---------------------------------------------------------------------
 Center     Atomic      Atomic             Coordinates (Angstroms)
 Number     Number       Type             X           Y           Z
 ---------------------------------------------------------------------
      1          9           0        0.000000    0.000000    0.688193
      2          9           0        0.000000    0.000000   -0.688193
 ---------------------------------------------------------------------
 Rotational constants (GHZ):           0.0000000          28.0833945          28.0833945
 Leave Link  202 at Mon Mar 21 20:04:16 2022, MaxMem=  8589934592 cpu:               0.1 elap:               0.0
 (Enter /home/sabyasachi/g16/l301.exe)
 General basis read from cards:  (5D, 7F)
 Centers:       1      2
 S 5 1.00
     Exponent=  2.8948325990D+03 Coefficients= -5.3408255515D-03
     Exponent=  4.3541939120D+02 Coefficients= -3.9904258866D-02
     Exponent=  9.8843328866D+01 Coefficients= -1.7912768038D-01
     Exponent=  2.7485198001D+01 Coefficients= -4.6758090825D-01
     Exponent=  8.5405498171D+00 Coefficients= -4.4653131020D-01
 S 1 1.00
     Exponent=  1.0654578038D+00 Coefficients=  1.0000000000D+00
 S 1 1.00
     Exponent=  3.3247346748D-01 Coefficients=  1.0000000000D+00
 S 1 1.00
     Exponent=  9.8097752264D-02 Coefficients=  1.0000000000D+00
 P 3 1.00
     Exponent=  2.2696633924D+01 Coefficients= -4.5212874436D-02
     Exponent=  4.9872339257D+00 Coefficients= -2.3754317067D-01
     Exponent=  1.3491613954D+00 Coefficients= -5.1287353587D-01
 P 1 1.00
     Exponent=  3.4829881977D-01 Coefficients=  1.0000000000D+00
 P 1 1.00
     Exponent=  8.3372148304D-02 Coefficients=  1.0000000000D+00
 D 1 1.00
     Exponent=  1.4000000000D+00 Coefficients=  1.0000000000D+00
 D 1 1.00
     Exponent=  2.2301361948D-01 Coefficients=  1.0000000000D+00
 ****
 Ernie: Thresh=  0.10000D-02 Tol=  0.10000D-05 Strict=F.
 There are    13 symmetry adapted cartesian basis functions of AG  symmetry.
 There are     2 symmetry adapted cartesian basis functions of B1G symmetry.
 There are     5 symmetry adapted cartesian basis functions of B2G symmetry.
 There are     5 symmetry adapted cartesian basis functions of B3G symmetry.
 There are     2 symmetry adapted cartesian basis functions of AU  symmetry.
 There are    13 symmetry adapted cartesian basis functions of B1U symmetry.
 There are     5 symmetry adapted cartesian basis functions of B2U symmetry.
 There are     5 symmetry adapted cartesian basis functions of B3U symmetry.
 There are    11 symmetry adapted basis functions of AG  symmetry.
 There are     2 symmetry adapted basis functions of B1G symmetry.
 There are     5 symmetry adapted basis functions of B2G symmetry.
 There are     5 symmetry adapted basis functions of B3G symmetry.
 There are     2 symmetry adapted basis functions of AU  symmetry.
 There are    11 symmetry adapted basis functions of B1U symmetry.
 There are     5 symmetry adapted basis functions of B2U symmetry.
 There are     5 symmetry adapted basis functions of B3U symmetry.
    46 basis functions,    70 primitive gaussians,    50 cartesian basis functions
     9 alpha electrons        9 beta electrons
       nuclear repulsion energy        31.1419573321 Hartrees.
 IExCor=  402 DFT=T Ex+Corr=B3LYP ExCW=0 ScaHFX=  0.200000
 ScaDFX=  0.800000  0.720000  1.000000  0.810000 ScalE2=  1.000000  1.000000
 IRadAn=      5 IRanWt=     -1 IRanGd=            0 ICorTp=0 IEmpDi=  4
 NAtoms=    2 NActive=    2 NUniq=    1 SFac= 4.00D+00 NAtFMM=   60 NAOKFM=F Big=F
 Integral buffers will be    131072 words long.
 Regular integral format.
 Two-electron integral symmetry is turned on.
 Leave Link  301 at Mon Mar 21 20:04:16 2022, MaxMem=  8589934592 cpu:               0.5 elap:               0.1
 (Enter /home/sabyasachi/g16/l302.exe)
 NPDir=0 NMtPBC=     1 NCelOv=     1 NCel=       1 NClECP=     1 NCelD=      1
         NCelK=      1 NCelE2=     1 NClLst=     1 CellRange=     0.0.
 One-electron integrals computed using PRISM.
 One-electron integral symmetry used in STVInt
 NBasis=    46 RedAO= T EigKep=  2.60D-03  NBF=    11     2     5     5     2    11     5     5
 NBsUse=    46 1.00D-06 EigRej= -1.00D+00 NBFU=    11     2     5     5     2    11     5     5
 Precomputing XC quadrature grid using
 IXCGrd= 4 IRadAn=           5 IRanWt=          -1 IRanGd=           0 AccXCQ= 0.00D+00.
 Generated NRdTot=       0 NPtTot=           0 NUsed=           0 NTot=          32
 NSgBfM=    50    50    50    50    50 MxSgAt=     2 MxSgA2=     2.
 Leave Link  302 at Mon Mar 21 20:04:16 2022, MaxMem=  8589934592 cpu:               0.9 elap:               0.1
 (Enter /home/sabyasachi/g16/l303.exe)
 DipDrv:  MaxL=1.
 Leave Link  303 at Mon Mar 21 20:04:16 2022, MaxMem=  8589934592 cpu:               0.2 elap:               0.0
 (Enter /home/sabyasachi/g16/l308.exe)
 Leave Link  308 at Mon Mar 21 20:04:16 2022, MaxMem=  8589934592 cpu:               0.2 elap:               0.0
 (Enter /home/sabyasachi/g16/l401.exe)
 ExpMin= 8.34D-02 ExpMax= 2.89D+03 ExpMxC= 4.35D+02 IAcc=3 IRadAn=         5 AccDes= 0.00D+00
 Harris functional with IExCor=  402 and IRadAn=       5 diagonalized for initial guess.
 HarFok:  IExCor=  402 AccDes= 0.00D+00 IRadAn=         5 IDoV= 1 UseB2=F ITyADJ=14
 ICtDFT=  3500011 ScaDFX=  1.000000  1.000000  1.000000  1.000000
 FoFCou: FMM=F IPFlag=           0 FMFlag=      100000 FMFlg1=           0
         NFxFlg=           0 DoJE=T BraDBF=F KetDBF=T FulRan=T
         wScrn=  0.000000 ICntrl=       500 IOpCl=  0 I1Cent=   200000004 NGrid=           0
         NMat0=    1 NMatS0=      1 NMatT0=    0 NMatD0=    1 NMtDS0=    0 NMtDT0=    0
 Petite list used in FoFCou.
 Harris En= -199.378800782736    
 JPrj=0 DoOrth=F DoCkMO=F.
 Initial guess orbital symmetries:
       Occupied  (SGU) (SGG) (SGG) (SGU) (SGG) (PIU) (PIU) (PIG)
                 (PIG)
       Virtual   (SGU) (SGG) (SGU) (PIU) (PIU) (PIG) (PIG) (SGG)
                 (SGU) (DLTG) (DLTG) (PIU) (PIU) (DLTU) (DLTU)
                 (SGU) (PIG) (PIG) (SGG) (PIU) (PIU) (SGG) (SGU)
                 (PIG) (PIG) (SGG) (SGU) (SGG) (PIU) (PIU) (DLTG)
                 (DLTG) (DLTU) (DLTU) (PIG) (PIG) (SGU)
 The electronic state of the initial guess is 1-SGG.
 Leave Link  401 at Mon Mar 21 20:04:16 2022, MaxMem=  8589934592 cpu:               1.1 elap:               0.2
 (Enter /home/sabyasachi/g16/l502.exe)
 Keep R1 ints in memory in symmetry-blocked form, NReq=7572003.
 FoFCou: FMM=F IPFlag=           0 FMFlag=           0 FMFlg1=           0
         NFxFlg=           0 DoJE=F BraDBF=F KetDBF=F FulRan=T
         wScrn=  0.000000 ICntrl=       600 IOpCl=  0 I1Cent=           0 NGrid=           0
         NMat0=    1 NMatS0=   1081 NMatT0=    0 NMatD0=    1 NMtDS0=    0 NMtDT0=    0
 Petite list used in FoFCou.
 Closed shell SCF:
 Using DIIS extrapolation, IDIIS=  1040.
 NGot=  8589934592 LenX=  8589844957 LenY=  8589842016
 Requested convergence on RMS density matrix=1.00D-08 within 100 cycles.
 Requested convergence on MAX density matrix=1.00D-06.
 Requested convergence on             energy=1.00D-06.
 No special actions if energy rises.
 Integral accuracy reduced to 1.0D-05 until final iterations.

 Cycle   1  Pass 0  IDiag  1:
 E= -199.349700485218    
 DIIS: error= 2.22D-02 at cycle   1 NSaved=   1.
 NSaved= 1 IEnMin= 1 EnMin= -199.349700485218     IErMin= 1 ErrMin= 2.22D-02
 ErrMax= 2.22D-02  0.00D+00 EMaxC= 1.00D-01 BMatC= 1.97D-02 BMatP= 1.97D-02
 IDIUse=3 WtCom= 7.78D-01 WtEn= 2.22D-01
 Coeff-Com:  0.100D+01
 Coeff-En:   0.100D+01
 Coeff:      0.100D+01
 Gap=     0.264 Goal=   None    Shift=    0.000
 GapD=    0.264 DampG=1.000 DampE=0.500 DampFc=0.5000 IDamp=-1.
 Damping current iteration by 5.00D-01
 RMSDP=2.62D-03 MaxDP=2.70D-02              OVMax= 4.60D-02

 Cycle   2  Pass 0  IDiag  1:
 E= -199.355799315278     Delta-E=       -0.006098830061 Rises=F Damp=T
 DIIS: error= 6.47D-03 at cycle   2 NSaved=   2.
 NSaved= 2 IEnMin= 2 EnMin= -199.355799315278     IErMin= 2 ErrMin= 6.47D-03
 ErrMax= 6.47D-03  0.00D+00 EMaxC= 1.00D-01 BMatC= 1.17D-03 BMatP= 1.97D-02
 IDIUse=3 WtCom= 9.35D-01 WtEn= 6.47D-02
 Coeff-Com: -0.155D+00 0.115D+01
 Coeff-En:   0.000D+00 0.100D+01
 Coeff:     -0.145D+00 0.114D+01
 Gap=     0.274 Goal=   None    Shift=    0.000
 RMSDP=4.50D-04 MaxDP=4.13D-03 DE=-6.10D-03 OVMax= 2.01D-02

 Cycle   3  Pass 0  IDiag  1:
 E= -199.361165031012     Delta-E=       -0.005365715733 Rises=F Damp=F
 DIIS: error= 1.95D-03 at cycle   3 NSaved=   3.
 NSaved= 3 IEnMin= 3 EnMin= -199.361165031012     IErMin= 3 ErrMin= 1.95D-03
 ErrMax= 1.95D-03  0.00D+00 EMaxC= 1.00D-01 BMatC= 1.83D-04 BMatP= 1.17D-03
 IDIUse=3 WtCom= 9.80D-01 WtEn= 1.95D-02
 Coeff-Com: -0.817D-01 0.348D+00 0.734D+00
 Coeff-En:   0.000D+00 0.000D+00 0.100D+01
 Coeff:     -0.801D-01 0.341D+00 0.739D+00
 Gap=     0.274 Goal=   None    Shift=    0.000
 RMSDP=2.24D-04 MaxDP=2.60D-03 DE=-5.37D-03 OVMax= 2.65D-03

 Cycle   4  Pass 0  IDiag  1:
 E= -199.361274395244     Delta-E=       -0.000109364232 Rises=F Damp=F
 DIIS: error= 3.92D-04 at cycle   4 NSaved=   4.
 NSaved= 4 IEnMin= 4 EnMin= -199.361274395244     IErMin= 4 ErrMin= 3.92D-04
 ErrMax= 3.92D-04  0.00D+00 EMaxC= 1.00D-01 BMatC= 8.03D-06 BMatP= 1.83D-04
 IDIUse=3 WtCom= 9.96D-01 WtEn= 3.92D-03
 Coeff-Com: -0.117D-01 0.210D-01 0.204D+00 0.787D+00
 Coeff-En:   0.000D+00 0.000D+00 0.000D+00 0.100D+01
 Coeff:     -0.116D-01 0.209D-01 0.203D+00 0.787D+00
 Gap=     0.274 Goal=   None    Shift=    0.000
 RMSDP=3.92D-05 MaxDP=3.59D-04 DE=-1.09D-04 OVMax= 4.40D-04

 Cycle   5  Pass 0  IDiag  1:
 E= -199.361279036502     Delta-E=       -0.000004641258 Rises=F Damp=F
 DIIS: error= 5.12D-06 at cycle   5 NSaved=   5.
 NSaved= 5 IEnMin= 5 EnMin= -199.361279036502     IErMin= 5 ErrMin= 5.12D-06
 ErrMax= 5.12D-06  0.00D+00 EMaxC= 1.00D-01 BMatC= 9.66D-10 BMatP= 8.03D-06
 IDIUse=1 WtCom= 1.00D+00 WtEn= 0.00D+00
 Coeff-Com:  0.252D-03-0.613D-03-0.758D-02-0.368D-01 0.104D+01
 Coeff:      0.252D-03-0.613D-03-0.758D-02-0.368D-01 0.104D+01
 Gap=     0.274 Goal=   None    Shift=    0.000
 RMSDP=5.52D-07 MaxDP=5.62D-06 DE=-4.64D-06 OVMax= 6.95D-06

 Initial convergence to 1.0D-05 achieved.  Increase integral accuracy.
 Cycle   6  Pass 1  IDiag  1:
 E= -199.361258763701     Delta-E=        0.000020272800 Rises=F Damp=F
 DIIS: error= 8.01D-06 at cycle   1 NSaved=   1.
 NSaved= 1 IEnMin= 1 EnMin= -199.361258763701     IErMin= 1 ErrMin= 8.01D-06
 ErrMax= 8.01D-06  0.00D+00 EMaxC= 1.00D-01 BMatC= 1.14D-09 BMatP= 1.14D-09
 IDIUse=1 WtCom= 1.00D+00 WtEn= 0.00D+00
 Coeff-Com:  0.100D+01
 Coeff:      0.100D+01
 Gap=     0.274 Goal=   None    Shift=    0.000
 RMSDP=5.52D-07 MaxDP=5.62D-06 DE= 2.03D-05 OVMax= 1.35D-05

 Cycle   7  Pass 1  IDiag  1:
 E= -199.361258764745     Delta-E=       -0.000000001044 Rises=F Damp=F
 DIIS: error= 1.97D-06 at cycle   2 NSaved=   2.
 NSaved= 2 IEnMin= 2 EnMin= -199.361258764745     IErMin= 2 ErrMin= 1.97D-06
 ErrMax= 1.97D-06  0.00D+00 EMaxC= 1.00D-01 BMatC= 1.71D-10 BMatP= 1.14D-09
 IDIUse=1 WtCom= 1.00D+00 WtEn= 0.00D+00
 Coeff-Com:  0.211D+00 0.789D+00
 Coeff:      0.211D+00 0.789D+00
 Gap=     0.274 Goal=   None    Shift=    0.000
 RMSDP=2.71D-07 MaxDP=3.21D-06 DE=-1.04D-09 OVMax= 3.11D-06

 Cycle   8  Pass 1  IDiag  1:
 E= -199.361258764826     Delta-E=       -0.000000000081 Rises=F Damp=F
 DIIS: error= 9.59D-07 at cycle   3 NSaved=   3.
 NSaved= 3 IEnMin= 3 EnMin= -199.361258764826     IErMin= 3 ErrMin= 9.59D-07
 ErrMax= 9.59D-07  0.00D+00 EMaxC= 1.00D-01 BMatC= 4.31D-11 BMatP= 1.71D-10
 IDIUse=1 WtCom= 1.00D+00 WtEn= 0.00D+00
 Coeff-Com: -0.908D-02 0.326D+00 0.683D+00
 Coeff:     -0.908D-02 0.326D+00 0.683D+00
 Gap=     0.274 Goal=   None    Shift=    0.000
 RMSDP=8.67D-08 MaxDP=1.19D-06 DE=-8.08D-11 OVMax= 1.21D-06

 Cycle   9  Pass 1  IDiag  1:
 E= -199.361258764853     Delta-E=       -0.000000000027 Rises=F Damp=F
 DIIS: error= 1.69D-07 at cycle   4 NSaved=   4.
 NSaved= 4 IEnMin= 4 EnMin= -199.361258764853     IErMin= 4 ErrMin= 1.69D-07
 ErrMax= 1.69D-07  0.00D+00 EMaxC= 1.00D-01 BMatC= 8.72D-13 BMatP= 4.31D-11
 IDIUse=1 WtCom= 1.00D+00 WtEn= 0.00D+00
 Coeff-Com: -0.781D-02 0.109D+00 0.266D+00 0.633D+00
 Coeff:     -0.781D-02 0.109D+00 0.266D+00 0.633D+00
 Gap=     0.274 Goal=   None    Shift=    0.000
 RMSDP=1.05D-08 MaxDP=6.92D-08 DE=-2.72D-11 OVMax= 2.19D-07

 Cycle  10  Pass 1  IDiag  1:
 E= -199.361258764854     Delta-E=       -0.000000000000 Rises=F Damp=F
 DIIS: error= 3.92D-09 at cycle   5 NSaved=   5.
 NSaved= 5 IEnMin= 5 EnMin= -199.361258764854     IErMin= 5 ErrMin= 3.92D-09
 ErrMax= 3.92D-09  0.00D+00 EMaxC= 1.00D-01 BMatC= 3.30D-16 BMatP= 8.72D-13
 IDIUse=1 WtCom= 1.00D+00 WtEn= 0.00D+00
 Coeff-Com:  0.168D-03-0.428D-02-0.103D-01-0.402D-01 0.105D+01
 Coeff:      0.168D-03-0.428D-02-0.103D-01-0.402D-01 0.105D+01
 Gap=     0.274 Goal=   None    Shift=    0.000
 RMSDP=4.18D-10 MaxDP=3.28D-09 DE=-3.41D-13 OVMax= 6.43D-09

 SCF Done:  E(RB3LYP) =  -199.361258765     A.U. after   10 cycles
            NFock= 10  Conv=0.42D-09     -V/T= 2.0050
 KE= 1.983726998777D+02 PE=-5.379699870512D+02 EE= 1.090940710765D+02
 Leave Link  502 at Mon Mar 21 20:04:16 2022, MaxMem=  8589934592 cpu:               1.5 elap:               0.2
 (Enter /home/sabyasachi/g16/l801.exe)
 DoSCS=F DFT=T ScalE2(SS,OS)=  1.000000  1.000000
 ExpMin= 8.34D-02 ExpMax= 2.89D+03 ExpMxC= 4.35D+02 IAcc=3 IRadAn=         5 AccDes= 0.00D+00
 HarFok:  IExCor=  205 AccDes= 0.00D+00 IRadAn=         5 IDoV=-2 UseB2=F ITyADJ=14
 ICtDFT= 12500011 ScaDFX=  1.000000  1.000000  1.000000  1.000000
 Largest valence mixing into a core orbital is  3.61D-05
 Largest core mixing into a valence orbital is  1.39D-05
 Range of M.O.s used for correlation:     3    46
 NBasis=    46 NAE=     9 NBE=     9 NFC=     2 NFV=     0
 NROrb=     44 NOA=     7 NOB=     7 NVA=    37 NVB=    37
 Leave Link  801 at Mon Mar 21 20:04:16 2022, MaxMem=  8589934592 cpu:               0.4 elap:               0.1
 (Enter /home/sabyasachi/g16/l914.exe)
 RHF ground state
 Keep R1, R2, and R3 ints in memory in symmetry-blocked form, NReq=77136223.
 FoFCou: FMM=F IPFlag=           0 FMFlag=           0 FMFlg1=           0
         NFxFlg=           0 DoJE=F BraDBF=F KetDBF=F FulRan=T
         wScrn=  0.000000 ICntrl=       600 IOpCl=  0 I1Cent=           0 NGrid=           0
         NMat0=    1 NMatS0=   1081 NMatT0=    0 NMatD0=    1 NMtDS0=    0 NMtDT0=    0
 Petite list used in FoFCou.
 MDV=  8589934592 DFT=T DoStab=F Mixed=T DoRPA=T DoScal=F NonHer=T
 Making orbital integer symmetry assigments:
 Orbital symmetries:
       Occupied  (SGU) (SGG) (SGG) (SGU) (SGG) (PIU) (PIU) (PIG)
                 (PIG)
       Virtual   (SGU) (SGG) (SGU) (PIU) (PIU) (PIG) (PIG) (SGG)
                 (SGU) (DLTG) (DLTG) (PIU) (PIU) (SGU) (DLTU) (DLTU)
                 (SGG) (PIG) (PIG) (PIU) (PIU) (SGG) (SGU) (PIG)
                 (PIG) (SGG) (SGU) (SGG) (PIU) (PIU) (DLTG) (DLTG)
                 (DLTU) (DLTU) (PIG) (PIG) (SGU)
   259 initial guesses have been made.
 Convergence on wavefunction:    0.001000000000000
 Davidson Disk Diagonalization:  ConvIn= 1.00D-03 SkipCon=T Conv= 1.00D-03.
 Max sub-space:  1554 roots to seek:   518 dimension of matrix:          518
 *** WARNING: Number of orthogonal guesses is          259
 Iteration     1 Dimension   259 NMult     0 NNew    259
 CISAX will form   259 AO SS matrices at one time.
 NMat=   259 NSing=   259 JSym2X=-1.
 New state      5 was old state      6
 New state      6 was old state      7
 New state      7 was old state      8
 New state      8 was old state      9
 New state      9 was old state      5
 New state     10 was old state     11
 New state     11 was old state     13
 New state     13 was old state     18
 New state     14 was old state     19
 New state     16 was old state     14
 New state     18 was old state     10
 New state     19 was old state     16
 New state     22 was old state     23
 New state     23 was old state     22
 New state     25 was old state     26
 New state     26 was old state     25
 New state     27 was old state     28
 New state     28 was old state     29
 New state     29 was old state     27
 New state     30 was old state     34
 New state     31 was old state     35
 New state     32 was old state     30
 New state     33 was old state     31
 New state     34 was old state     36
 New state     35 was old state     37
 New state     36 was old state     33
 New state     37 was old state     32
 New state     45 was old state     46
 New state     46 was old state     45
 New state     47 was old state     49
 New state     49 was old state     47
 New state     50 was old state     52
 New state     52 was old state     56
 New state     53 was old state     55
 New state     54 was old state     50
 New state     55 was old state     58
 New state     56 was old state     53
 New state     57 was old state     54
 New state     58 was old state     60
 New state     60 was old state     57
 New state     65 was old state     66
 New state     66 was old state     65
 New state     67 was old state     75
 New state     68 was old state     76
 New state     69 was old state     78
 New state     70 was old state     69
 New state     71 was old state     68
 New state     73 was old state     71
 New state     74 was old state     73
 New state     75 was old state     70
 New state     76 was old state     67
 New state     78 was old state     74
 New state     79 was old state     80
 New state     80 was old state     81
 New state     81 was old state     79
 New state     82 was old state     86
 New state     83 was old state     87
 New state     84 was old state     82
 New state     85 was old state     83
 New state     86 was old state     84
 New state     87 was old state     85
 New state     88 was old state     89
 New state     89 was old state     88
 New state     90 was old state     92
 New state     91 was old state     90
 New state     92 was old state     91
 New state     93 was old state     94
 New state     94 was old state     95
 New state     95 was old state     93
 New state     96 was old state    100
 New state     97 was old state    101
 New state     98 was old state     99
 New state     99 was old state     97
 New state    100 was old state     96
 New state    101 was old state     98
 New state    102 was old state    104
 New state    104 was old state    102
 New state    108 was old state    109
 New state    109 was old state    108
 New state    110 was old state    112
 New state    111 was old state    113
 New state    112 was old state    111
 New state    113 was old state    110
 New state    116 was old state    118
 New state    117 was old state    116
 New state    118 was old state    120
 New state    120 was old state    121
 New state    121 was old state    122
 New state    122 was old state    123
 New state    123 was old state    124
 New state    124 was old state    125
 New state    125 was old state    126
 New state    126 was old state    128
 New state    127 was old state    131
 New state    128 was old state    130
 New state    130 was old state    134
 New state    131 was old state    135
 New state    132 was old state    133
 New state    133 was old state    132
 New state    134 was old state    117
 New state    135 was old state    137
 New state    137 was old state    127
 New state    142 was old state    143
 New state    143 was old state    144
 New state    144 was old state    142
 New state    145 was old state    152
 New state    146 was old state    153
 New state    147 was old state    148
 New state    148 was old state    151
 New state    149 was old state    150
 New state    150 was old state    146
 New state    151 was old state    145
 New state    152 was old state    147
 New state    153 was old state    155
 New state    154 was old state    156
 New state    155 was old state    154
 New state    156 was old state    168
 New state    157 was old state    161
 New state    158 was old state    159
 New state    159 was old state    162
 New state    160 was old state    157
 New state    161 was old state    158
 New state    162 was old state    164
 New state    164 was old state    165
 New state    165 was old state    167
 New state    167 was old state    169
 New state    168 was old state    170
 New state    169 was old state    171
 New state    170 was old state    149
 New state    171 was old state    173
 New state    173 was old state    174
 New state    174 was old state    175
 New state    175 was old state    182
 New state    178 was old state    181
 New state    181 was old state    178
 New state    182 was old state    184
 New state    184 was old state    185
 New state    185 was old state    186
 No map to state    186
 New state    193 was old state    194
 New state    194 was old state    193
 New state    195 was old state    196
 New state    196 was old state    197
 New state    197 was old state    195
 New state    198 was old state    199
 New state    199 was old state    201
 New state    200 was old state    202
 New state    201 was old state    198
 New state    202 was old state    205
 New state    203 was old state    206
 New state    205 was old state    203
 New state    206 was old state    209
 New state    207 was old state    210
 New state    208 was old state    200
 New state    209 was old state    208
 New state    210 was old state    207
 New state    213 was old state    216
 New state    214 was old state    215
 New state    215 was old state    221
 New state    216 was old state    222
 New state    219 was old state    225
 New state    220 was old state    223
 New state    221 was old state    226
 New state    222 was old state    227
 New state    223 was old state    228
 New state    224 was old state    220
 New state    225 was old state    219
 New state    226 was old state    229
 New state    227 was old state    230
 New state    228 was old state    231
 New state    229 was old state    233
 New state    230 was old state    213
 New state    231 was old state    214
 New state    232 was old state    224
 New state    233 was old state    236
 New state    234 was old state    237
 New state    235 was old state    232
 New state    236 was old state    235
 New state    237 was old state    234
 New state    245 was old state    246
 New state    246 was old state    245
 New state    253 was old state    254
 New state    254 was old state    253
 Excitation Energies [eV] at current iteration:
 Root      1 :     4.841600140091638
 Root      2 :     4.841600140092266
 Root      3 :     8.672595329170486
 Root      4 :     8.672595329170608
 Root      5 :    12.644477289240920
 Root      6 :    12.644477289241180
 Root      7 :    12.937962135418300
 Root      8 :    12.937962135418530
 Root      9 :    13.215002634758430
 Root     10 :    13.787822098567510
 Root     11 :    13.787836473966500
 Root     12 :    13.796635714553270
 Root     13 :    15.566982939327140
 Root     14 :    15.566982939327270
 Root     15 :    15.629144222054830
 Root     16 :    15.629150717896870
 Root     17 :    15.668234106168270
 Root     18 :    15.825525264155720
 Root     19 :    16.097632231990670
 Root     20 :    16.596470957526210
 Root     21 :    16.596470957526230
 Root     22 :    16.843095367777280
 Root     23 :    16.843095367777320
 Root     24 :    17.643259578715730
 Root     25 :    17.643268528986270
 Root     26 :    17.660113921952680
 Root     27 :    18.055676052994980
 Root     28 :    18.931452216323740
 Root     29 :    18.947638709981640
 Root     30 :    19.356281049588250
 Root     31 :    19.356281049588260
 Root     32 :    19.503617016799230
 Root     33 :    19.503621492108740
 Root     34 :    19.527608390334960
 Root     35 :    19.527608390334980
 Root     36 :    19.536584835824830
 Root     37 :    20.172633060901700
 Root     38 :    21.005753463565060
 Root     39 :    21.005753463565360
 Root     40 :    21.202095298234870
 Root     41 :    21.202095298234890
 Root     42 :    21.260190431461210
 Root     43 :    22.471843832066810
 Root     44 :    22.471843832066820
 Root     45 :    22.859019713077100
 Root     46 :    22.859019713077100
 Root     47 :    24.803966198419340
 Root     48 :    24.803966198419390
 Root     49 :    24.959433430038580
 Root     50 :    26.245379636046810
 Root     51 :    26.245379636046810
 Root     52 :    26.568805790459480
 Root     53 :    26.568812450069290
 Root     54 :    26.581755594744590
 Root     55 :    26.670472345122270
 Root     56 :    27.156997349831930
 Root     57 :    27.156997349831970
 Root     58 :    28.116392722460080
 Root     59 :    28.116394905997540
 Root     60 :    28.239831228862450
 Root     61 :    28.529032327963480
 Root     62 :    28.529032327963510
 Root     63 :    28.605911924629960
 Root     64 :    28.605911924629990
 Root     65 :    29.216154363121170
 Root     66 :    29.216154363121180
 Root     67 :    30.232688237713260
 Root     68 :    30.232699448007730
 Root     69 :    30.345713087298250
 Root     70 :    30.614962363175370
 Root     71 :    30.614962363175490
 Root     72 :    30.879250492973470
 Root     73 :    30.889033927941190
 Root     74 :    30.889041079681090
 Root     75 :    31.043687841318730
 Root     76 :    31.208055624362520
 Root     77 :    31.805991538555440
 Root     78 :    31.900797935816190
 Root     79 :    32.079078299279110
 Root     80 :    32.079078299279140
 Root     81 :    32.314367446853040
 Root     82 :    32.379881773804040
 Root     83 :    32.379881773804060
 Root     84 :    32.501697706148980
 Root     85 :    32.501697706149050
 Root     86 :    32.674308482622600
 Root     87 :    32.674308482622690
 Root     88 :    32.845539168184360
 Root     89 :    32.845539168184390
 Root     90 :    33.752750229425640
 Root     91 :    33.966265344969770
 Root     92 :    33.966265344969830
 Root     93 :    34.150915712598850
 Root     94 :    34.150917733106920
 Root     95 :    34.162015412235140
 Root     96 :    34.560325216627900
 Root     97 :    34.560329566969890
 Root     98 :    34.569660096230630
 Root     99 :    34.706373696626390
 Root    100 :    34.706373696626550
 Root    101 :    35.927221272138300
 Root    102 :    36.285460988403860
 Root    103 :    36.285460988403980
 Root    104 :    36.756780209262160
 Root    105 :    38.422340973214120
 Root    106 :    38.727795083329350
 Root    107 :    39.390276423331470
 Root    108 :    39.566262306989920
 Root    109 :    39.566262306989960
 Root    110 :    40.811254065495380
 Root    111 :    40.811259114781530
 Root    112 :    41.390643482643880
 Root    113 :    41.390643482643920
 Root    114 :    41.407405590535570
 Root    115 :    43.178442729421110
 Root    116 :    43.255912483443520
 Root    117 :    43.255924690393410
 Root    118 :    45.000791100657690
 Root    119 :    45.000791100657710
 Root    120 :    46.458767450321840
 Root    121 :    46.829487994659000
 Root    122 :    46.864907559867040
 Root    123 :    46.864909694596180
 Root    124 :    47.010624163068950
 Root    125 :    47.133433012321940
 Root    126 :    47.133437894937010
 Root    127 :    48.266040019522280
 Root    128 :    48.288105271913710
 Root    129 :    48.288105759592780
 Root    130 :    48.627111876873420
 Root    131 :    48.627111876873420
 Root    132 :    49.144257121706200
 Root    133 :    49.144257121706230
 Root    134 :    49.321364892494120
 Root    135 :    49.410012161516010
 Root    136 :    49.410012161518540
 Root    137 :    49.998837727719010
 Root    138 :    52.415214616158790
 Root    139 :    52.415214616158850
 Root    140 :    53.296565625962490
 Root    141 :    53.296565625964950
 Root    142 :    54.298537545076090
 Root    143 :    54.298540736609050
 Root    144 :    54.416425926012070
 Root    145 :    54.723608386270580
 Root    146 :    54.723608386270730
 Root    147 :    54.747682028106450
 Root    148 :    54.747971966482790
 Root    149 :    54.747977339613610
 Root    150 :    54.953583336446170
 Root    151 :    54.953583336447270
 Root    152 :    55.008658319087220
 Root    153 :    56.519557383508070
 Root    154 :    56.519557383508240
 Root    155 :    56.530534013914980
 Root    156 :    57.769396625387440
 Root    157 :    58.525010517968760
 Root    158 :    58.525017517575490
 Root    159 :    58.580234347948140
 Root    160 :    58.813982467540800
 Root    161 :    58.813982467541560
 Root    162 :    58.824689574955630
 Root    163 :    58.824689574955980
 Root    164 :    59.651666907456570
 Root    165 :    60.166161859214610
 Root    166 :    60.166161859215510
 Root    167 :    61.911843975152590
 Root    168 :    61.911843975153670
 Root    169 :    63.467943505617010
 Root    170 :    64.201076463015280
 Root    171 :    68.238484234122520
 Root    172 :    68.238484234123220
 Root    173 :    69.242883247259210
 Root    174 :    69.242883247261790
 Root    175 :    70.831620486531960
 Root    176 :    71.993688178360260
 Root    177 :    71.993688178362720
 Root    178 :    73.122403358659310
 Root    179 :    73.236903922857180
 Root    180 :    73.236903922857310
 Root    181 :    74.243790020660200
 Root    182 :    75.260447068379110
 Root    183 :    77.100857597777220
 Root    184 :    80.450313397518630
 Root    185 :    80.450313397518760
 Root    186 :    81.263197698956190
 Root    187 :    81.947894805818490
 Root    188 :    85.929942207934620
 Root    189 :    85.929942207934640
 Root    190 :    87.341740633833870
 Root    191 :    89.664988753524260
 Root    192 :    89.664988753524260
 Root    193 :    89.975012846158040
 Root    194 :    89.975014864376560
 Root    195 :    90.104186084376920
 Root    196 :    91.644608643973800
 Root    197 :    92.998368384713940
 Root    198 :    93.808853929367230
 Root    199 :    93.808856089518770
 Root    200 :    93.914875330669430
 Root    201 :    94.759059299777230
 Root    202 :    95.569677001001650
 Root    203 :    95.569677001001660
 Root    204 :    95.899367357321000
 Root    205 :    95.899367357321070
 Root    206 :    96.990244310661010
 Root    207 :    96.990244310661040
 Root    208 :    97.783377960229830
 Root    209 :    98.260722808131460
 Root    210 :    98.260722808131590
 Root    211 :    99.613338156966580
 Root    212 :    99.613338156966590
 Root    213 :   100.099717977835600
 Root    214 :   100.099717977835600
 Root    215 :   101.410065490659500
 Root    216 :   101.410174364511300
 Root    217 :   101.506342805077500
 Root    218 :   101.506342805078000
 Root    219 :   102.485225958766400
 Root    220 :   102.485226301034800
 Root    221 :   102.556603535447200
 Root    222 :   103.032203302249200
 Root    223 :   103.032313042758000
 Root    224 :   103.872748579481800
 Root    225 :   103.872748579481900
 Root    226 :   104.586520337823000
 Root    227 :   106.263239506302200
 Root    228 :   106.263239658508600
 Root    229 :   106.377476248618400
 Root    230 :   106.848852387402500
 Root    231 :   106.848852387402600
 Root    232 :   108.117446189318900
 Root    233 :   109.139612702716000
 Root    234 :   109.139612702716400
 Root    235 :   109.337849703467800
 Root    236 :   111.114480115187300
 Root    237 :   111.114480115187600
 Root    238 :   112.780548658955000
 Root    239 :   115.010479773106000
 Root    240 :   115.010590634811600
 Root    241 :   116.719433799604800
 Root    242 :   116.719546660568900
 Root    243 :   116.985602549323600
 Root    244 :   116.985602549324000
 Root    245 :   121.634527113694300
 Root    246 :   121.634527113694300
 Root    247 :   122.230713096515600
 Root    248 :   122.230822884918200
 Root    249 :   123.798090566576300
 Root    250 :   123.798201497322800
 Root    251 :   128.648209259789600
 Root    252 :   128.648209259790000
 Root    253 :   130.852468348720100
 Root    254 :   130.852468348720700
 Root    255 :   134.490643915921100
 Root    256 :   134.490643915921900
 Root    257 :   136.985492558246000
 Root    258 :   149.123804665067300
 Root    259 :   156.028979740897700
 Convergence achieved for final wavefunctions.
 ***********************************************************************
 Excited states from <AA,BB:AA,BB> singles matrix:
 ***********************************************************************
 
 1PDM for each excited state written to RWF  633
 Ground to excited state transition densities written to RWF  633
 Ground to excited state transition electric dipole moments (Au):
       state          X           Y           Z        Dip. S.      Osc.
         1         0.0051     -0.0226     -0.0000      0.0005      0.0001
         2        -0.0226     -0.0051     -0.0000      0.0005      0.0001
         3        -0.0000      0.0000     -0.0000      0.0000      0.0000
         4         0.0000     -0.0000      0.0000      0.0000      0.0000
         5        -0.0000     -0.0000      0.0000      0.0000      0.0000
         6         0.0000      0.0000     -0.0000      0.0000      0.0000
         7         0.0099     -0.2975     -0.0000      0.0886      0.0281
         8        -0.2975     -0.0099     -0.0000      0.0886      0.0281
         9         0.0000      0.0000     -1.0651      1.1344      0.3673
        10         0.0000     -0.0000      0.0000      0.0000      0.0000
        11         0.0000      0.0000     -0.0000      0.0000      0.0000
        12        -0.0000      0.0000      0.0000      0.0000      0.0000
        13         0.0000     -0.0000      0.0000      0.0000      0.0000
        14         0.0000     -0.0000     -0.0000      0.0000      0.0000
        15        -0.0000      0.0000     -0.0000      0.0000      0.0000
        16         0.0000     -0.0000      0.0000      0.0000      0.0000
        17        -0.0000      0.0000      0.0000      0.0000      0.0000
        18        -0.0000     -0.0000     -0.8993      0.8088      0.3136
        19        -0.0000      0.0000      0.0000      0.0000      0.0000
        20         0.3415      0.3583      0.0000      0.2451      0.0996
        21         0.3583     -0.3415     -0.0000      0.2451      0.0996
        22        -0.0000     -0.0000     -0.0000      0.0000      0.0000
        23        -0.0000     -0.0000     -0.0000      0.0000      0.0000
        24         0.0000      0.0000      0.0000      0.0000      0.0000
        25         0.0000      0.0000     -0.0000      0.0000      0.0000
        26        -0.0000     -0.0000      0.0000      0.0000      0.0000
        27        -0.0000     -0.0000     -0.0000      0.0000      0.0000
        28         0.0000     -0.0000      0.1512      0.0229      0.0106
        29        -0.0000      0.0000      0.0000      0.0000      0.0000
        30        -0.1017      0.1022      0.0000      0.0208      0.0099
        31         0.1022      0.1017     -0.0000      0.0208      0.0099
        32        -0.0000     -0.0000     -0.0000      0.0000      0.0000
        33        -0.0000     -0.0000      0.0000      0.0000      0.0000
        34        -0.1613     -0.3262     -0.0000      0.1324      0.0633
        35        -0.3262      0.1613     -0.0000      0.1324      0.0633
        36        -0.0000     -0.0000      0.0000      0.0000      0.0000
        37         0.0000      0.0000      0.0880      0.0078      0.0038
        38         0.1942      0.2992      0.0000      0.1272      0.0655
        39         0.2992     -0.1942     -0.0000      0.1272      0.0655
        40        -0.0000      0.0000      0.0000      0.0000      0.0000
        41        -0.0000      0.0000      0.0000      0.0000      0.0000
        42         0.0000     -0.0000     -0.0000      0.0000      0.0000
        43         0.0000     -0.0000     -0.0000      0.0000      0.0000
        44        -0.0000     -0.0000     -0.0000      0.0000      0.0000
        45         0.0000      0.0000      0.0000      0.0000      0.0000
        46         0.0000     -0.0000     -0.0000      0.0000      0.0000
        47         0.0000      0.0000      0.0000      0.0000      0.0000
        48         0.0000      0.0000      0.0000      0.0000      0.0000
        49        -0.0000     -0.0000      0.0000      0.0000      0.0000
        50         0.0000      0.0000      0.0000      0.0000      0.0000
        51         0.0000     -0.0000     -0.0000      0.0000      0.0000
        52         0.0000     -0.0000      0.0000      0.0000      0.0000
        53        -0.0000     -0.0000     -0.0000      0.0000      0.0000
        54        -0.0000     -0.0000      0.5016      0.2516      0.1638
        55        -0.0000     -0.0000     -0.0000      0.0000      0.0000
        56         0.5088      0.4919      0.0000      0.5009      0.3332
        57         0.4919     -0.5088      0.0000      0.5009      0.3332
        58        -0.0000      0.0000     -0.0000      0.0000      0.0000
        59         0.0000     -0.0000     -0.0000      0.0000      0.0000
        60         0.0000     -0.0000      1.2226      1.4947      1.0341
        61        -0.0618     -0.1294     -0.0000      0.0206      0.0144
        62        -0.1294      0.0618     -0.0000      0.0206      0.0144
        63        -0.0000     -0.0000     -0.0000      0.0000      0.0000
        64         0.0000     -0.0000     -0.0000      0.0000      0.0000
        65         0.1108      0.8598      0.0000      0.7516      0.5380
        66         0.8598     -0.1108     -0.0000      0.7516      0.5380
        67         0.0000      0.0000      0.0000      0.0000      0.0000
        68         0.0000     -0.0000     -0.0000      0.0000      0.0000
        69        -0.0000     -0.0000      0.0000      0.0000      0.0000
        70         0.0000      0.0000     -0.0000      0.0000      0.0000
        71        -0.0000      0.0000     -0.0000      0.0000      0.0000
        72         0.0000     -0.0000     -0.0000      0.0000      0.0000
        73         0.0000      0.0000      0.0000      0.0000      0.0000
        74         0.0000     -0.0000     -0.0000      0.0000      0.0000
        75         0.0000     -0.0000      0.0000      0.0000      0.0000
        76        -0.0000     -0.0000      0.2525      0.0638      0.0488
        77         0.0000     -0.0000     -0.0000      0.0000      0.0000
        78         0.0000      0.0000      0.0000      0.0000      0.0000
        79        -0.0000     -0.0000     -0.0000      0.0000      0.0000
        80         0.0000     -0.0000     -0.0000      0.0000      0.0000
        81        -0.0000     -0.0000     -0.2898      0.0840      0.0665
        82         0.0000     -0.0000      0.0000      0.0000      0.0000
        83        -0.0000     -0.0000      0.0000      0.0000      0.0000
        84        -0.0000      0.0000     -0.0000      0.0000      0.0000
        85        -0.0000      0.0000     -0.0000      0.0000      0.0000
        86         0.7027      0.1880     -0.0000      0.5292      0.4236
        87        -0.1880      0.7027     -0.0000      0.5292      0.4236
        88         0.0000      0.0000      0.0000      0.0000      0.0000
        89        -0.0000      0.0000      0.0000      0.0000      0.0000
        90         0.0000      0.0000     -0.2350      0.0552      0.0457
        91        -0.0012      0.0002     -0.0000      0.0000      0.0000
        92        -0.0002     -0.0012     -0.0000      0.0000      0.0000
        93        -0.0000     -0.0000     -0.0000      0.0000      0.0000
        94        -0.0000     -0.0000     -0.0000      0.0000      0.0000
        95         0.0000      0.0000      0.0663      0.0044      0.0037
        96         0.0000     -0.0000      0.0000      0.0000      0.0000
        97         0.0000      0.0000     -0.0000      0.0000      0.0000
        98        -0.0000      0.0000      0.0000      0.0000      0.0000
        99        -0.3040      0.0262      0.0000      0.0931      0.0792
       100        -0.0262     -0.3040      0.0000      0.0931      0.0792
       101        -0.0000     -0.0000     -0.2878      0.0828      0.0729
       102         0.0000     -0.0000      0.0000      0.0000      0.0000
       103        -0.0000      0.0000     -0.0000      0.0000      0.0000
       104         0.0000      0.0000      0.0000      0.0000      0.0000
       105         0.0000      0.0000      0.0000      0.0000      0.0000
       106         0.0000     -0.0000      0.0400      0.0016      0.0015
       107        -0.0000      0.0000     -0.0000      0.0000      0.0000
       108        -0.0245     -0.0087      0.0000      0.0007      0.0007
       109         0.0087     -0.0245     -0.0000      0.0007      0.0007
       110        -0.0000     -0.0000      0.0000      0.0000      0.0000
       111        -0.0000     -0.0000     -0.0000      0.0000      0.0000
       112         0.0000      0.0000      0.0000      0.0000      0.0000
       113        -0.0000     -0.0000     -0.0000      0.0000      0.0000
       114        -0.0000      0.0000      0.0000      0.0000      0.0000
       115         0.0000     -0.0000     -0.0000      0.0000      0.0000
       116        -0.0000     -0.0000     -0.0000      0.0000      0.0000
       117         0.0000     -0.0000     -0.0000      0.0000      0.0000
       118         0.0000     -0.0000      0.0000      0.0000      0.0000
       119        -0.0000     -0.0000     -0.0000      0.0000      0.0000
       120         0.0000      0.0000     -0.0840      0.0071      0.0080
       121         0.0000     -0.0000      0.0000      0.0000      0.0000
       122         0.0000      0.0000     -0.0000      0.0000      0.0000
       123        -0.0000      0.0000      0.0000      0.0000      0.0000
       124        -0.0000     -0.0000     -0.0000      0.0000      0.0000
       125        -0.0000      0.0000      0.0000      0.0000      0.0000
       126         0.0000      0.0000     -0.0000      0.0000      0.0000
       127         0.0000      0.0000     -0.2166      0.0469      0.0555
       128         0.0000     -0.0000      0.0000      0.0000      0.0000
       129         0.0000      0.0000      0.0000      0.0000      0.0000
       130         0.1672     -0.0715     -0.0000      0.0331      0.0394
       131         0.0715      0.1672      0.0000      0.0331      0.0394
       132         0.0836     -0.0089     -0.0000      0.0071      0.0085
       133         0.0089      0.0836      0.0000      0.0071      0.0085
       134        -0.0000      0.0000     -0.0524      0.0027      0.0033
       135        -0.0000     -0.0000      0.0000      0.0000      0.0000
       136        -0.0000      0.0000     -0.0000      0.0000      0.0000
       137        -0.0000     -0.0000      0.0000      0.0000      0.0000
       138         0.0568      0.0152     -0.0000      0.0035      0.0044
       139        -0.0152      0.0568      0.0000      0.0035      0.0044
       140        -0.0042      0.3475     -0.0000      0.1208      0.1577
       141         0.3475      0.0042      0.0000      0.1208      0.1577
       142        -0.0000      0.0000     -0.0000      0.0000      0.0000
       143        -0.0000      0.0000      0.0000      0.0000      0.0000
       144         0.0000     -0.0000     -0.0969      0.0094      0.0125
       145        -0.0000      0.0000      0.0000      0.0000      0.0000
       146        -0.0000      0.0000     -0.0000      0.0000      0.0000
       147         0.0000      0.0000      0.0000      0.0000      0.0000
       148         0.0000      0.0000      0.0000      0.0000      0.0000
       149        -0.0000      0.0000      0.0000      0.0000      0.0000
       150        -0.1168      0.0112     -0.0000      0.0138      0.0185
       151        -0.0112     -0.1168      0.0000      0.0138      0.0185
       152         0.0000     -0.0000     -0.0000      0.0000      0.0000
       153        -0.0000     -0.0000      0.0000      0.0000      0.0000
       154        -0.0000     -0.0000     -0.0000      0.0000      0.0000
       155        -0.0000     -0.0000      0.0000      0.0000      0.0000
       156         0.0000      0.0000      0.0000      0.0000      0.0000
       157         0.0000     -0.0000      0.0000      0.0000      0.0000
       158        -0.0000     -0.0000     -0.0000      0.0000      0.0000
       159        -0.0000      0.0000      0.0000      0.0000      0.0000
       160         0.0000     -0.0000     -0.0000      0.0000      0.0000
       161         0.0000      0.0000     -0.0000      0.0000      0.0000
       162        -0.0847      0.0003     -0.0000      0.0072      0.0103
       163        -0.0003     -0.0847      0.0000      0.0072      0.0103
       164         0.0000      0.0000     -0.1510      0.0228      0.0333
       165         0.0000     -0.0000     -0.0000      0.0000      0.0000
       166         0.0000      0.0000     -0.0000      0.0000      0.0000
       167         0.0000     -0.0000      0.0000      0.0000      0.0000
       168         0.0000     -0.0000      0.0000      0.0000      0.0000
       169        -0.0000      0.0000     -0.1020      0.0104      0.0162
       170        -0.0000      0.0000     -0.0000      0.0000      0.0000
       171         0.1824      0.0192     -0.0000      0.0336      0.0562
       172        -0.0192      0.1824      0.0000      0.0336      0.0562
       173        -0.3638     -0.0049     -0.0000      0.1324      0.2246
       174         0.0049     -0.3638      0.0000      0.1324      0.2246
       175         0.0000      0.0000     -0.0878      0.0077      0.0134
       176        -0.0000      0.0000     -0.0000      0.0000      0.0000
       177         0.0000     -0.0000     -0.0000      0.0000      0.0000
       178         0.0000      0.0000     -0.4006      0.1605      0.2875
       179        -0.2152     -0.1945     -0.0000      0.0842      0.1510
       180         0.1945     -0.2152      0.0000      0.0842      0.1510
       181         0.0000     -0.0000      0.0000      0.0000      0.0000
       182        -0.0000     -0.0000     -0.0308      0.0010      0.0018
       183         0.0000      0.0000      0.0000      0.0000      0.0000
       184        -0.0000      0.0000     -0.0000      0.0000      0.0000
       185         0.0000      0.0000      0.0000      0.0000      0.0000
       186         0.0000     -0.0000      0.1519      0.0231      0.0460
       187        -0.0000     -0.0000     -0.0000      0.0000      0.0000
       188         0.0000     -0.0000     -0.0000      0.0000      0.0000
       189         0.0000     -0.0000     -0.0000      0.0000      0.0000
       190         0.0000      0.0000     -0.0000      0.0000      0.0000
       191        -0.0338     -0.0816      0.0000      0.0078      0.0171
       192        -0.0816      0.0338     -0.0000      0.0078      0.0171
       193         0.0000      0.0000      0.0000      0.0000      0.0000
       194        -0.0000     -0.0000      0.0000      0.0000      0.0000
       195         0.0000     -0.0000      0.0000      0.0000      0.0000
       196        -0.0000      0.0000      0.0000      0.0000      0.0000
       197         0.0000     -0.0000      0.6078      0.3695      0.8418
       198         0.0000     -0.0000      0.0000      0.0000      0.0000
       199         0.0000     -0.0000      0.0000      0.0000      0.0000
       200        -0.0000     -0.0000     -0.0000      0.0000      0.0000
       201        -0.0000      0.0000      0.0695      0.0048      0.0112
       202         0.0000      0.0000     -0.0000      0.0000      0.0000
       203         0.0000      0.0000     -0.0000      0.0000      0.0000
       204        -0.0067      0.0575      0.0000      0.0034      0.0079
       205         0.0575      0.0067      0.0000      0.0034      0.0079
       206         0.0000      0.0000      0.0000      0.0000      0.0000
       207        -0.0000      0.0000     -0.0000      0.0000      0.0000
       208        -0.0000     -0.0000     -0.0000      0.0000      0.0000
       209         0.0000      0.0000     -0.0000      0.0000      0.0000
       210        -0.0000     -0.0000     -0.0000      0.0000      0.0000
       211        -0.0168      0.1450      0.0000      0.0213      0.0520
       212         0.1450      0.0168      0.0000      0.0213      0.0520
       213        -0.0000     -0.0000      0.0000      0.0000      0.0000
       214        -0.0000      0.0000     -0.0000      0.0000      0.0000
       215        -0.0000     -0.0000      0.0000      0.0000      0.0000
       216         0.0000      0.0000     -0.0000      0.0000      0.0000
       217         0.0000      0.0000     -0.0000      0.0000      0.0000
       218        -0.0000     -0.0000      0.0000      0.0000      0.0000
       219         0.0000     -0.0000      0.0000      0.0000      0.0000
       220         0.0000      0.0000      0.0000      0.0000      0.0000
       221         0.0000      0.0000     -0.0000      0.0000      0.0000
       222         0.0000      0.0000     -0.0000      0.0000      0.0000
       223        -0.0000      0.0000     -0.0000      0.0000      0.0000
       224         0.0000      0.0000     -0.0000      0.0000      0.0000
       225         0.0000      0.0000      0.0000      0.0000      0.0000
       226        -0.0000     -0.0000      0.0504      0.0025      0.0065
       227         0.0000     -0.0000     -0.0000      0.0000      0.0000
       228        -0.0000      0.0000      0.0000      0.0000      0.0000
       229        -0.0000      0.0000     -0.0000      0.0000      0.0000
       230         0.7774      0.3970     -0.0000      0.7620      1.9946
       231         0.3970     -0.7774     -0.0000      0.7620      1.9946
       232        -0.0000      0.0000     -0.0000      0.0000      0.0000
       233        -0.0000     -0.0000     -0.0000      0.0000      0.0000
       234         0.0000     -0.0000     -0.0000      0.0000      0.0000
       235        -0.0000      0.0000      0.4968      0.2468      0.6612
       236         0.0000     -0.0000     -0.0000      0.0000      0.0000
       237         0.0000     -0.0000      0.0000      0.0000      0.0000
       238        -0.0000      0.0000      0.0000      0.0000      0.0000
       239         0.0000      0.0000      0.0000      0.0000      0.0000
       240         0.0000      0.0000     -0.0000      0.0000      0.0000
       241        -0.0000     -0.0000     -0.0000      0.0000      0.0000
       242        -0.0000      0.0000      0.0000      0.0000      0.0000
       243         0.1479      0.0943      0.0000      0.0308      0.0882
       244        -0.0943      0.1479     -0.0000      0.0308      0.0882
       245         0.0215     -0.0287     -0.0000      0.0013      0.0038
       246        -0.0287     -0.0215     -0.0000      0.0013      0.0038
       247         0.0000      0.0000      0.0000      0.0000      0.0000
       248        -0.0000      0.0000     -0.0000      0.0000      0.0000
       249        -0.0000     -0.0000     -0.0000      0.0000      0.0000
       250        -0.0000      0.0000     -0.0000      0.0000      0.0000
       251        -0.0000      0.0000     -0.0000      0.0000      0.0000
       252        -0.0000      0.0000      0.0000      0.0000      0.0000
       253        -0.2013     -0.0097     -0.0000      0.0406      0.1302
       254         0.0097     -0.2013     -0.0000      0.0406      0.1302
       255         0.0000      0.0000     -0.0000      0.0000      0.0000
       256        -0.0000      0.0000     -0.0000      0.0000      0.0000
       257        -0.0000     -0.0000      0.2731      0.0746      0.2503
       258         0.0000      0.0000      0.0000      0.0000      0.0000
       259         0.0000      0.0000      0.0506      0.0026      0.0098
 Ground to excited state transition velocity dipole moments (Au):
       state          X           Y           Z        Dip. S.      Osc.
         1        -0.0033      0.0146     -0.0000      0.0002      0.0008
         2         0.0146      0.0033     -0.0000      0.0002      0.0008
         3        -0.0000     -0.0000      0.0000      0.0000      0.0000
         4        -0.0000     -0.0000     -0.0000      0.0000      0.0000
         5         0.0000      0.0000     -0.0000      0.0000      0.0000
         6        -0.0000      0.0000     -0.0000      0.0000      0.0000
         7        -0.0046      0.1392      0.0000      0.0194      0.0272
         8         0.1392      0.0046      0.0000      0.0194      0.0272
         9        -0.0000     -0.0000      0.5225      0.2730      0.3747
        10        -0.0000      0.0000     -0.0000      0.0000      0.0000
        11        -0.0000     -0.0000      0.0000      0.0000      0.0000
        12         0.0000     -0.0000     -0.0000      0.0000      0.0000
        13        -0.0000      0.0000     -0.0000      0.0000      0.0000
        14        -0.0000      0.0000      0.0000      0.0000      0.0000
        15        -0.0000      0.0000      0.0000      0.0000      0.0000
        16        -0.0000      0.0000     -0.0000      0.0000      0.0000
        17         0.0000     -0.0000     -0.0000      0.0000      0.0000
        18         0.0000      0.0000      0.5326      0.2836      0.3251
        19         0.0000     -0.0000     -0.0000      0.0000      0.0000
        20        -0.2159     -0.2265     -0.0000      0.0979      0.1070
        21        -0.2265      0.2159     -0.0000      0.0979      0.1070
        22         0.0000      0.0000      0.0000      0.0000      0.0000
        23         0.0000      0.0000      0.0000      0.0000      0.0000
        24        -0.0000     -0.0000     -0.0000      0.0000      0.0000
        25        -0.0000     -0.0000     -0.0000      0.0000      0.0000
        26         0.0000     -0.0000     -0.0000      0.0000      0.0000
        27         0.0000     -0.0000      0.0000      0.0000      0.0000
        28        -0.0000     -0.0000     -0.1022      0.0104      0.0100
        29         0.0000     -0.0000     -0.0000      0.0000      0.0000
        30         0.0621     -0.0624     -0.0000      0.0077      0.0073
        31        -0.0624     -0.0621     -0.0000      0.0077      0.0073
        32         0.0000      0.0000      0.0000      0.0000      0.0000
        33        -0.0000      0.0000     -0.0000      0.0000      0.0000
        34         0.1108      0.2240      0.0000      0.0624      0.0580
        35         0.2240     -0.1108     -0.0000      0.0624      0.0580
        36         0.0000      0.0000     -0.0000      0.0000      0.0000
        37         0.0000     -0.0000     -0.0688      0.0047      0.0043
        38        -0.1571     -0.2421     -0.0000      0.0833      0.0719
        39        -0.2421      0.1571     -0.0000      0.0833      0.0719
        40         0.0000     -0.0000     -0.0000      0.0000      0.0000
        41         0.0000     -0.0000      0.0000      0.0000      0.0000
        42        -0.0000      0.0000      0.0000      0.0000      0.0000
        43        -0.0000      0.0000     -0.0000      0.0000      0.0000
        44        -0.0000      0.0000      0.0000      0.0000      0.0000
        45        -0.0000     -0.0000      0.0000      0.0000      0.0000
        46        -0.0000      0.0000      0.0000      0.0000      0.0000
        47        -0.0000     -0.0000      0.0000      0.0000      0.0000
        48        -0.0000      0.0000     -0.0000      0.0000      0.0000
        49         0.0000      0.0000      0.0000      0.0000      0.0000
        50        -0.0000     -0.0000     -0.0000      0.0000      0.0000
        51        -0.0000      0.0000      0.0000      0.0000      0.0000
        52         0.0000     -0.0000     -0.0000      0.0000      0.0000
        53        -0.0000      0.0000      0.0000      0.0000      0.0000
        54         0.0000      0.0000     -0.4803      0.2307      0.1574
        55         0.0000      0.0000      0.0000      0.0000      0.0000
        56        -0.5159     -0.4987     -0.0000      0.5148      0.3439
        57        -0.4987      0.5159     -0.0000      0.5148      0.3439
        58         0.0000     -0.0000      0.0000      0.0000      0.0000
        59        -0.0000      0.0000      0.0000      0.0000      0.0000
        60         0.0000      0.0000     -1.3020      1.6952      1.0890
        61         0.0561      0.1175      0.0000      0.0170      0.0108
        62         0.1175     -0.0561     -0.0000      0.0170      0.0108
        63         0.0000      0.0000      0.0000      0.0000      0.0000
        64        -0.0000      0.0000      0.0000      0.0000      0.0000
        65        -0.1213     -0.9410     -0.0000      0.9002      0.5589
        66        -0.9410      0.1213      0.0000      0.9002      0.5589
        67        -0.0000     -0.0000     -0.0000      0.0000      0.0000
        68        -0.0000      0.0000      0.0000      0.0000      0.0000
        69         0.0000      0.0000     -0.0000      0.0000      0.0000
        70        -0.0000     -0.0000      0.0000      0.0000      0.0000
        71         0.0000     -0.0000      0.0000      0.0000      0.0000
        72        -0.0000      0.0000      0.0000      0.0000      0.0000
        73        -0.0000      0.0000     -0.0000      0.0000      0.0000
        74        -0.0000      0.0000      0.0000      0.0000      0.0000
        75        -0.0000      0.0000     -0.0000      0.0000      0.0000
        76        -0.0000      0.0000     -0.3139      0.0985      0.0573
        77        -0.0000      0.0000      0.0000      0.0000      0.0000
        78         0.0000     -0.0000      0.0000      0.0000      0.0000
        79         0.0000      0.0000      0.0000      0.0000      0.0000
        80        -0.0000      0.0000      0.0000      0.0000      0.0000
        81         0.0000      0.0000      0.3337      0.1113      0.0625
        82        -0.0000      0.0000     -0.0000      0.0000      0.0000
        83         0.0000      0.0000     -0.0000      0.0000      0.0000
        84         0.0000     -0.0000     -0.0000      0.0000      0.0000
        85         0.0000     -0.0000      0.0000      0.0000      0.0000
        86        -0.8471     -0.2266      0.0000      0.7690      0.4270
        87         0.2266     -0.8471      0.0000      0.7690      0.4270
        88        -0.0000     -0.0000     -0.0000      0.0000      0.0000
        89         0.0000     -0.0000      0.0000      0.0000      0.0000
        90         0.0000     -0.0000      0.2955      0.0873      0.0469
        91        -0.0090      0.0013     -0.0000      0.0001      0.0000
        92        -0.0013     -0.0090     -0.0000      0.0001      0.0000
        93         0.0000      0.0000      0.0000      0.0000      0.0000
        94         0.0000      0.0000      0.0000      0.0000      0.0000
        95        -0.0000     -0.0000     -0.0970      0.0094      0.0050
        96        -0.0000      0.0000     -0.0000      0.0000      0.0000
        97        -0.0000     -0.0000      0.0000      0.0000      0.0000
        98         0.0000     -0.0000     -0.0000      0.0000      0.0000
        99         0.3912     -0.0337      0.0000      0.1542      0.0806
       100         0.0337      0.3912     -0.0000      0.1542      0.0806
       101         0.0000      0.0000      0.4410      0.1945      0.0982
       102         0.0000      0.0000     -0.0000      0.0000      0.0000
       103         0.0000     -0.0000      0.0000      0.0000      0.0000
       104         0.0000     -0.0000      0.0000      0.0000      0.0000
       105        -0.0000     -0.0000     -0.0000      0.0000      0.0000
       106        -0.0000      0.0000     -0.0378      0.0014      0.0007
       107        -0.0000      0.0000      0.0000      0.0000      0.0000
       108         0.0346      0.0123     -0.0000      0.0013      0.0006
       109        -0.0123      0.0346     -0.0000      0.0013      0.0006
       110         0.0000      0.0000      0.0000      0.0000      0.0000
       111         0.0000     -0.0000      0.0000      0.0000      0.0000
       112        -0.0000     -0.0000     -0.0000      0.0000      0.0000
       113         0.0000      0.0000      0.0000      0.0000      0.0000
       114        -0.0000      0.0000      0.0000      0.0000      0.0000
       115         0.0000      0.0000     -0.0000      0.0000      0.0000
       116         0.0000      0.0000      0.0000      0.0000      0.0000
       117        -0.0000      0.0000      0.0000      0.0000      0.0000
       118         0.0000     -0.0000     -0.0000      0.0000      0.0000
       119         0.0000     -0.0000     -0.0000      0.0000      0.0000
       120        -0.0000     -0.0000      0.1532      0.0235      0.0092
       121        -0.0000      0.0000     -0.0000      0.0000      0.0000
       122        -0.0000     -0.0000      0.0000      0.0000      0.0000
       123         0.0000     -0.0000     -0.0000      0.0000      0.0000
       124         0.0000      0.0000      0.0000      0.0000      0.0000
       125         0.0000     -0.0000     -0.0000      0.0000      0.0000
       126         0.0000     -0.0000      0.0000      0.0000      0.0000
       127        -0.0000     -0.0000      0.3796      0.1441      0.0542
       128        -0.0000      0.0000     -0.0000      0.0000      0.0000
       129        -0.0000     -0.0000     -0.0000      0.0000      0.0000
       130        -0.3081      0.1318     -0.0000      0.1123      0.0419
       131        -0.1318     -0.3081      0.0000      0.1123      0.0419
       132        -0.1277      0.0136     -0.0000      0.0165      0.0061
       133        -0.0136     -0.1277     -0.0000      0.0165      0.0061
       134         0.0000      0.0000      0.1054      0.0111      0.0041
       135         0.0000      0.0000     -0.0000      0.0000      0.0000
       136         0.0000     -0.0000      0.0000      0.0000      0.0000
       137         0.0000      0.0000     -0.0000      0.0000      0.0000
       138        -0.0839     -0.0225      0.0000      0.0075      0.0026
       139         0.0225     -0.0839      0.0000      0.0075      0.0026
       140         0.0082     -0.6834      0.0000      0.4671      0.1590
       141        -0.6834     -0.0082     -0.0000      0.4671      0.1590
       142         0.0000     -0.0000      0.0000      0.0000      0.0000
       143         0.0000     -0.0000     -0.0000      0.0000      0.0000
       144        -0.0000      0.0000      0.1335      0.0178      0.0059
       145         0.0000     -0.0000     -0.0000      0.0000      0.0000
       146         0.0000     -0.0000      0.0000      0.0000      0.0000
       147         0.0000      0.0000     -0.0000      0.0000      0.0000
       148        -0.0000      0.0000     -0.0000      0.0000      0.0000
       149        -0.0000     -0.0000     -0.0000      0.0000      0.0000
       150         0.2422     -0.0233     -0.0000      0.0592      0.0195
       151         0.0233      0.2422     -0.0000      0.0592      0.0195
       152        -0.0000      0.0000      0.0000      0.0000      0.0000
       153         0.0000      0.0000     -0.0000      0.0000      0.0000
       154         0.0000      0.0000      0.0000      0.0000      0.0000
       155         0.0000      0.0000     -0.0000      0.0000      0.0000
       156        -0.0000     -0.0000     -0.0000      0.0000      0.0000
       157        -0.0000      0.0000     -0.0000      0.0000      0.0000
       158         0.0000      0.0000     -0.0000      0.0000      0.0000
       159         0.0000     -0.0000     -0.0000      0.0000      0.0000
       160        -0.0000      0.0000      0.0000      0.0000      0.0000
       161        -0.0000     -0.0000      0.0000      0.0000      0.0000
       162         0.1827     -0.0005     -0.0000      0.0334      0.0103
       163         0.0005      0.1827     -0.0000      0.0334      0.0103
       164        -0.0000     -0.0000      0.3762      0.1416      0.0430
       165        -0.0000      0.0000      0.0000      0.0000      0.0000
       166        -0.0000     -0.0000      0.0000      0.0000      0.0000
       167        -0.0000      0.0000     -0.0000      0.0000      0.0000
       168        -0.0000      0.0000     -0.0000      0.0000      0.0000
       169         0.0000     -0.0000      0.2157      0.0465      0.0133
       170         0.0000     -0.0000     -0.0000      0.0000      0.0000
       171        -0.4892     -0.0515     -0.0000      0.2420      0.0643
       172         0.0515     -0.4892     -0.0000      0.2420      0.0643
       173         0.9829      0.0132      0.0000      0.9662      0.2531
       174        -0.0132      0.9829     -0.0000      0.9662      0.2531
       175        -0.0000     -0.0000      0.2750      0.0756      0.0194
       176        -0.0000     -0.0000      0.0000      0.0000      0.0000
       177        -0.0000      0.0000      0.0000      0.0000      0.0000
       178        -0.0000     -0.0000      1.1115      1.2355      0.3065
       179         0.6399      0.5785     -0.0000      0.7442      0.1843
       180        -0.5785      0.6399      0.0000      0.7442      0.1843
       181        -0.0000      0.0000     -0.0000      0.0000      0.0000
       182         0.0000      0.0000      0.0012      0.0000      0.0000
       183         0.0000     -0.0000     -0.0000      0.0000      0.0000
       184         0.0000     -0.0000      0.0000      0.0000      0.0000
       185        -0.0000     -0.0000      0.0000      0.0000      0.0000
       186         0.0000      0.0000     -0.4957      0.2458      0.0549
       187         0.0000      0.0000      0.0000      0.0000      0.0000
       188        -0.0000      0.0000      0.0000      0.0000      0.0000
       189        -0.0000     -0.0000      0.0000      0.0000      0.0000
       190        -0.0000     -0.0000      0.0000      0.0000      0.0000
       191         0.0893      0.2157     -0.0000      0.0545      0.0110
       192         0.2157     -0.0893     -0.0000      0.0545      0.0110
       193        -0.0000     -0.0000     -0.0000      0.0000      0.0000
       194         0.0000      0.0000     -0.0000      0.0000      0.0000
       195        -0.0000      0.0000     -0.0000      0.0000      0.0000
       196         0.0000     -0.0000     -0.0000      0.0000      0.0000
       197        -0.0000      0.0000     -1.7762      3.1548      0.6154
       198        -0.0000      0.0000     -0.0000      0.0000      0.0000
       199        -0.0000      0.0000     -0.0000      0.0000      0.0000
       200         0.0000      0.0000      0.0000      0.0000      0.0000
       201         0.0000     -0.0000     -0.3363      0.1131      0.0217
       202        -0.0000     -0.0000      0.0000      0.0000      0.0000
       203        -0.0000     -0.0000      0.0000      0.0000      0.0000
       204         0.0151     -0.1292     -0.0000      0.0169      0.0032
       205        -0.1292     -0.0151     -0.0000      0.0169      0.0032
       206        -0.0000     -0.0000     -0.0000      0.0000      0.0000
       207         0.0000     -0.0000      0.0000      0.0000      0.0000
       208         0.0000      0.0000      0.0000      0.0000      0.0000
       209        -0.0000     -0.0000      0.0000      0.0000      0.0000
       210         0.0000      0.0000      0.0000      0.0000      0.0000
       211         0.0571     -0.4930     -0.0000      0.2463      0.0449
       212        -0.4930     -0.0571     -0.0000      0.2463      0.0449
       213         0.0001      0.0000     -0.0000      0.0000      0.0000
       214         0.0000     -0.0001     -0.0000      0.0000      0.0000
       215         0.0000      0.0000     -0.0000      0.0000      0.0000
       216        -0.0000     -0.0000      0.0000      0.0000      0.0000
       217        -0.0000     -0.0000      0.0000      0.0000      0.0000
       218         0.0000      0.0000     -0.0000      0.0000      0.0000
       219        -0.0000      0.0000     -0.0000      0.0000      0.0000
       220        -0.0000     -0.0000     -0.0000      0.0000      0.0000
       221        -0.0000     -0.0000      0.0000      0.0000      0.0000
       222        -0.0000     -0.0000      0.0000      0.0000      0.0000
       223         0.0000     -0.0000      0.0000      0.0000      0.0000
       224        -0.0000     -0.0000      0.0000      0.0000      0.0000
       225        -0.0000     -0.0000     -0.0000      0.0000      0.0000
       226         0.0000      0.0000     -0.1335      0.0178      0.0031
       227        -0.0000      0.0000      0.0000      0.0000      0.0000
       228         0.0000     -0.0000     -0.0000      0.0000      0.0000
       229         0.0000     -0.0000      0.0000      0.0000      0.0000
       230        -2.6562     -1.3564     -0.0000      8.8953      1.5103
       231        -1.3564      2.6562      0.0000      8.8953      1.5103
       232         0.0000     -0.0000      0.0000      0.0000      0.0000
       233         0.0000      0.0000      0.0000      0.0000      0.0000
       234        -0.0000      0.0000      0.0000      0.0000      0.0000
       235         0.0000     -0.0000     -1.8574      3.4499      0.5724
       236        -0.0000      0.0000      0.0000      0.0000      0.0000
       237        -0.0000      0.0000      0.0000      0.0000      0.0000
       238         0.0000     -0.0000     -0.0000      0.0000      0.0000
       239        -0.0000     -0.0000     -0.0000      0.0000      0.0000
       240        -0.0000     -0.0000      0.0000      0.0000      0.0000
       241         0.0000      0.0000      0.0000      0.0000      0.0000
       242         0.0000     -0.0000     -0.0000      0.0000      0.0000
       243        -0.5331     -0.3399      0.0000      0.3997      0.0620
       244         0.3399     -0.5331     -0.0000      0.3997      0.0620
       245        -0.0837      0.1115      0.0000      0.0194      0.0029
       246         0.1115      0.0837      0.0000      0.0194      0.0029
       247        -0.0000     -0.0000     -0.0000      0.0000      0.0000
       248         0.0000     -0.0000      0.0000      0.0000      0.0000
       249         0.0000      0.0000      0.0000      0.0000      0.0000
       250         0.0000     -0.0000      0.0000      0.0000      0.0000
       251         0.0000     -0.0000     -0.0000      0.0000      0.0000
       252         0.0000     -0.0000     -0.0000      0.0000      0.0000
       253         0.8409      0.0405      0.0000      0.7087      0.0983
       254        -0.0405      0.8409      0.0000      0.7087      0.0983
       255        -0.0000     -0.0000      0.0000      0.0000      0.0000
       256         0.0000     -0.0000      0.0000      0.0000      0.0000
       257         0.0000      0.0000     -1.4103      1.9888      0.2634
       258        -0.0000     -0.0000     -0.0000      0.0000      0.0000
       259        -0.0000     -0.0000     -0.4163      0.1733      0.0201
 Ground to excited state transition magnetic dipole moments (Au):
       state          X           Y           Z
         1         0.0000      0.0000      0.0000
         2         0.0000      0.0000      0.0000
         3         0.8573     -0.5547     -0.0000
         4        -0.5547     -0.8573      0.0000
         5         0.5451      0.2331      0.0000
         6         0.2331     -0.5451      0.0000
         7         0.0000     -0.0000      0.0000
         8        -0.0000     -0.0000      0.0000
         9         0.0000     -0.0000     -0.0000
        10        -0.0000      0.0000      0.0000
        11        -0.0000      0.0000      0.0000
        12        -0.0000      0.0000     -0.0000
        13        -0.5226     -0.0364     -0.0000
        14        -0.0364      0.5226     -0.0000
        15         0.0000     -0.0000     -0.0000
        16         0.0000     -0.0000      0.0000
        17         0.0000      0.0000     -0.0000
        18        -0.0000      0.0000      0.0000
        19         0.0000      0.0000     -0.0000
        20         0.0000      0.0000     -0.0000
        21         0.0000      0.0000      0.0000
        22         0.1256      0.2301      0.0000
        23        -0.2301      0.1256     -0.0000
        24        -0.0000     -0.0000      0.0000
        25         0.0000     -0.0000     -0.0000
        26        -0.0000      0.0000      0.0000
        27        -0.0000      0.0000     -0.0000
        28         0.0000     -0.0000      0.0000
        29         0.0000      0.0000     -0.0000
        30         0.0000      0.0000     -0.0000
        31        -0.0000     -0.0000     -0.0000
        32         0.0000      0.0000     -0.0000
        33         0.0000      0.0000     -0.0000
        34        -0.0000      0.0000      0.0000
        35         0.0000     -0.0000     -0.0000
        36         0.0000      0.0000      0.0000
        37         0.0000     -0.0000      0.0000
        38         0.0000     -0.0000     -0.0000
        39         0.0000      0.0000      0.0000
        40         0.0837     -0.1416      0.0000
        41         0.1416      0.0837      0.0000
        42        -0.0000     -0.0000     -0.0000
        43        -0.0000     -0.0000     -0.0000
        44         0.0000     -0.0000      0.0000
        45         1.4365      0.2476      0.0000
        46         0.2476     -1.4365      0.0000
        47        -0.0550     -0.3174      0.0000
        48         0.3174     -0.0550     -0.0000
        49        -0.0000      0.0000     -0.0000
        50        -0.0000     -0.0000     -0.0000
        51         0.0000      0.0000      0.0000
[...]
      8   0.000000D+00  0.000000D+00 -0.542573D+00  0.382351D-01  0.000000D+00
      9   0.000000D+00  0.000000D+00  0.382351D-01  0.542573D+00  0.000000D+00
     10   0.000000D+00  0.000000D+00  0.000000D+00  0.000000D+00  0.000000D+00
     11   0.000000D+00 -0.100354D+01  0.000000D+00  0.000000D+00  0.129426D+01
     12   0.000000D+00 -0.100354D+01  0.000000D+00  0.000000D+00  0.129426D+01
     13   0.000000D+00  0.392440D+00  0.000000D+00  0.000000D+00 -0.165607D+01
     14   0.000000D+00  0.000000D+00  0.000000D+00  0.000000D+00  0.000000D+00
     15   0.000000D+00  0.000000D+00  0.239002D-01  0.339155D+00  0.000000D+00
     16   0.000000D+00  0.000000D+00  0.339155D+00 -0.239002D-01  0.000000D+00
               191           192           193           194           195 
      1  -0.196066D+03 -0.196066D+03 -0.196055D+03 -0.196055D+03 -0.196050D+03
      2  -0.337709D-01 -0.815504D-01  0.000000D+00  0.000000D+00  0.000000D+00
      3  -0.815504D-01  0.337709D-01  0.000000D+00  0.000000D+00  0.000000D+00
      4   0.000000D+00  0.000000D+00  0.000000D+00  0.000000D+00  0.000000D+00
      5   0.893230D-01  0.215698D+00  0.000000D+00  0.000000D+00  0.000000D+00
      6   0.215698D+00 -0.893230D-01  0.000000D+00  0.000000D+00  0.000000D+00
      7   0.000000D+00  0.000000D+00  0.000000D+00  0.000000D+00  0.000000D+00
      8   0.000000D+00  0.000000D+00  0.000000D+00  0.000000D+00  0.000000D+00
      9   0.000000D+00  0.000000D+00  0.000000D+00  0.000000D+00  0.000000D+00
     10   0.000000D+00  0.000000D+00  0.000000D+00  0.000000D+00  0.000000D+00
     11   0.000000D+00  0.000000D+00  0.000000D+00  0.000000D+00  0.000000D+00
     12   0.000000D+00  0.000000D+00  0.000000D+00  0.000000D+00  0.000000D+00
     13   0.000000D+00  0.000000D+00  0.000000D+00  0.000000D+00  0.000000D+00
     14   0.000000D+00  0.000000D+00  0.000000D+00  0.000000D+00  0.000000D+00
     15   0.000000D+00  0.000000D+00  0.000000D+00  0.000000D+00  0.000000D+00
     16   0.000000D+00  0.000000D+00  0.000000D+00  0.000000D+00  0.000000D+00
               196           197           198           199           200 
      1  -0.195993D+03 -0.195944D+03 -0.195914D+03 -0.195914D+03 -0.195910D+03
      2   0.000000D+00  0.000000D+00  0.000000D+00  0.000000D+00  0.000000D+00
      3   0.000000D+00  0.000000D+00  0.000000D+00  0.000000D+00  0.000000D+00
      4   0.000000D+00  0.607836D+00  0.000000D+00  0.000000D+00  0.000000D+00
      5   0.000000D+00  0.000000D+00  0.000000D+00  0.000000D+00  0.000000D+00
      6   0.000000D+00  0.000000D+00  0.000000D+00  0.000000D+00  0.000000D+00
      7   0.000000D+00 -0.177618D+01  0.000000D+00  0.000000D+00  0.000000D+00
      8   0.000000D+00  0.000000D+00  0.000000D+00  0.000000D+00  0.000000D+00
      9   0.000000D+00  0.000000D+00  0.000000D+00  0.000000D+00  0.000000D+00
     10   0.000000D+00  0.000000D+00  0.000000D+00  0.000000D+00  0.000000D+00
     11   0.802819D-01  0.000000D+00  0.000000D+00 -0.124480D+00  0.000000D+00
     12   0.802819D-01  0.000000D+00  0.000000D+00  0.124480D+00  0.000000D+00
     13  -0.119274D+01  0.000000D+00  0.000000D+00  0.000000D+00  0.000000D+00
     14   0.000000D+00  0.000000D+00 -0.124480D+00  0.000000D+00  0.000000D+00
     15   0.000000D+00  0.000000D+00  0.000000D+00  0.000000D+00  0.000000D+00
     16   0.000000D+00  0.000000D+00  0.000000D+00  0.000000D+00  0.000000D+00
               201           202           203           204           205 
      1  -0.195879D+03 -0.195849D+03 -0.195849D+03 -0.195837D+03 -0.195837D+03
      2   0.000000D+00  0.000000D+00  0.000000D+00 -0.670493D-02  0.575405D-01
      3   0.000000D+00  0.000000D+00  0.000000D+00  0.575405D-01  0.670493D-02
      4   0.694922D-01  0.000000D+00  0.000000D+00  0.000000D+00  0.000000D+00
      5   0.000000D+00  0.000000D+00  0.000000D+00  0.150549D-01 -0.129199D+00
      6   0.000000D+00  0.000000D+00  0.000000D+00 -0.129199D+00 -0.150549D-01
      7  -0.336291D+00  0.000000D+00  0.000000D+00  0.000000D+00  0.000000D+00
      8   0.000000D+00  0.232857D-04  0.285745D-04  0.000000D+00  0.000000D+00
      9   0.000000D+00 -0.285745D-04  0.232857D-04  0.000000D+00  0.000000D+00
     10   0.000000D+00  0.000000D+00  0.000000D+00  0.000000D+00  0.000000D+00
     11   0.000000D+00  0.000000D+00  0.000000D+00  0.000000D+00  0.000000D+00
     12   0.000000D+00  0.000000D+00  0.000000D+00  0.000000D+00  0.000000D+00
     13   0.000000D+00  0.000000D+00  0.000000D+00  0.000000D+00  0.000000D+00
     14   0.000000D+00  0.000000D+00  0.000000D+00  0.000000D+00  0.000000D+00
     15   0.000000D+00 -0.262017D-04  0.213521D-04  0.000000D+00  0.000000D+00
     16   0.000000D+00 -0.213521D-04 -0.262017D-04  0.000000D+00  0.000000D+00
               206           207           208           209           210 
      1  -0.195797D+03 -0.195797D+03 -0.195768D+03 -0.195750D+03 -0.195750D+03
      2   0.519362D-05 -0.437220D-05  0.000000D+00  0.000000D+00  0.000000D+00
      3   0.437220D-05  0.519362D-05  0.000000D+00  0.000000D+00  0.000000D+00
      4   0.000000D+00  0.000000D+00  0.000000D+00  0.000000D+00  0.000000D+00
      5  -0.164809D-04  0.138743D-04  0.000000D+00  0.000000D+00  0.000000D+00
      6  -0.138743D-04 -0.164809D-04  0.000000D+00  0.000000D+00  0.000000D+00
      7   0.000000D+00  0.000000D+00  0.000000D+00  0.000000D+00  0.000000D+00
      8   0.000000D+00  0.000000D+00  0.000000D+00  0.572769D+00 -0.149270D+01
      9   0.000000D+00  0.000000D+00  0.000000D+00 -0.149270D+01 -0.572769D+00
     10   0.000000D+00  0.000000D+00  0.000000D+00  0.000000D+00  0.000000D+00
     11   0.000000D+00  0.000000D+00 -0.430020D+00  0.000000D+00  0.000000D+00
     12   0.000000D+00  0.000000D+00 -0.430020D+00  0.000000D+00  0.000000D+00
     13   0.000000D+00  0.000000D+00 -0.306549D+01  0.000000D+00  0.000000D+00
     14   0.000000D+00  0.000000D+00  0.000000D+00  0.000000D+00  0.000000D+00
     15   0.000000D+00  0.000000D+00  0.000000D+00 -0.133246D+01 -0.511284D+00
     16   0.000000D+00  0.000000D+00  0.000000D+00 -0.511284D+00  0.133246D+01
               211           212           213           214           215 
      1  -0.195701D+03 -0.195701D+03 -0.195683D+03 -0.195683D+03 -0.195635D+03
      2  -0.167802D-01  0.144970D+00 -0.151806D-04 -0.919649D-05  0.000000D+00
      3   0.144970D+00  0.167802D-01 -0.919649D-05  0.151806D-04  0.000000D+00
      4   0.000000D+00  0.000000D+00  0.000000D+00  0.000000D+00  0.000000D+00
      5   0.570661D-01 -0.493016D+00  0.516017D-04  0.312606D-04  0.000000D+00
      6  -0.493016D+00 -0.570661D-01  0.312606D-04 -0.516017D-04  0.000000D+00
      7   0.000000D+00  0.000000D+00  0.000000D+00  0.000000D+00  0.000000D+00
      8   0.000000D+00  0.000000D+00  0.000000D+00  0.000000D+00  0.000000D+00
      9   0.000000D+00  0.000000D+00  0.000000D+00  0.000000D+00  0.000000D+00
     10   0.000000D+00  0.000000D+00  0.000000D+00  0.000000D+00  0.000000D+00
     11   0.000000D+00  0.000000D+00  0.000000D+00  0.000000D+00  0.000000D+00
     12   0.000000D+00  0.000000D+00  0.000000D+00  0.000000D+00  0.000000D+00
     13   0.000000D+00  0.000000D+00  0.000000D+00  0.000000D+00  0.000000D+00
     14   0.000000D+00  0.000000D+00  0.000000D+00  0.000000D+00 -0.194511D+00
     15   0.000000D+00  0.000000D+00  0.000000D+00  0.000000D+00  0.000000D+00
     16   0.000000D+00  0.000000D+00  0.000000D+00  0.000000D+00  0.000000D+00
               216           217           218           219           220 
      1  -0.195635D+03 -0.195631D+03 -0.195631D+03 -0.195595D+03 -0.195595D+03
      2   0.000000D+00  0.000000D+00  0.000000D+00  0.000000D+00  0.000000D+00
      3   0.000000D+00  0.000000D+00  0.000000D+00  0.000000D+00  0.000000D+00
      4   0.000000D+00  0.000000D+00  0.000000D+00  0.000000D+00  0.000000D+00
      5   0.000000D+00  0.000000D+00  0.000000D+00  0.000000D+00  0.000000D+00
      6   0.000000D+00  0.000000D+00  0.000000D+00  0.000000D+00  0.000000D+00
      7   0.000000D+00  0.000000D+00  0.000000D+00  0.000000D+00  0.000000D+00
      8   0.000000D+00 -0.459243D-05  0.536210D-04  0.000000D+00  0.000000D+00
      9   0.000000D+00 -0.536210D-04 -0.459243D-05  0.000000D+00  0.000000D+00
     10   0.000000D+00  0.000000D+00  0.000000D+00  0.000000D+00  0.000000D+00
     11  -0.194510D+00  0.000000D+00  0.000000D+00 -0.136827D+00  0.000000D+00
     12   0.194510D+00  0.000000D+00  0.000000D+00  0.136827D+00  0.000000D+00
     13   0.000000D+00  0.000000D+00  0.000000D+00  0.000000D+00  0.000000D+00
     14   0.000000D+00  0.000000D+00  0.000000D+00  0.000000D+00  0.136827D+00
     15   0.000000D+00 -0.479918D-04 -0.411032D-05  0.000000D+00  0.000000D+00
     16   0.000000D+00  0.411032D-05 -0.479918D-04  0.000000D+00  0.000000D+00
               221           222           223           224           225 
      1  -0.195592D+03 -0.195575D+03 -0.195575D+03 -0.195544D+03 -0.195544D+03
      2   0.000000D+00  0.000000D+00  0.000000D+00  0.000000D+00  0.000000D+00
      3   0.000000D+00  0.000000D+00  0.000000D+00  0.000000D+00  0.000000D+00
      4   0.000000D+00  0.000000D+00  0.000000D+00  0.000000D+00  0.000000D+00
      5   0.000000D+00  0.000000D+00  0.000000D+00  0.000000D+00  0.000000D+00
      6   0.000000D+00  0.000000D+00  0.000000D+00  0.000000D+00  0.000000D+00
      7   0.000000D+00  0.000000D+00  0.000000D+00  0.000000D+00  0.000000D+00
      8   0.000000D+00  0.000000D+00  0.000000D+00  0.870401D+00 -0.163501D+01
      9   0.000000D+00  0.000000D+00  0.000000D+00 -0.163501D+01 -0.870401D+00
     10   0.000000D+00  0.000000D+00  0.000000D+00  0.000000D+00  0.000000D+00
     11   0.000000D+00  0.000000D+00  0.000000D+00  0.000000D+00  0.000000D+00
     12   0.000000D+00  0.000000D+00  0.000000D+00  0.000000D+00  0.000000D+00
     13   0.000000D+00  0.000000D+00  0.000000D+00  0.000000D+00  0.000000D+00
     14   0.000000D+00  0.000000D+00  0.000000D+00  0.000000D+00  0.000000D+00
     15   0.000000D+00  0.000000D+00  0.000000D+00 -0.137918D+01 -0.734210D+00
     16   0.000000D+00  0.000000D+00  0.000000D+00 -0.734210D+00  0.137918D+01
               226           227           228           229           230 
      1  -0.195518D+03 -0.195456D+03 -0.195456D+03 -0.195452D+03 -0.195435D+03
      2   0.000000D+00  0.000000D+00  0.000000D+00  0.000000D+00  0.777401D+00
      3   0.000000D+00  0.000000D+00  0.000000D+00  0.000000D+00  0.396988D+00
      4   0.503545D-01  0.000000D+00  0.000000D+00  0.000000D+00  0.000000D+00
      5   0.000000D+00  0.000000D+00  0.000000D+00  0.000000D+00 -0.265621D+01
      6   0.000000D+00  0.000000D+00  0.000000D+00  0.000000D+00 -0.135642D+01
      7  -0.133451D+00  0.000000D+00  0.000000D+00  0.000000D+00  0.000000D+00
      8   0.000000D+00  0.000000D+00  0.000000D+00  0.000000D+00  0.000000D+00
      9   0.000000D+00  0.000000D+00  0.000000D+00  0.000000D+00  0.000000D+00
     10   0.000000D+00  0.000000D+00  0.000000D+00  0.000000D+00  0.000000D+00
     11   0.000000D+00  0.000000D+00  0.000000D+00  0.000000D+00  0.000000D+00
     12   0.000000D+00  0.000000D+00  0.000000D+00  0.000000D+00  0.000000D+00
     13   0.000000D+00  0.000000D+00  0.000000D+00  0.000000D+00  0.000000D+00
     14   0.000000D+00  0.000000D+00  0.000000D+00  0.000000D+00  0.000000D+00
     15   0.000000D+00  0.000000D+00  0.000000D+00  0.000000D+00  0.000000D+00
     16   0.000000D+00  0.000000D+00  0.000000D+00  0.000000D+00  0.000000D+00
               231           232           233           234           235 
      1  -0.195435D+03 -0.195388D+03 -0.195350D+03 -0.195350D+03 -0.195343D+03
      2   0.396988D+00  0.000000D+00  0.000000D+00  0.000000D+00  0.000000D+00
      3  -0.777401D+00  0.000000D+00  0.000000D+00  0.000000D+00  0.000000D+00
      4   0.000000D+00  0.000000D+00  0.000000D+00  0.000000D+00  0.496835D+00
      5  -0.135642D+01  0.000000D+00  0.000000D+00  0.000000D+00  0.000000D+00
      6   0.265621D+01  0.000000D+00  0.000000D+00  0.000000D+00  0.000000D+00
      7   0.000000D+00  0.000000D+00  0.000000D+00  0.000000D+00 -0.185739D+01
      8   0.000000D+00  0.000000D+00 -0.262772D-01  0.138824D+00  0.000000D+00
      9   0.000000D+00  0.000000D+00 -0.138824D+00 -0.262772D-01  0.000000D+00
     10   0.000000D+00  0.000000D+00  0.000000D+00  0.000000D+00  0.000000D+00
     11   0.000000D+00  0.258794D+00  0.000000D+00  0.000000D+00  0.000000D+00
     12   0.000000D+00  0.258794D+00  0.000000D+00  0.000000D+00  0.000000D+00
     13   0.000000D+00 -0.741185D+01  0.000000D+00  0.000000D+00  0.000000D+00
     14   0.000000D+00  0.000000D+00  0.000000D+00  0.000000D+00  0.000000D+00
     15   0.000000D+00  0.000000D+00  0.612744D+00  0.115983D+00  0.000000D+00
     16   0.000000D+00  0.000000D+00 -0.115983D+00  0.612744D+00  0.000000D+00
               236           237           238           239           240 
      1  -0.195278D+03 -0.195278D+03 -0.195217D+03 -0.195135D+03 -0.195135D+03
      2   0.000000D+00  0.000000D+00  0.000000D+00  0.000000D+00  0.000000D+00
      3   0.000000D+00  0.000000D+00  0.000000D+00  0.000000D+00  0.000000D+00
      4   0.000000D+00  0.000000D+00  0.000000D+00  0.000000D+00  0.000000D+00
      5   0.000000D+00  0.000000D+00  0.000000D+00  0.000000D+00  0.000000D+00
      6   0.000000D+00  0.000000D+00  0.000000D+00  0.000000D+00  0.000000D+00
      7   0.000000D+00  0.000000D+00  0.000000D+00  0.000000D+00  0.000000D+00
      8   0.292302D+01 -0.198078D+00  0.000000D+00  0.000000D+00  0.000000D+00
      9  -0.198078D+00 -0.292302D+01  0.000000D+00  0.000000D+00  0.000000D+00
     10   0.000000D+00  0.000000D+00  0.000000D+00  0.000000D+00  0.000000D+00
     11   0.000000D+00  0.000000D+00 -0.418707D+00  0.000000D+00  0.000000D+00
     12   0.000000D+00  0.000000D+00 -0.418707D+00  0.000000D+00  0.000000D+00
     13   0.000000D+00  0.000000D+00 -0.226280D+01  0.000000D+00  0.000000D+00
     14   0.000000D+00  0.000000D+00  0.000000D+00  0.000000D+00  0.000000D+00
     15  -0.239661D+00 -0.353666D+01  0.000000D+00  0.000000D+00  0.000000D+00
     16  -0.353666D+01  0.239661D+00  0.000000D+00  0.000000D+00  0.000000D+00
               241           242           243           244           245 
      1  -0.195072D+03 -0.195072D+03 -0.195062D+03 -0.195062D+03 -0.194891D+03
      2   0.000000D+00  0.000000D+00  0.147927D+00 -0.943166D-01  0.215265D-01
      3   0.000000D+00  0.000000D+00  0.943166D-01  0.147927D+00 -0.286843D-01
      4   0.000000D+00  0.000000D+00  0.000000D+00  0.000000D+00  0.000000D+00
      5   0.000000D+00  0.000000D+00 -0.533093D+00  0.339895D+00 -0.837075D-01
      6   0.000000D+00  0.000000D+00 -0.339895D+00 -0.533093D+00  0.111541D+00
      7   0.000000D+00  0.000000D+00  0.000000D+00  0.000000D+00  0.000000D+00
      8   0.000000D+00  0.000000D+00  0.000000D+00  0.000000D+00  0.000000D+00
      9   0.000000D+00  0.000000D+00  0.000000D+00  0.000000D+00  0.000000D+00
     10   0.000000D+00  0.000000D+00  0.000000D+00  0.000000D+00  0.000000D+00
     11   0.000000D+00  0.874752D+00  0.000000D+00  0.000000D+00  0.000000D+00
     12   0.000000D+00 -0.874752D+00  0.000000D+00  0.000000D+00  0.000000D+00
     13   0.000000D+00  0.000000D+00  0.000000D+00  0.000000D+00  0.000000D+00
     14   0.874753D+00  0.000000D+00  0.000000D+00  0.000000D+00  0.000000D+00
     15   0.000000D+00  0.000000D+00  0.000000D+00  0.000000D+00  0.000000D+00
     16   0.000000D+00  0.000000D+00  0.000000D+00  0.000000D+00  0.000000D+00
               246           247           248           249           250 
      1  -0.194891D+03 -0.194869D+03 -0.194869D+03 -0.194812D+03 -0.194812D+03
      2  -0.286843D-01  0.000000D+00  0.000000D+00  0.000000D+00  0.000000D+00
      3  -0.215265D-01  0.000000D+00  0.000000D+00  0.000000D+00  0.000000D+00
      4   0.000000D+00  0.000000D+00  0.000000D+00  0.000000D+00  0.000000D+00
      5   0.111541D+00  0.000000D+00  0.000000D+00  0.000000D+00  0.000000D+00
      6   0.837075D-01  0.000000D+00  0.000000D+00  0.000000D+00  0.000000D+00
      7   0.000000D+00  0.000000D+00  0.000000D+00  0.000000D+00  0.000000D+00
      8   0.000000D+00  0.000000D+00  0.000000D+00  0.000000D+00  0.000000D+00
      9   0.000000D+00  0.000000D+00  0.000000D+00  0.000000D+00  0.000000D+00
     10   0.000000D+00  0.000000D+00  0.000000D+00  0.000000D+00  0.000000D+00
     11   0.000000D+00  0.000000D+00  0.807216D+00  0.000000D+00  0.000000D+00
     12   0.000000D+00  0.000000D+00 -0.807216D+00  0.000000D+00  0.000000D+00
     13   0.000000D+00  0.000000D+00  0.000000D+00  0.000000D+00  0.000000D+00
     14   0.000000D+00  0.807216D+00  0.000000D+00  0.000000D+00  0.000000D+00
     15   0.000000D+00  0.000000D+00  0.000000D+00  0.000000D+00  0.000000D+00
     16   0.000000D+00  0.000000D+00  0.000000D+00  0.000000D+00  0.000000D+00
               251           252           253           254           255 
      1  -0.194634D+03 -0.194634D+03 -0.194553D+03 -0.194553D+03 -0.194419D+03
      2   0.000000D+00  0.000000D+00 -0.201292D+00  0.969880D-02  0.000000D+00
      3   0.000000D+00  0.000000D+00 -0.969880D-02 -0.201292D+00  0.000000D+00
      4   0.000000D+00  0.000000D+00  0.000000D+00  0.000000D+00  0.000000D+00
      5   0.000000D+00  0.000000D+00  0.840870D+00 -0.405155D-01  0.000000D+00
      6   0.000000D+00  0.000000D+00  0.405155D-01  0.840870D+00  0.000000D+00
      7   0.000000D+00  0.000000D+00  0.000000D+00  0.000000D+00  0.000000D+00
      8  -0.837642D-01  0.358305D+00  0.000000D+00  0.000000D+00 -0.854999D+00
      9  -0.358305D+00 -0.837642D-01  0.000000D+00  0.000000D+00 -0.237553D+00
     10   0.000000D+00  0.000000D+00  0.000000D+00  0.000000D+00  0.000000D+00
     11   0.000000D+00  0.000000D+00  0.000000D+00  0.000000D+00  0.000000D+00
     12   0.000000D+00  0.000000D+00  0.000000D+00  0.000000D+00  0.000000D+00
     13   0.000000D+00  0.000000D+00  0.000000D+00  0.000000D+00  0.000000D+00
     14   0.000000D+00  0.000000D+00  0.000000D+00  0.000000D+00  0.000000D+00
     15   0.222099D+00  0.519221D-01  0.000000D+00  0.000000D+00 -0.325738D+00
     16  -0.519221D-01  0.222099D+00  0.000000D+00  0.000000D+00  0.117239D+01
               256           257           258           259 
      1  -0.194419D+03 -0.194327D+03 -0.193881D+03 -0.193627D+03
      2   0.000000D+00  0.000000D+00  0.000000D+00  0.000000D+00
      3   0.000000D+00  0.000000D+00  0.000000D+00  0.000000D+00
      4   0.000000D+00  0.273109D+00  0.000000D+00  0.506373D-01
      5   0.000000D+00  0.000000D+00  0.000000D+00  0.000000D+00
      6   0.000000D+00  0.000000D+00  0.000000D+00  0.000000D+00
      7   0.000000D+00 -0.141025D+01  0.000000D+00 -0.416268D+00
      8  -0.237553D+00  0.000000D+00  0.000000D+00  0.000000D+00
      9   0.854999D+00  0.000000D+00  0.000000D+00  0.000000D+00
     10   0.000000D+00  0.000000D+00  0.000000D+00  0.000000D+00
     11   0.000000D+00  0.000000D+00 -0.144213D+00  0.000000D+00
     12   0.000000D+00  0.000000D+00 -0.144213D+00  0.000000D+00
     13   0.000000D+00  0.000000D+00  0.617737D+00  0.000000D+00
     14   0.000000D+00  0.000000D+00  0.000000D+00  0.000000D+00
     15   0.117239D+01  0.000000D+00  0.000000D+00  0.000000D+00
     16   0.325738D+00  0.000000D+00  0.000000D+00  0.000000D+00
 Unable to Open any file for archive entry.
 1\1\GINC-HEL11\SP\RB3LYP TD-FC\Gen\F2\SABYASACHI\21-Mar-2022\0\\#P TD(
 Nstates=10000) b3lyp/Gen SCF(maxcycles=100) Int(Grid=ultrafine)\\xGDB7
 _00001_tier4.com\\0,1\F,0,0.,0.,0.688193\F,0,0.,0.,-0.688193\\Version=
 EM64L-G16RevC.01\State=1-SGG\HF=-199.3612588\RMSD=4.180e-10\PG=D*H [C*
 (F1.F1)]\\@
 The archive entry for this job was punched.


 TIMES HAVE CHANGED. IN THE BIBLE WHEN AN ASS
 SPOKE IT WAS CONSIDERED A MIRACLE.
 Job cpu time:       0 days  0 hours  0 minutes 19.7 seconds.
 Elapsed time:       0 days  0 hours  0 minutes  2.7 seconds.
 File lengths (MBytes):  RWF=     87 Int=      0 D2E=      0 Chk=     16 Scr=      1
 Normal termination of Gaussian 16 at Mon Mar 21 20:04:18 2022.
