 Entering Gaussian System, Link 0=g16
 Input=bigQM7w_TDwB97XD_def2SVPD_000007.com
 Output=bigQM7w_TDwB97XD_def2SVPD_000007.log
 Initial command:
 /home/rr/g16/l1.exe "/scratch/rr/PBS_7839452.helios/Gau-17409.inp" -scrdir="/scratch/rr/PBS_7839452.helios/"
 Entering Link 1 = /home/rr/g16/l1.exe PID=     17430.
  
 Copyright (c) 1988-2019, Gaussian, Inc.  All Rights Reserved.
  
 This is part of the Gaussian(R) 16 program.  It is based on
 the Gaussian(R) 09 system (copyright 2009, Gaussian, Inc.),
 the Gaussian(R) 03 system (copyright 2003, Gaussian, Inc.),
 the Gaussian(R) 98 system (copyright 1998, Gaussian, Inc.),
 the Gaussian(R) 94 system (copyright 1995, Gaussian, Inc.),
 the Gaussian 92(TM) system (copyright 1992, Gaussian, Inc.),
 the Gaussian 90(TM) system (copyright 1990, Gaussian, Inc.),
 the Gaussian 88(TM) system (copyright 1988, Gaussian, Inc.),
 the Gaussian 86(TM) system (copyright 1986, Carnegie Mellon
 University), and the Gaussian 82(TM) system (copyright 1983,
 Carnegie Mellon University). Gaussian is a federally registered
 trademark of Gaussian, Inc.
  
 This software contains proprietary and confidential information,
 including trade secrets, belonging to Gaussian, Inc.
  
 This software is provided under written license and may be
 used, copied, transmitted, or stored only in accord with that
 written license.
  
 The following legend is applicable only to US Government
 contracts under FAR:
  
                    RESTRICTED RIGHTS LEGEND
  
 Use, reproduction and disclosure by the US Government is
 subject to restrictions as set forth in subparagraphs (a)
 and (c) of the Commercial Computer Software - Restricted
 Rights clause in FAR 52.227-19.
  
 Gaussian, Inc.
 340 Quinnipiac St., Bldg. 40, Wallingford CT 06492
  
  
 ---------------------------------------------------------------
 Warning -- This program may not be used in any manner that
 competes with the business of Gaussian, Inc. or will provide
 assistance to any competitor of Gaussian, Inc.  The licensee
 of this program is prohibited from giving any competitor of
 Gaussian, Inc. access to this program.  By using this program,
 the user acknowledges that Gaussian, Inc. is engaged in the
 business of creating and licensing software in the field of
 computational chemistry and represents and warrants to the
 licensee that it is not a competitor of Gaussian, Inc. and that
 it will not use this program in any manner prohibited above.
 ---------------------------------------------------------------
  

 Cite this work as:
 Gaussian 16, Revision C.01,
 M. J. Frisch, G. W. Trucks, H. B. Schlegel, G. E. Scuseria, 
 M. A. Robb, J. R. Cheeseman, G. Scalmani, V. Barone, 
 G. A. Petersson, H. Nakatsuji, X. Li, M. Caricato, A. V. Marenich, 
 J. Bloino, B. G. Janesko, R. Gomperts, B. Mennucci, H. P. Hratchian, 
 J. V. Ortiz, A. F. Izmaylov, J. L. Sonnenberg, D. Williams-Young, 
 F. Ding, F. Lipparini, F. Egidi, J. Goings, B. Peng, A. Petrone, 
 T. Henderson, D. Ranasinghe, V. G. Zakrzewski, J. Gao, N. Rega, 
 G. Zheng, W. Liang, M. Hada, M. Ehara, K. Toyota, R. Fukuda, 
 J. Hasegawa, M. Ishida, T. Nakajima, Y. Honda, O. Kitao, H. Nakai, 
 T. Vreven, K. Throssell, J. A. Montgomery, Jr., J. E. Peralta, 
 F. Ogliaro, M. J. Bearpark, J. J. Heyd, E. N. Brothers, K. N. Kudin, 
 V. N. Staroverov, T. A. Keith, R. Kobayashi, J. Normand, 
 K. Raghavachari, A. P. Rendell, J. C. Burant, S. S. Iyengar, 
 J. Tomasi, M. Cossi, J. M. Millam, M. Klene, C. Adamo, R. Cammi, 
 J. W. Ochterski, R. L. Martin, K. Morokuma, O. Farkas, 
 J. B. Foresman, and D. J. Fox, Gaussian, Inc., Wallingford CT, 2019.
 
 ******************************************
 Gaussian 16:  EM64L-G16RevC.01  3-Jul-2019
                12-Feb-2022 
 ******************************************
 %mem=64gb
 %nproc=8
 Will use up to    8 processors via shared memory.
 ----------------------------------------------------------------------
 #P TD(Nstates=10000) wB97XD/Gen SCF(maxcycles=100) Int(Grid=ultrafine)
 ----------------------------------------------------------------------
 1/38=1,172=1/1;
 2/12=2,17=6,18=5,40=1/2;
 3/5=7,11=9,25=1,30=1,74=-58,75=-5/1,2,3,8;
 4//1;
 5/5=2,7=100,38=5/2;
 8/6=1,10=1,108=10000/1;
 9/41=10000,42=1,70=2/14;
 6/7=2,8=2,9=2,10=2/1;
 99/5=1,9=1/99;
 Leave Link    1 at Sat Feb 12 22:25:04 2022, MaxMem=  8589934592 cpu:               0.4 elap:               0.1
 (Enter /home/rr/g16/l101.exe)
 ---------------------
 xGDB7_00001_tier4.com
 ---------------------
 Symbolic Z-matrix:
 Charge =  0 Multiplicity = 1
 6                     0.0464    0.64966   0. 
 8                     0.0464   -0.74971   0. 
 1                    -0.43926   1.08428   0.89496 
 1                    -0.43926   1.08428  -0.89496 
 1                     1.09384   0.98361   0. 
 1                    -0.8649   -1.05249   0. 
 
 ITRead=  0  0  0  0  0  0
 MicOpt= -1 -1 -1 -1 -1 -1
 NAtoms=      6 NQM=        6 NQMF=       0 NMMI=      0 NMMIF=      0
                NMic=       0 NMicF=      0.
                    Isotopes and Nuclear Properties:
 (Nuclear quadrupole moments (NQMom) in fm**2, nuclear magnetic moments (NMagM)
  in nuclear magnetons)

  Atom         1           2           3           4           5           6
 IAtWgt=          12          16           1           1           1           1
 AtmWgt=  12.0000000  15.9949146   1.0078250   1.0078250   1.0078250   1.0078250
 NucSpn=           0           0           1           1           1           1
 AtZEff=  -0.0000000  -0.0000000  -0.0000000  -0.0000000  -0.0000000  -0.0000000
 NQMom=    0.0000000   0.0000000   0.0000000   0.0000000   0.0000000   0.0000000
 NMagM=    0.0000000   0.0000000   2.7928460   2.7928460   2.7928460   2.7928460
 AtZNuc=   6.0000000   8.0000000   1.0000000   1.0000000   1.0000000   1.0000000
 Leave Link  101 at Sat Feb 12 22:25:04 2022, MaxMem=  8589934592 cpu:               0.7 elap:               0.1
 (Enter /home/rr/g16/l202.exe)
                          Input orientation:                          
 ---------------------------------------------------------------------
 Center     Atomic      Atomic             Coordinates (Angstroms)
 Number     Number       Type             X           Y           Z
 ---------------------------------------------------------------------
      1          6           0        0.046399    0.649661    0.000000
      2          8           0        0.046399   -0.749705    0.000000
      3          1           0       -0.439261    1.084276    0.894962
      4          1           0       -0.439261    1.084276   -0.894962
      5          1           0        1.093835    0.983607    0.000000
      6          1           0       -0.864903   -1.052487    0.000000
 ---------------------------------------------------------------------
                    Distance matrix (angstroms):
                    1          2          3          4          5
     1  C    0.000000
     2  O    1.399366   0.000000
     3  H    1.107119   2.097691   0.000000
     4  H    1.107119   2.097691   1.789924   0.000000
     5  H    1.099383   2.025214   1.778054   1.778054   0.000000
     6  H    1.930746   0.960286   2.355395   2.355395   2.825302
                    6
     6  H    0.000000
 Stoichiometry    CH4O
 Framework group  CS[SG(CH2O),X(H2)]
 Deg. of freedom     8
 Full point group                 CS      NOp   2
 Largest Abelian subgroup         CS      NOp   2
 Largest concise Abelian subgroup CS      NOp   2
                         Standard orientation:                         
 ---------------------------------------------------------------------
 Center     Atomic      Atomic             Coordinates (Angstroms)
 Number     Number       Type             X           Y           Z
 ---------------------------------------------------------------------
      1          6           0        0.046399    0.649661    0.000000
      2          8           0        0.046399   -0.749705    0.000000
      3          1           0       -0.439261    1.084276    0.894962
      4          1           0       -0.439261    1.084276   -0.894962
      5          1           0        1.093835    0.983607    0.000000
      6          1           0       -0.864903   -1.052487    0.000000
 ---------------------------------------------------------------------
 Rotational constants (GHZ):         127.5839630          25.2126690          24.3240864
 Leave Link  202 at Sat Feb 12 22:25:04 2022, MaxMem=  8589934592 cpu:               0.1 elap:               0.0
 (Enter /home/rr/g16/l301.exe)
 General basis read from cards:  (5D, 7F)
 Centers:       3      4      5      6
 S 3 1.00
     Exponent=  1.3010701000D+01 Coefficients=  1.9682158000D-02
     Exponent=  1.9622572000D+00 Coefficients=  1.3796524000D-01
     Exponent=  4.4453796000D-01 Coefficients=  4.7831935000D-01
 S 1 1.00
     Exponent=  1.2194962000D-01 Coefficients=  1.0000000000D+00
 P 1 1.00
     Exponent=  8.0000000000D-01 Coefficients=  1.0000000000D+00
 P 1 1.00
     Exponent=  1.1704099050D-01 Coefficients=  1.0000000000D+00
 ****
 Centers:       1
 S 5 1.00
     Exponent=  1.2384016938D+03 Coefficients=  5.4568832082D-03
     Exponent=  1.8629004992D+02 Coefficients=  4.0638409211D-02
     Exponent=  4.2251176346D+01 Coefficients=  1.8025593888D-01
     Exponent=  1.1676557932D+01 Coefficients=  4.6315121755D-01
     Exponent=  3.5930506482D+00 Coefficients=  4.4087173314D-01
 S 1 1.00
     Exponent=  4.0245147363D-01 Coefficients=  1.0000000000D+00
 S 1 1.00
     Exponent=  1.3090182668D-01 Coefficients=  1.0000000000D+00
 S 1 1.00
     Exponent=  6.7053540256D-02 Coefficients=  1.0000000000D+00
 P 3 1.00
     Exponent=  9.4680970621D+00 Coefficients=  3.8387871728D-02
     Exponent=  2.0103545142D+00 Coefficients=  2.1117025112D-01
     Exponent=  5.4771004707D-01 Coefficients=  5.1328172114D-01
 P 1 1.00
     Exponent=  1.5268613795D-01 Coefficients=  1.0000000000D+00
 D 1 1.00
     Exponent=  8.0000000000D-01 Coefficients=  1.0000000000D+00
 D 1 1.00
     Exponent=  1.1713185140D-01 Coefficients=  1.0000000000D+00
 ****
 Centers:       2
 S 5 1.00
     Exponent=  2.2661767785D+03 Coefficients= -5.3431809926D-03
     Exponent=  3.4087010191D+02 Coefficients= -3.9890039230D-02
     Exponent=  7.7363135167D+01 Coefficients= -1.7853911985D-01
     Exponent=  2.1479644940D+01 Coefficients= -4.6427684959D-01
     Exponent=  6.6589433124D+00 Coefficients= -4.4309745172D-01
 S 1 1.00
     Exponent=  8.0975975668D-01 Coefficients=  1.0000000000D+00
 S 1 1.00
     Exponent=  2.5530772234D-01 Coefficients=  1.0000000000D+00
 S 1 1.00
     Exponent=  7.6572453250D-02 Coefficients=  1.0000000000D+00
 P 3 1.00
     Exponent=  1.7721504317D+01 Coefficients=  4.3394573193D-02
     Exponent=  3.8635505440D+00 Coefficients=  2.3094120765D-01
     Exponent=  1.0480920883D+00 Coefficients=  5.1375311064D-01
 P 1 1.00
     Exponent=  2.7641544411D-01 Coefficients=  1.0000000000D+00
 P 1 1.00
     Exponent=  6.9002276350D-02 Coefficients=  1.0000000000D+00
 D 1 1.00
     Exponent=  1.2000000000D+00 Coefficients=  1.0000000000D+00
 D 1 1.00
     Exponent=  1.7992024323D-01 Coefficients=  1.0000000000D+00
 ****
 Ernie: Thresh=  0.10000D-02 Tol=  0.10000D-05 Strict=F.
 There are    54 symmetry adapted cartesian basis functions of A'  symmetry.
 There are    25 symmetry adapted cartesian basis functions of A"  symmetry.
 There are    50 symmetry adapted basis functions of A'  symmetry.
 There are    25 symmetry adapted basis functions of A"  symmetry.
    75 basis functions,   107 primitive gaussians,    79 cartesian basis functions
     9 alpha electrons        9 beta electrons
       nuclear repulsion energy        40.4823006795 Hartrees.
 IExCor= 4639 DFT=T Ex+Corr=wB97XD ExCW=0 ScaHFX=  1.000000
 ScaDFX=  1.000000  1.000000  1.000000  1.000000 ScalE2=  1.000000  1.000000
 IRadAn=      5 IRanWt=     -1 IRanGd=            0 ICorTp=0 IEmpDi=121
 HFx  wShort=  0.000000 wLong=  0.200000 cFull=  0.222036 cShort=  0.000000 cLong=  0.777964
 DFx  wShort=  0.000000 wLong=  0.200000 cFull=  0.000000 cShort=  0.000000 cLong=  1.000000
 NAtoms=    6 NActive=    6 NUniq=    5 SFac= 1.44D+00 NAtFMM=   60 NAOKFM=F Big=F
 Integral buffers will be    131072 words long.
 Raffenetti 1 integral format.
 Two-electron integral symmetry is turned on.
 R6Disp:  Grimme-D2 Dispersion energy=       -0.0008381620 Hartrees.
 Nuclear repulsion after empirical dispersion term =       40.4814625174 Hartrees.
 Leave Link  301 at Sat Feb 12 22:25:04 2022, MaxMem=  8589934592 cpu:               0.6 elap:               0.1
 (Enter /home/rr/g16/l302.exe)
 NPDir=0 NMtPBC=     1 NCelOv=     1 NCel=       1 NClECP=     1 NCelD=      1
         NCelK=      1 NCelE2=     1 NClLst=     1 CellRange=     0.0.
 One-electron integrals computed using PRISM.
 One-electron integral symmetry used in STVInt
 NBasis=    75 RedAO= T EigKep=  6.14D-04  NBF=    50    25
 NBsUse=    75 1.00D-06 EigRej= -1.00D+00 NBFU=    50    25
 Precomputing XC quadrature grid using
 IXCGrd= 4 IRadAn=           5 IRanWt=          -1 IRanGd=           0 AccXCQ= 0.00D+00.
 Generated NRdTot=       0 NPtTot=           0 NUsed=           0 NTot=          32
 NSgBfM=    79    79    79    79    79 MxSgAt=     6 MxSgA2=     6.
 Leave Link  302 at Sat Feb 12 22:25:04 2022, MaxMem=  8589934592 cpu:               1.0 elap:               0.1
 (Enter /home/rr/g16/l303.exe)
 DipDrv:  MaxL=1.
 Leave Link  303 at Sat Feb 12 22:25:04 2022, MaxMem=  8589934592 cpu:               0.2 elap:               0.1
 (Enter /home/rr/g16/l308.exe)
 Leave Link  308 at Sat Feb 12 22:25:04 2022, MaxMem=  8589934592 cpu:               0.2 elap:               0.0
 (Enter /home/rr/g16/l401.exe)
 ExpMin= 6.71D-02 ExpMax= 2.27D+03 ExpMxC= 3.41D+02 IAcc=3 IRadAn=         5 AccDes= 0.00D+00
 Harris functional with IExCor= 4639 and IRadAn=       5 diagonalized for initial guess.
 HarFok:  IExCor= 4639 AccDes= 0.00D+00 IRadAn=         5 IDoV= 1 UseB2=F ITyADJ=14
 ICtDFT=  3500011 ScaDFX=  1.000000  1.000000  1.000000  1.000000
 FoFCou: FMM=F IPFlag=           0 FMFlag=      100000 FMFlg1=           0
         NFxFlg=           0 DoJE=T BraDBF=F KetDBF=T FulRan=T
         wScrn=  0.000000 ICntrl=       500 IOpCl=  0 I1Cent=   200000004 NGrid=           0
         NMat0=    1 NMatS0=      1 NMatT0=    0 NMatD0=    1 NMtDS0=    0 NMtDT0=    0
 Petite list used in FoFCou.
 Harris En= -110.849075568486    
 JPrj=0 DoOrth=F DoCkMO=F.
 Initial guess orbital symmetries:
       Occupied  (A') (A') (A') (A') (A') (A") (A') (A') (A")
       Virtual   (A') (A') (A') (A") (A') (A') (A") (A') (A") (A')
                 (A') (A') (A") (A') (A") (A') (A') (A") (A") (A')
                 (A') (A') (A") (A') (A') (A") (A') (A') (A") (A')
                 (A') (A") (A') (A') (A") (A') (A") (A') (A') (A')
                 (A') (A") (A") (A') (A") (A') (A') (A") (A") (A')
                 (A') (A") (A') (A') (A') (A') (A") (A') (A') (A")
                 (A') (A") (A") (A') (A') (A')
 The electronic state of the initial guess is 1-A'.
 Leave Link  401 at Sat Feb 12 22:25:05 2022, MaxMem=  8589934592 cpu:               1.8 elap:               0.3
 (Enter /home/rr/g16/l502.exe)
 Keep R1 ints in memory in symmetry-blocked form, NReq=15567170.
 FoFCou: FMM=F IPFlag=           0 FMFlag=           0 FMFlg1=           0
         NFxFlg=           0 DoJE=F BraDBF=F KetDBF=F FulRan=T
         wScrn=  0.000000 ICntrl=       600 IOpCl=  0 I1Cent=           0 NGrid=           0
         NMat0=    1 NMatS0=   2850 NMatT0=    0 NMatD0=    1 NMtDS0=    0 NMtDT0=    0
 Petite list used in FoFCou.
 Closed shell SCF:
 Using DIIS extrapolation, IDIIS=  1040.
 NGot=  8589934592 LenX=  8587850961 LenY=  8587844279
 Requested convergence on RMS density matrix=1.00D-08 within 100 cycles.
 Requested convergence on MAX density matrix=1.00D-06.
 Requested convergence on             energy=1.00D-06.
 No special actions if energy rises.
 Integral accuracy reduced to 1.0D-05 until final iterations.

 Cycle   1  Pass 0  IDiag  1:
 E= -115.585807571733    
 DIIS: error= 2.54D-02 at cycle   1 NSaved=   1.
 NSaved= 1 IEnMin= 1 EnMin= -115.585807571733     IErMin= 1 ErrMin= 2.54D-02
 ErrMax= 2.54D-02  0.00D+00 EMaxC= 1.00D-01 BMatC= 6.04D-02 BMatP= 6.04D-02
 IDIUse=3 WtCom= 7.46D-01 WtEn= 2.54D-01
 Coeff-Com:  0.100D+01
 Coeff-En:   0.100D+01
 Coeff:      0.100D+01
 Gap=     0.503 Goal=   None    Shift=    0.000
 GapD=    0.503 DampG=2.000 DampE=0.500 DampFc=1.0000 IDamp=-1.
 RMSDP=4.11D-03 MaxDP=1.01D-01              OVMax= 6.15D-02

 Cycle   2  Pass 0  IDiag  1:
 E= -115.593317560706     Delta-E=       -0.007509988973 Rises=F Damp=F
 DIIS: error= 1.26D-02 at cycle   2 NSaved=   2.
 NSaved= 2 IEnMin= 2 EnMin= -115.593317560706     IErMin= 2 ErrMin= 1.26D-02
 ErrMax= 1.26D-02  0.00D+00 EMaxC= 1.00D-01 BMatC= 2.50D-02 BMatP= 6.04D-02
 IDIUse=3 WtCom= 8.74D-01 WtEn= 1.26D-01
 Coeff-Com:  0.365D+00 0.635D+00
 Coeff-En:   0.383D+00 0.617D+00
 Coeff:      0.367D+00 0.633D+00
 Gap=     0.453 Goal=   None    Shift=    0.000
 RMSDP=1.68D-03 MaxDP=4.37D-02 DE=-7.51D-03 OVMax= 4.09D-02

 Cycle   3  Pass 0  IDiag  1:
 E= -115.608136176402     Delta-E=       -0.014818615696 Rises=F Damp=F
 DIIS: error= 5.34D-03 at cycle   3 NSaved=   3.
 NSaved= 3 IEnMin= 3 EnMin= -115.608136176402     IErMin= 3 ErrMin= 5.34D-03
 ErrMax= 5.34D-03  0.00D+00 EMaxC= 1.00D-01 BMatC= 3.33D-03 BMatP= 2.50D-02
 IDIUse=3 WtCom= 9.47D-01 WtEn= 5.34D-02
 Coeff-Com:  0.405D-02 0.266D+00 0.730D+00
 Coeff-En:   0.000D+00 0.636D-01 0.936D+00
 Coeff:      0.384D-02 0.255D+00 0.741D+00
 Gap=     0.453 Goal=   None    Shift=    0.000
 RMSDP=5.14D-04 MaxDP=1.29D-02 DE=-1.48D-02 OVMax= 1.30D-02

 Cycle   4  Pass 0  IDiag  1:
 E= -115.610479696755     Delta-E=       -0.002343520353 Rises=F Damp=F
 DIIS: error= 4.94D-04 at cycle   4 NSaved=   4.
 NSaved= 4 IEnMin= 4 EnMin= -115.610479696755     IErMin= 4 ErrMin= 4.94D-04
 ErrMax= 4.94D-04  0.00D+00 EMaxC= 1.00D-01 BMatC= 3.06D-05 BMatP= 3.33D-03
 IDIUse=3 WtCom= 9.95D-01 WtEn= 4.94D-03
 Coeff-Com: -0.250D-02 0.324D-01 0.160D+00 0.810D+00
 Coeff-En:   0.000D+00 0.000D+00 0.000D+00 0.100D+01
 Coeff:     -0.249D-02 0.322D-01 0.159D+00 0.811D+00
 Gap=     0.450 Goal=   None    Shift=    0.000
 RMSDP=6.90D-05 MaxDP=1.21D-03 DE=-2.34D-03 OVMax= 1.33D-03

 Cycle   5  Pass 0  IDiag  1:
 E= -115.610502995491     Delta-E=       -0.000023298735 Rises=F Damp=F
 DIIS: error= 7.05D-05 at cycle   5 NSaved=   5.
 NSaved= 5 IEnMin= 5 EnMin= -115.610502995491     IErMin= 5 ErrMin= 7.05D-05
 ErrMax= 7.05D-05  0.00D+00 EMaxC= 1.00D-01 BMatC= 5.80D-07 BMatP= 3.06D-05
 IDIUse=1 WtCom= 1.00D+00 WtEn= 0.00D+00
 Coeff-Com: -0.528D-03-0.120D-01-0.237D-01 0.241D-01 0.101D+01
 Coeff:     -0.528D-03-0.120D-01-0.237D-01 0.241D-01 0.101D+01
 Gap=     0.451 Goal=   None    Shift=    0.000
 RMSDP=2.60D-05 MaxDP=4.30D-04 DE=-2.33D-05 OVMax= 3.57D-04

 Cycle   6  Pass 0  IDiag  1:
 E= -115.610503827447     Delta-E=       -0.000000831956 Rises=F Damp=F
 DIIS: error= 3.22D-05 at cycle   6 NSaved=   6.
 NSaved= 6 IEnMin= 6 EnMin= -115.610503827447     IErMin= 6 ErrMin= 3.22D-05
 ErrMax= 3.22D-05  0.00D+00 EMaxC= 1.00D-01 BMatC= 9.39D-08 BMatP= 5.80D-07
 IDIUse=1 WtCom= 1.00D+00 WtEn= 0.00D+00
 Coeff-Com:  0.922D-04-0.627D-02-0.181D-01-0.404D-01 0.354D+00 0.710D+00
 Coeff:      0.922D-04-0.627D-02-0.181D-01-0.404D-01 0.354D+00 0.710D+00
 Gap=     0.450 Goal=   None    Shift=    0.000
 RMSDP=6.15D-06 MaxDP=1.16D-04 DE=-8.32D-07 OVMax= 1.02D-04

 Initial convergence to 1.0D-05 achieved.  Increase integral accuracy.
 Cycle   7  Pass 1  IDiag  1:
 E= -115.610505657759     Delta-E=       -0.000001830312 Rises=F Damp=F
 DIIS: error= 1.87D-05 at cycle   1 NSaved=   1.
 NSaved= 1 IEnMin= 1 EnMin= -115.610505657759     IErMin= 1 ErrMin= 1.87D-05
 ErrMax= 1.87D-05  0.00D+00 EMaxC= 1.00D-01 BMatC= 4.41D-08 BMatP= 4.41D-08
 IDIUse=1 WtCom= 1.00D+00 WtEn= 0.00D+00
 Coeff-Com:  0.100D+01
 Coeff:      0.100D+01
 Gap=     0.450 Goal=   None    Shift=    0.000
 RMSDP=6.15D-06 MaxDP=1.16D-04 DE=-1.83D-06 OVMax= 5.21D-05

 Cycle   8  Pass 1  IDiag  1:
 E= -115.610505696053     Delta-E=       -0.000000038294 Rises=F Damp=F
 DIIS: error= 4.52D-06 at cycle   2 NSaved=   2.
 NSaved= 2 IEnMin= 2 EnMin= -115.610505696053     IErMin= 2 ErrMin= 4.52D-06
 ErrMax= 4.52D-06  0.00D+00 EMaxC= 1.00D-01 BMatC= 1.69D-09 BMatP= 4.41D-08
 IDIUse=1 WtCom= 1.00D+00 WtEn= 0.00D+00
 Coeff-Com: -0.711D-02 0.101D+01
 Coeff:     -0.711D-02 0.101D+01
 Gap=     0.450 Goal=   None    Shift=    0.000
 RMSDP=1.32D-06 MaxDP=2.29D-05 DE=-3.83D-08 OVMax= 2.14D-05

 Cycle   9  Pass 1  IDiag  1:
 E= -115.610505697633     Delta-E=       -0.000000001580 Rises=F Damp=F
 DIIS: error= 2.58D-06 at cycle   3 NSaved=   3.
 NSaved= 3 IEnMin= 3 EnMin= -115.610505697633     IErMin= 3 ErrMin= 2.58D-06
 ErrMax= 2.58D-06  0.00D+00 EMaxC= 1.00D-01 BMatC= 8.00D-10 BMatP= 1.69D-09
 IDIUse=1 WtCom= 1.00D+00 WtEn= 0.00D+00
 Coeff-Com: -0.441D-01 0.409D+00 0.635D+00
 Coeff:     -0.441D-01 0.409D+00 0.635D+00
 Gap=     0.450 Goal=   None    Shift=    0.000
 RMSDP=4.32D-07 MaxDP=1.10D-05 DE=-1.58D-09 OVMax= 6.50D-06

 Cycle  10  Pass 1  IDiag  1:
 E= -115.610505698389     Delta-E=       -0.000000000756 Rises=F Damp=F
 DIIS: error= 5.53D-07 at cycle   4 NSaved=   4.
 NSaved= 4 IEnMin= 4 EnMin= -115.610505698389     IErMin= 4 ErrMin= 5.53D-07
 ErrMax= 5.53D-07  0.00D+00 EMaxC= 1.00D-01 BMatC= 1.23D-11 BMatP= 8.00D-10
 IDIUse=1 WtCom= 1.00D+00 WtEn= 0.00D+00
 Coeff-Com: -0.494D-02-0.225D-02 0.484D-01 0.959D+00
 Coeff:     -0.494D-02-0.225D-02 0.484D-01 0.959D+00
 Gap=     0.450 Goal=   None    Shift=    0.000
 RMSDP=9.60D-08 MaxDP=1.74D-06 DE=-7.56D-10 OVMax= 2.94D-06

 Cycle  11  Pass 1  IDiag  1:
 E= -115.610505698410     Delta-E=       -0.000000000021 Rises=F Damp=F
 DIIS: error= 2.58D-07 at cycle   5 NSaved=   5.
 NSaved= 5 IEnMin= 5 EnMin= -115.610505698410     IErMin= 5 ErrMin= 2.58D-07
 ErrMax= 2.58D-07  0.00D+00 EMaxC= 1.00D-01 BMatC= 6.85D-12 BMatP= 1.23D-11
 IDIUse=1 WtCom= 1.00D+00 WtEn= 0.00D+00
 Coeff-Com:  0.277D-02-0.474D-01-0.519D-01 0.456D+00 0.640D+00
 Coeff:      0.277D-02-0.474D-01-0.519D-01 0.456D+00 0.640D+00
 Gap=     0.450 Goal=   None    Shift=    0.000
 RMSDP=3.16D-08 MaxDP=7.22D-07 DE=-2.11D-11 OVMax= 8.86D-07

 Cycle  12  Pass 1  IDiag  1:
 E= -115.610505698417     Delta-E=       -0.000000000007 Rises=F Damp=F
 DIIS: error= 7.53D-08 at cycle   6 NSaved=   6.
 NSaved= 6 IEnMin= 6 EnMin= -115.610505698417     IErMin= 6 ErrMin= 7.53D-08
 ErrMax= 7.53D-08  0.00D+00 EMaxC= 1.00D-01 BMatC= 2.34D-13 BMatP= 6.85D-12
 IDIUse=1 WtCom= 1.00D+00 WtEn= 0.00D+00
 Coeff-Com:  0.121D-02-0.102D-01-0.175D-01-0.118D-01 0.140D+00 0.898D+00
 Coeff:      0.121D-02-0.102D-01-0.175D-01-0.118D-01 0.140D+00 0.898D+00
 Gap=     0.450 Goal=   None    Shift=    0.000
 RMSDP=1.15D-08 MaxDP=2.11D-07 DE=-6.91D-12 OVMax= 3.90D-07

 Cycle  13  Pass 1  IDiag  1:
 E= -115.610505698416     Delta-E=        0.000000000000 Rises=F Damp=F
 DIIS: error= 1.07D-08 at cycle   7 NSaved=   7.
 NSaved= 7 IEnMin= 6 EnMin= -115.610505698417     IErMin= 7 ErrMin= 1.07D-08
 ErrMax= 1.07D-08  0.00D+00 EMaxC= 1.00D-01 BMatC= 5.55D-15 BMatP= 2.34D-13
 IDIUse=1 WtCom= 1.00D+00 WtEn= 0.00D+00
 Coeff-Com: -0.420D-04 0.164D-02 0.128D-02-0.239D-01-0.250D-01 0.302D-01
 Coeff-Com:  0.102D+01
 Coeff:     -0.420D-04 0.164D-02 0.128D-02-0.239D-01-0.250D-01 0.302D-01
 Coeff:      0.102D+01
 Gap=     0.450 Goal=   None    Shift=    0.000
 RMSDP=2.89D-09 MaxDP=4.81D-08 DE= 4.83D-13 OVMax= 8.54D-08

 SCF Done:  E(RwB97XD) =  -115.610505698     A.U. after   13 cycles
            NFock= 13  Conv=0.29D-08     -V/T= 2.0099
 KE= 1.144762839618D+02 PE=-3.515538072541D+02 EE= 8.098555507641D+01
 Leave Link  502 at Sat Feb 12 22:25:06 2022, MaxMem=  8589934592 cpu:              10.1 elap:               1.3
 (Enter /home/rr/g16/l801.exe)
 DoSCS=F DFT=T ScalE2(SS,OS)=  1.000000  1.000000
 ExpMin= 6.71D-02 ExpMax= 2.27D+03 ExpMxC= 3.41D+02 IAcc=3 IRadAn=         5 AccDes= 0.00D+00
 HarFok:  IExCor=  205 AccDes= 0.00D+00 IRadAn=         5 IDoV=-2 UseB2=F ITyADJ=14
 ICtDFT= 12500011 ScaDFX=  1.000000  1.000000  1.000000  1.000000
 Largest valence mixing into a core orbital is  7.38D-05
 Largest core mixing into a valence orbital is  1.83D-05
 Range of M.O.s used for correlation:     3    75
 NBasis=    75 NAE=     9 NBE=     9 NFC=     2 NFV=     0
 NROrb=     73 NOA=     7 NOB=     7 NVA=    66 NVB=    66

 **** Warning!!: The largest alpha MO coefficient is  0.21171956D+02

 Leave Link  801 at Sat Feb 12 22:25:06 2022, MaxMem=  8589934592 cpu:               0.5 elap:               0.1
 (Enter /home/rr/g16/l914.exe)
 RHF ground state
 Keep R1, R2, and R3 ints in memory in symmetry-blocked form, NReq=265992238.
 FoFCou: FMM=F IPFlag=           0 FMFlag=           0 FMFlg1=           0
         NFxFlg=           0 DoJE=F BraDBF=F KetDBF=F FulRan=T
         wScrn=  0.000000 ICntrl=       600 IOpCl=  0 I1Cent=           0 NGrid=           0
         NMat0=    1 NMatS0=   2850 NMatT0=    0 NMatD0=    1 NMtDS0=    0 NMtDT0=    0
 Petite list used in FoFCou.
 MDV=  8589934592 DFT=T DoStab=F Mixed=T DoRPA=T DoScal=F NonHer=T
 Making orbital integer symmetry assigments:
 Orbital symmetries:
       Occupied  (A') (A') (A') (A') (A') (A") (A') (A') (A")
       Virtual   (A') (A') (A") (A') (A') (A') (A") (A') (A") (A')
                 (A') (A') (A") (A') (A") (A') (A') (A") (A") (A')
                 (A') (A') (A") (A') (A') (A") (A') (A') (A") (A')
                 (A') (A") (A') (A') (A") (A') (A") (A') (A') (A')
                 (A') (A") (A") (A') (A") (A') (A') (A") (A") (A')
                 (A') (A") (A') (A') (A') (A') (A") (A') (A') (A")
                 (A') (A") (A") (A') (A') (A')
   462 initial guesses have been made.
 Convergence on wavefunction:    0.001000000000000
 Davidson Disk Diagonalization:  ConvIn= 1.00D-03 SkipCon=T Conv= 1.00D-03.
 Max sub-space:  2772 roots to seek:   924 dimension of matrix:          924
 *** WARNING: Number of orthogonal guesses is          462
 Iteration     1 Dimension   462 NMult     0 NNew    462
 CISAX will form   462 AO SS matrices at one time.
 NMat=   462 NSing=   462 JSym2X=-1.
 New state      4 was old state      5
 New state      5 was old state      4
 New state      9 was old state     10
 New state     10 was old state     11
 New state     11 was old state      9
 New state     15 was old state     16
 New state     16 was old state     15
 New state     17 was old state     20
 New state     20 was old state     17
 New state     22 was old state     23
 New state     23 was old state     22
 New state     24 was old state     26
 New state     26 was old state     24
 New state     27 was old state     29
 New state     29 was old state     30
 New state     30 was old state     27
 New state     31 was old state     32
 New state     32 was old state     35
 New state     33 was old state     37
 New state     34 was old state     36
 New state     35 was old state     38
 New state     36 was old state     34
 New state     37 was old state     31
 New state     38 was old state     33
 New state     39 was old state     41
 New state     41 was old state     39
 New state     43 was old state     44
 New state     44 was old state     43
 New state     45 was old state     47
 New state     46 was old state     45
 New state     47 was old state     48
 New state     48 was old state     50
 New state     49 was old state     46
 New state     50 was old state     49
 New state     51 was old state     52
 New state     52 was old state     51
 New state     53 was old state     54
 New state     54 was old state     55
 New state     55 was old state     57
 New state     56 was old state     53
 New state     57 was old state     59
 New state     58 was old state     56
 New state     59 was old state     61
 New state     60 was old state     58
 New state     61 was old state     60
 New state     62 was old state     63
 New state     63 was old state     62
 New state     64 was old state     65
 New state     65 was old state     68
 New state     66 was old state     64
 New state     67 was old state     66
 New state     68 was old state     67
 New state     69 was old state     70
 New state     70 was old state     69
 New state     71 was old state     74
 New state     72 was old state     73
 New state     73 was old state     72
 New state     74 was old state     71
 New state     76 was old state     77
 New state     77 was old state     76
 New state     80 was old state     81
 New state     81 was old state     80
 New state     82 was old state     83
 New state     83 was old state     84
 New state     84 was old state     85
 New state     85 was old state     87
 New state     87 was old state     82
 New state     88 was old state     91
 New state     89 was old state     88
 New state     90 was old state     89
 New state     91 was old state     92
 New state     92 was old state     90
 New state     93 was old state     95
 New state     94 was old state     96
 New state     95 was old state     97
 New state     96 was old state     94
 New state     97 was old state     93
 New state     98 was old state    100
 New state    100 was old state     98
 New state    101 was old state    102
 New state    102 was old state    104
 New state    103 was old state    101
 New state    104 was old state    103
 New state    105 was old state    106
 New state    106 was old state    107
 New state    107 was old state    110
 New state    109 was old state    111
 New state    110 was old state    105
 New state    111 was old state    114
 New state    112 was old state    113
 New state    113 was old state    112
 New state    114 was old state    116
 New state    116 was old state    118
 New state    117 was old state    109
 New state    118 was old state    123
 New state    119 was old state    117
 New state    120 was old state    122
 New state    121 was old state    120
 New state    122 was old state    121
 New state    123 was old state    119
 New state    125 was old state    129
 New state    126 was old state    127
 New state    127 was old state    126
 New state    128 was old state    125
 New state    129 was old state    128
 New state    131 was old state    132
 New state    132 was old state    136
 New state    133 was old state    131
 New state    134 was old state    133
 New state    135 was old state    134
 New state    136 was old state    137
 New state    137 was old state    140
 New state    138 was old state    135
 New state    139 was old state    138
 New state    140 was old state    143
 New state    141 was old state    146
 New state    142 was old state    144
 New state    143 was old state    142
 New state    144 was old state    147
 New state    146 was old state    141
 New state    147 was old state    151
 New state    148 was old state    153
 New state    150 was old state    152
 New state    151 was old state    148
 New state    152 was old state    150
 New state    153 was old state    156
 New state    155 was old state    157
 New state    156 was old state    155
 New state    157 was old state    159
 New state    159 was old state    163
 New state    161 was old state    162
 New state    162 was old state    161
 New state    163 was old state    165
 New state    165 was old state    166
 New state    166 was old state    167
 New state    167 was old state    171
 New state    170 was old state    174
 New state    171 was old state    170
 New state    172 was old state    173
 New state    173 was old state    175
 New state    174 was old state    172
 New state    175 was old state    176
 New state    176 was old state    177
 New state    177 was old state    186
 New state    178 was old state    183
 New state    179 was old state    182
 New state    180 was old state    181
 New state    181 was old state    178
 New state    182 was old state    179
 New state    183 was old state    180
 New state    184 was old state    185
 New state    185 was old state    184
 New state    186 was old state    188
 New state    188 was old state    191
 New state    189 was old state    190
 New state    190 was old state    189
 New state    191 was old state    192
 New state    192 was old state    194
 New state    193 was old state    195
 New state    194 was old state    196
 New state    195 was old state    193
 New state    196 was old state    197
 New state    197 was old state    207
 New state    198 was old state    201
 New state    199 was old state    200
 New state    200 was old state    199
 New state    201 was old state    198
 New state    202 was old state    203
 New state    203 was old state    202
 New state    205 was old state    206
 New state    206 was old state    208
 New state    207 was old state    205
 New state    208 was old state    209
 New state    209 was old state    211
 New state    210 was old state    212
 New state    211 was old state    210
 New state    212 was old state    214
 New state    213 was old state    217
 New state    214 was old state    213
 New state    215 was old state    220
 New state    216 was old state    222
 New state    217 was old state    215
 New state    218 was old state    216
 New state    219 was old state    218
 New state    220 was old state    223
 New state    221 was old state    224
 New state    222 was old state    221
 New state    223 was old state    219
 New state    224 was old state    226
 New state    225 was old state    227
 New state    226 was old state    225
 New state    227 was old state    232
 New state    228 was old state    231
 New state    229 was old state    236
 New state    230 was old state    234
 New state    231 was old state    228
 New state    232 was old state    229
 New state    233 was old state    237
 New state    234 was old state    235
 New state    235 was old state    230
 New state    236 was old state    241
 New state    237 was old state    233
 New state    238 was old state    239
 New state    239 was old state    243
 New state    240 was old state    242
 New state    241 was old state    238
 New state    242 was old state    240
 New state    243 was old state    246
 New state    244 was old state    245
 New state    245 was old state    244
 New state    246 was old state    247
 New state    247 was old state    250
 New state    248 was old state    251
 New state    249 was old state    253
 New state    250 was old state    248
 New state    251 was old state    254
 New state    252 was old state    256
 New state    253 was old state    249
 New state    254 was old state    257
 New state    255 was old state    252
 New state    256 was old state    255
 New state    257 was old state    258
 New state    258 was old state    259
 New state    259 was old state    262
 New state    262 was old state    265
 New state    263 was old state    264
 New state    264 was old state    263
 New state    265 was old state    272
 New state    266 was old state    267
 New state    267 was old state    266
 New state    272 was old state    277
 New state    274 was old state    275
 New state    275 was old state    278
 New state    276 was old state    274
 New state    277 was old state    276
 New state    278 was old state    279
 New state    279 was old state    280
 New state    280 was old state    283
 New state    282 was old state    284
 New state    283 was old state    286
 New state    284 was old state    285
 New state    285 was old state    282
 New state    286 was old state    290
 New state    287 was old state    291
 New state    289 was old state    287
 New state    290 was old state    289
 New state    291 was old state    295
 New state    292 was old state    293
 New state    293 was old state    297
 New state    294 was old state    292
 New state    295 was old state    294
 New state    296 was old state    298
 New state    297 was old state    296
 New state    298 was old state    300
 New state    299 was old state    301
 New state    300 was old state    299
 New state    301 was old state    302
 New state    302 was old state    303
 New state    303 was old state    312
 New state    306 was old state    307
 New state    307 was old state    306
 New state    308 was old state    310
 New state    309 was old state    308
 New state    310 was old state    309
 New state    312 was old state    317
 New state    313 was old state    314
 New state    314 was old state    313
 New state    315 was old state    316
 New state    316 was old state    315
 New state    317 was old state    318
 New state    318 was old state    319
 New state    319 was old state    321
 New state    321 was old state    322
 No map to state    322
 New state    324 was old state    326
 New state    326 was old state    324
 New state    329 was old state    330
 New state    330 was old state    333
 New state    331 was old state    329
 New state    332 was old state    331
 New state    333 was old state    332
 New state    334 was old state    335
 New state    335 was old state    334
 New state    336 was old state    339
 New state    337 was old state    336
 New state    338 was old state    337
 New state    339 was old state    338
 New state    340 was old state    342
 New state    341 was old state    340
 New state    342 was old state    343
 New state    343 was old state    341
 New state    350 was old state    355
 New state    351 was old state    354
 New state    352 was old state    351
 New state    353 was old state    350
 New state    354 was old state    353
 New state    355 was old state    352
 New state    357 was old state    358
 New state    358 was old state    357
 New state    360 was old state    362
 New state    362 was old state    360
 New state    370 was old state    371
 New state    371 was old state    372
 New state    372 was old state    374
 New state    374 was old state    370
 New state    382 was old state    383
 New state    383 was old state    385
 New state    384 was old state    382
 New state    385 was old state    384
 New state    392 was old state    393
 New state    393 was old state    392
 New state    396 was old state    397
 New state    397 was old state    396
 New state    403 was old state    404
 New state    404 was old state    405
 New state    405 was old state    406
 New state    406 was old state    403
 New state    409 was old state    410
 New state    410 was old state    409
 New state    411 was old state    412
 New state    412 was old state    411
 New state    414 was old state    415
 New state    415 was old state    414
 New state    416 was old state    417
 New state    417 was old state    416
 New state    419 was old state    421
 New state    421 was old state    423
 New state    422 was old state    419
 New state    423 was old state    427
 New state    424 was old state    426
 New state    426 was old state    424
 New state    427 was old state    422
 New state    431 was old state    432
 New state    432 was old state    431
 New state    435 was old state    436
 New state    436 was old state    435
 New state    439 was old state    441
 New state    441 was old state    442
 New state    442 was old state    439
 New state    459 was old state    460
 New state    460 was old state    459
 Excitation Energies [eV] at current iteration:
 Root      1 :     7.224190988071592
 Root      2 :     8.553319202408279
 Root      3 :     8.970601522788415
 Root      4 :     9.523784327413400
 Root      5 :     9.553768854549018
 Root      6 :    10.066643142553370
 Root      7 :    10.256282612907200
 Root      8 :    10.613620688566350
 Root      9 :    11.086423641795680
 Root     10 :    11.120007031098450
 Root     11 :    11.163872994766270
 Root     12 :    11.612586560050180
 Root     13 :    11.699665405143740
 Root     14 :    11.894661960547710
 Root     15 :    11.929557686496840
 Root     16 :    12.024442935915850
 Root     17 :    12.334818116523150
 Root     18 :    12.514210969057090
 Root     19 :    12.525244715851940
 Root     20 :    12.764680837569260
 Root     21 :    12.814881639946670
 Root     22 :    13.206338593410740
 Root     23 :    13.383308759427370
 Root     24 :    13.416672479654460
 Root     25 :    13.873709393735120
 Root     26 :    13.877569576803410
 Root     27 :    13.971673180375410
 Root     28 :    14.022610517486570
 Root     29 :    14.213342468197670
 Root     30 :    14.498146089237910
 Root     31 :    14.515207927823480
 Root     32 :    14.679459713794100
 Root     33 :    14.717485035732260
 Root     34 :    14.798210013105970
 Root     35 :    14.910561690886870
 Root     36 :    14.919660451782730
 Root     37 :    15.014615103152210
 Root     38 :    15.137395894158710
 Root     39 :    15.154314957781380
 Root     40 :    15.296625825070270
 Root     41 :    15.322526984131770
 Root     42 :    15.569957819381600
 Root     43 :    15.853968665038180
 Root     44 :    15.879423645993940
 Root     45 :    15.917584753112720
 Root     46 :    16.039977596133400
 Root     47 :    16.152289118336410
 Root     48 :    16.152922554122550
 Root     49 :    16.260419131241900
 Root     50 :    16.293251695379060
 Root     51 :    16.544636253175500
 Root     52 :    16.564882516308660
 Root     53 :    16.667862031029040
 Root     54 :    16.885957228999530
 Root     55 :    16.942915150542060
 Root     56 :    16.953325522649890
 Root     57 :    16.990144571432580
 Root     58 :    16.992012567726170
 Root     59 :    17.191373076920310
 Root     60 :    17.228772878299920
 Root     61 :    17.343341274925000
 Root     62 :    17.480532847034410
 Root     63 :    17.490170042483950
 Root     64 :    17.767935414378910
 Root     65 :    17.883134708176070
 Root     66 :    17.900218098182830
 Root     67 :    18.257815409879070
 Root     68 :    18.331714861403170
 Root     69 :    18.426600790867950
 Root     70 :    18.459115016386900
 Root     71 :    18.597886430791930
 Root     72 :    18.661703764615550
 Root     73 :    18.670198787517200
 Root     74 :    18.807844225689270
 Root     75 :    18.857665672391580
 Root     76 :    18.929909766852710
 Root     77 :    19.013462320987960
 Root     78 :    19.060073401438090
 Root     79 :    19.074749378619850
 Root     80 :    19.308519526171820
 Root     81 :    19.338139837692740
 Root     82 :    19.424745492250820
 Root     83 :    19.450720031518380
 Root     84 :    19.499273284982800
 Root     85 :    19.649027817306230
 Root     86 :    19.718843855596830
 Root     87 :    19.744033388092070
 Root     88 :    19.924500399418600
 Root     89 :    20.017748444119800
 Root     90 :    20.196461161665510
 Root     91 :    20.275574454390630
 Root     92 :    20.397819008399770
 Root     93 :    20.553315154047120
 Root     94 :    20.553795298925110
 Root     95 :    20.669471647045650
 Root     96 :    20.781571570669790
 Root     97 :    20.829494705755990
 Root     98 :    20.977958397308630
 Root     99 :    20.998443714193740
 Root    100 :    21.069673294645200
 Root    101 :    21.085919234746650
 Root    102 :    21.137169709037480
 Root    103 :    21.154067370004040
 Root    104 :    21.313742683037180
 Root    105 :    21.372466776147580
 Root    106 :    21.441855518368970
 Root    107 :    21.469761990052330
 Root    108 :    21.593952191243230
 Root    109 :    21.714912061145770
 Root    110 :    21.802797534628140
 Root    111 :    21.820692589605010
 Root    112 :    21.867248432270350
 Root    113 :    21.915817788335230
 Root    114 :    21.970029893914400
 Root    115 :    22.040306839928450
 Root    116 :    22.308121404583240
 Root    117 :    22.308122445081080
 Root    118 :    22.504065228228640
 Root    119 :    22.636972168478800
 Root    120 :    22.678681941779360
 Root    121 :    22.876354979944700
 Root    122 :    22.923788932269160
 Root    123 :    23.068280826385260
 Root    124 :    23.163040149602050
 Root    125 :    23.178001165308450
 Root    126 :    23.246820523158300
 Root    127 :    23.359201107999060
 Root    128 :    23.466367913641200
 Root    129 :    23.558709002362360
 Root    130 :    23.686436106474660
 Root    131 :    23.736915307999850
 Root    132 :    23.809521471217000
 Root    133 :    23.823108724854160
 Root    134 :    23.995001986505120
 Root    135 :    24.048758683983620
 Root    136 :    24.137659864005460
 Root    137 :    24.189014225578240
 Root    138 :    24.289966630720360
 Root    139 :    24.389951659890610
 Root    140 :    24.465111215812470
 Root    141 :    24.538251132676040
 Root    142 :    24.578503231251910
 Root    143 :    24.903528493211630
 Root    144 :    25.072765335267860
 Root    145 :    25.090812519467970
 Root    146 :    25.114538484444210
 Root    147 :    25.272106112980620
 Root    148 :    25.426286503800120
 Root    149 :    25.631641498631660
 Root    150 :    25.644337016812470
 Root    151 :    25.802072880927710
 Root    152 :    26.104897767971010
 Root    153 :    26.108854794919270
 Root    154 :    26.257430969242020
 Root    155 :    26.351943111166410
 Root    156 :    26.376362837661730
 Root    157 :    26.717611195973260
 Root    158 :    26.819130560926340
 Root    159 :    26.997938037280050
 Root    160 :    27.024317419750590
 Root    161 :    27.163976095680310
 Root    162 :    27.212282755458920
 Root    163 :    27.374962067676480
 Root    164 :    27.589476602958130
 Root    165 :    27.845641640029420
 Root    166 :    27.886884436443800
 Root    167 :    27.978271253536460
 Root    168 :    28.077524296032950
 Root    169 :    28.213534436961600
 Root    170 :    28.408190157360950
 Root    171 :    28.632064440513720
 Root    172 :    28.740323358482840
 Root    173 :    28.774578805697150
 Root    174 :    28.996879414214340
 Root    175 :    29.050685969344840
 Root    176 :    29.332256539595710
 Root    177 :    29.457063711519590
 Root    178 :    29.578960430632950
 Root    179 :    29.686616160332600
 Root    180 :    29.746654995618990
 Root    181 :    29.847258944938600
 Root    182 :    30.062047248219250
 Root    183 :    30.131620021783550
 Root    184 :    30.194448371419130
 Root    185 :    30.375880453618610
 Root    186 :    30.635106042091720
 Root    187 :    30.692402184784640
 Root    188 :    30.767749455099560
 Root    189 :    30.933297878324650
 Root    190 :    31.004035303495930
 Root    191 :    31.183996101837050
 Root    192 :    31.293548696031370
 Root    193 :    31.295145034398860
 Root    194 :    31.480260238998170
 Root    195 :    31.483741592127040
 Root    196 :    31.872559048659890
 Root    197 :    32.080389637348460
 Root    198 :    32.195964183143120
 Root    199 :    32.361158912618170
 Root    200 :    32.475530749961680
 Root    201 :    32.513899348012450
 Root    202 :    32.636187164514500
 Root    203 :    32.938039123133940
 Root    204 :    33.046299024732660
 Root    205 :    33.445644953407740
 Root    206 :    33.633633158815680
 Root    207 :    33.685153538614040
 Root    208 :    34.001603272451440
 Root    209 :    34.111858076232440
 Root    210 :    34.150952888360460
 Root    211 :    34.474748221339910
 Root    212 :    34.520382337969230
 Root    213 :    34.805131393281360
 Root    214 :    34.893088955868830
 Root    215 :    34.968376215763190
 Root    216 :    35.186904505728020
 Root    217 :    35.251806633223100
 Root    218 :    35.310217322835000
 Root    219 :    35.459193503556030
 Root    220 :    35.492584713120490
 Root    221 :    35.566424358469430
 Root    222 :    35.738833923089140
 Root    223 :    35.819010212128230
 Root    224 :    36.058039744895810
 Root    225 :    36.110635450132840
 Root    226 :    36.228088117132810
 Root    227 :    36.599799926699320
 Root    228 :    36.692207382652160
 Root    229 :    36.723647475703310
 Root    230 :    36.847527333431320
 Root    231 :    36.896449094114190
 Root    232 :    37.219023655570920
 Root    233 :    37.310229366856960
 Root    234 :    37.369397462612130
 Root    235 :    37.532418393031580
 Root    236 :    37.598504379680110
 Root    237 :    37.623224670225470
 Root    238 :    37.729252559827480
 Root    239 :    37.819454190447470
 Root    240 :    37.877484338481230
 Root    241 :    38.062015386363370
 Root    242 :    38.321881518966440
 Root    243 :    38.590849917236300
 Root    244 :    38.653904240267030
 Root    245 :    39.355934455270760
 Root    246 :    39.696556043023020
 Root    247 :    39.870966842147570
 Root    248 :    39.996597365322410
 Root    249 :    40.184078818568090
 Root    250 :    40.384205270109590
 Root    251 :    40.436161458210830
 Root    252 :    40.493108052361800
 Root    253 :    40.580365839686530
 Root    254 :    40.769905133135870
 Root    255 :    40.812571097248580
 Root    256 :    41.239576391355470
 Root    257 :    41.560316631503990
 Root    258 :    41.976228388581500
 Root    259 :    42.176307513604610
 Root    260 :    42.429042113441060
 Root    261 :    42.726137145400440
 Root    262 :    43.023582689491540
 Root    263 :    43.545276763196780
 Root    264 :    43.640501667115280
 Root    265 :    43.686018605158560
 Root    266 :    44.309196910629890
 Root    267 :    44.507993442112800
 Root    268 :    44.631153007138310
 Root    269 :    44.722878749720960
 Root    270 :    45.764900688006550
 Root    271 :    45.969296160230390
 Root    272 :    46.830591715358620
 Root    273 :    47.498256006005480
 Root    274 :    47.565706328068120
 Root    275 :    47.739451791115390
 Root    276 :    47.776705014498750
 Root    277 :    48.539872754145400
 Root    278 :    48.927715022525770
 Root    279 :    49.484105624770910
 Root    280 :    49.833620337474420
 Root    281 :    50.234013522928170
 Root    282 :    50.578709848773330
 Root    283 :    50.784983787767680
 Root    284 :    51.082499893823140
 Root    285 :    51.110253016122830
 Root    286 :    51.480466398113210
 Root    287 :    51.701418056690820
 Root    288 :    51.787027021156600
 Root    289 :    51.958501516962580
 Root    290 :    51.992665124621140
 Root    291 :    52.163587755171740
 Root    292 :    52.444071573521780
 Root    293 :    52.597082990468270
 Root    294 :    52.682252015181210
 Root    295 :    53.155518666677700
 Root    296 :    53.328958331925700
 Root    297 :    53.439869684603710
 Root    298 :    53.648824647418080
 Root    299 :    53.866044605698040
 Root    300 :    53.899571658752400
 Root    301 :    54.156892634792160
 Root    302 :    54.526751248490460
 Root    303 :    54.817243628577480
 Root    304 :    55.416987959764670
 Root    305 :    55.882891284989110
 Root    306 :    56.056125456478970
 Root    307 :    56.086738144291420
 Root    308 :    56.314430677131520
 Root    309 :    56.510076456967400
 Root    310 :    56.914070469309590
 Root    311 :    57.088457417718370
 Root    312 :    57.606833690759120
 Root    313 :    57.742334828536440
 Root    314 :    57.844126518280320
 Root    315 :    58.010969012248470
 Root    316 :    58.276244408909550
 Root    317 :    58.543222105194810
 Root    318 :    58.616834737754810
 Root    319 :    58.744396160180190
 Root    320 :    58.945390108273220
 Root    321 :    59.280602476698140
 Root    322 :    59.355997206185020
 Root    323 :    59.403641063499150
 Root    324 :    60.034126743632720
 Root    325 :    60.042290697423170
 Root    326 :    60.183204819446490
 Root    327 :    60.322550474101700
 Root    328 :    61.181987717283370
 Root    329 :    61.633462689875280
 Root    330 :    61.702199852209020
 Root    331 :    61.922504540698820
 Root    332 :    62.157039075540670
 Root    333 :    62.224018986868640
 Root    334 :    62.456877731803620
 Root    335 :    62.496485687078390
 Root    336 :    62.800658892406210
 Root    337 :    62.807789314553210
 Root    338 :    63.002546443281370
 Root    339 :    63.196363122753500
 Root    340 :    64.092633734009480
 Root    341 :    64.147378464304950
 Root    342 :    64.378813797763140
 Root    343 :    64.392995960364690
 Root    344 :    64.745931436722030
 Root    345 :    65.324122654268590
 Root    346 :    65.397805989320010
 Root    347 :    65.551136716214940
 Root    348 :    65.821113255908900
 Root    349 :    65.947476277993960
 Root    350 :    66.304475378671210
 Root    351 :    66.467389826354150
 Root    352 :    66.638260989297780
 Root    353 :    66.770998183844600
 Root    354 :    66.972617755925270
 Root    355 :    67.143241475362050
 Root    356 :    67.625244682098270
 Root    357 :    67.897630753823710
 Root    358 :    67.996591400133140
 Root    359 :    68.123511326935670
 Root    360 :    68.391189494013990
 Root    361 :    68.638674703069200
 Root    362 :    68.660314420912800
 Root    363 :    69.261512712801950
 Root    364 :    69.436060838376050
 Root    365 :    69.739869464532500
 Root    366 :    70.120217164024110
 Root    367 :    70.689856992716880
 Root    368 :    71.129377497279220
 Root    369 :    71.347249302244750
 Root    370 :    72.058924160079160
 Root    371 :    72.364055637906010
 Root    372 :    72.453132863188300
 Root    373 :    72.555537774357890
 Root    374 :    72.562532209686620
 Root    375 :    72.864559650568340
 Root    376 :    73.593493167012740
 Root    377 :    73.684770249158700
 Root    378 :    74.000843223697160
 Root    379 :    74.103704091861540
 Root    380 :    74.563089808615320
 Root    381 :    74.701066984703930
 Root    382 :    75.261877376186670
 Root    383 :    75.516804735874100
 Root    384 :    75.585322586987370
 Root    385 :    76.105958197010100
 Root    386 :    76.620677273822070
 Root    387 :    76.871140262627110
 Root    388 :    77.065386741411020
 Root    389 :    77.664407985410580
 Root    390 :    77.859419982737860
 Root    391 :    78.790256065453730
 Root    392 :    78.911249466123150
 Root    393 :    79.275061113360140
 Root    394 :    79.425855976718940
 Root    395 :    80.141788935267060
 Root    396 :    80.661611812149020
 Root    397 :    80.694202983479710
 Root    398 :    81.275796926811510
 Root    399 :    81.766605421516260
 Root    400 :    81.974230552234790
 Root    401 :    82.440277455500110
 Root    402 :    83.332833603188580
 Root    403 :    84.442408064210260
 Root    404 :    84.546656931553980
 Root    405 :    84.635845156531700
 Root    406 :    84.652391913513780
 Root    407 :    86.371970836773300
 Root    408 :    87.049601724250990
 Root    409 :    87.297015907329940
 Root    410 :    87.448109415547190
 Root    411 :    88.374203110065950
 Root    412 :    88.461416994100280
 Root    413 :    89.468537282726170
 Root    414 :    89.626725539328650
 Root    415 :    90.175858768544880
 Root    416 :    90.435916208418850
 Root    417 :    90.834487217926110
 Root    418 :    91.416226357885050
 Root    419 :    91.504174609144930
 Root    420 :    91.648850894310190
 Root    421 :    92.090576037535480
 Root    422 :    92.101339072976840
 Root    423 :    92.483281271241840
 Root    424 :    93.112992288273400
 Root    425 :    93.136423203459150
 Root    426 :    93.292075403593610
 Root    427 :    93.676212842809040
 Root    428 :    93.991867051945650
 Root    429 :    94.210078459633930
 Root    430 :    94.288662076701930
 Root    431 :    95.484201497826850
 Root    432 :    95.878704836049100
 Root    433 :    96.076956739640110
 Root    434 :    96.801968296464710
 Root    435 :    97.793052086473200
 Root    436 :    97.803473697176840
 Root    437 :    97.859219066970030
 Root    438 :    98.411857066137780
 Root    439 :    99.596293662040750
 Root    440 :    99.619129730486430
 Root    441 :   100.254012929726000
 Root    442 :   100.322952517262400
 Root    443 :   101.347057577770900
 Root    444 :   102.682157828641800
 Root    445 :   103.232409019979800
 Root    446 :   103.769898055539300
 Root    447 :   104.513511598033000
 Root    448 :   105.774300529340500
 Root    449 :   106.388445402359500
 Root    450 :   108.104182601644300
 Root    451 :   108.415977443250100
 Root    452 :   110.262087556231400
 Root    453 :   111.625080217751600
 Root    454 :   112.003373701684100
 Root    455 :   113.494415851744900
 Root    456 :   114.630470159664700
 Root    457 :   117.098205750405700
 Root    458 :   117.660302600252800
 Root    459 :   118.825008097002600
 Root    460 :   119.627941977538600
 Root    461 :   124.327037015263800
 Root    462 :   132.451868053573400
 Convergence achieved for final wavefunctions.
 ***********************************************************************
 Excited states from <AA,BB:AA,BB> singles matrix:
 ***********************************************************************
 
 1PDM for each excited state written to RWF  633
 Ground to excited state transition densities written to RWF  633
 Ground to excited state transition electric dipole moments (Au):
       state          X           Y           Z        Dip. S.      Osc.
         1        -0.0000      0.0000     -0.1019      0.0104      0.0018
         2         0.0000     -0.0000      0.4649      0.2161      0.0453
         3        -0.0504      0.0460      0.0000      0.0046      0.0010
         4         0.0000     -0.0000      0.2654      0.0704      0.0164
         5         0.2270     -0.5121     -0.0000      0.3138      0.0734
         6         0.5477     -0.0925     -0.0000      0.3085      0.0761
         7         0.0000      0.0000      0.1177      0.0139      0.0035
         8        -0.0000      0.0000      0.2325      0.0540      0.0141
         9        -0.0927     -0.5513     -0.0000      0.3125      0.0849
        10         0.2044     -0.1798     -0.0000      0.0741      0.0202
        11         0.0000     -0.0000      0.3928      0.1543      0.0422
        12         0.2752     -0.3175     -0.0000      0.1766      0.0502
        13         0.0000     -0.0000      0.2116      0.0448      0.0128
        14        -0.2450      0.2843     -0.0000      0.1408      0.0410
        15         0.0000     -0.0000     -0.4098      0.1679      0.0491
        16        -0.0638     -0.0308      0.0000      0.0050      0.0015
        17        -0.0000     -0.0000     -0.1302      0.0170      0.0051
        18        -0.1494      0.0886     -0.0000      0.0302      0.0093
        19        -0.0000      0.0000      0.3528      0.1245      0.0382
        20         0.4479      0.5644      0.0000      0.5192      0.1624
        21        -0.0000      0.0000     -0.3764      0.1417      0.0445
        22        -0.0000      0.0000      0.0765      0.0059      0.0019
        23        -0.2127     -0.1666     -0.0000      0.0730      0.0239
        24         0.0000      0.0000     -0.2892      0.0836      0.0275
        25        -0.4687      0.3727      0.0000      0.3586      0.1219
        26        -0.0000      0.0000     -0.1008      0.0102      0.0035
        27        -0.3802     -0.2476     -0.0000      0.2059      0.0705
        28         0.0000      0.0000      0.0214      0.0005      0.0002
        29         0.3379      0.2461     -0.0000      0.1747      0.0608
        30        -0.3075     -0.4398     -0.0000      0.2880      0.1023
        31        -0.0000     -0.0000     -0.0517      0.0027      0.0009
        32         0.2625     -0.1579     -0.0000      0.0938      0.0337
        33        -0.0701     -0.0644     -0.0000      0.0091      0.0033
        34        -0.0000     -0.0000     -0.4479      0.2006      0.0727
        35        -0.0000     -0.0000      0.2856      0.0816      0.0298
        36        -0.1442      0.5087     -0.0000      0.2796      0.1022
        37         0.7332      0.2732      0.0000      0.6123      0.2252
        38         0.0000      0.0000     -0.2222      0.0494      0.0183
        39         0.0708      0.0349      0.0000      0.0062      0.0023
        40        -0.0000      0.0000     -0.8379      0.7020      0.2631
        41        -0.3232     -0.9121     -0.0000      0.9364      0.3515
        42        -0.5994     -0.1104     -0.0000      0.3715      0.1417
        43         0.0000      0.0000      0.1416      0.0201      0.0078
        44         0.5082     -0.3737      0.0000      0.3979      0.1548
        45        -0.0000     -0.0000      0.5002      0.2502      0.0976
        46         0.0000      0.0000     -0.2011      0.0404      0.0159
        47        -0.0000      0.0000      0.2062      0.0425      0.0168
        48         0.0235     -0.1987     -0.0000      0.0400      0.0158
        49        -0.1040      0.3326     -0.0000      0.1214      0.0484
        50        -0.1708     -0.0104     -0.0000      0.0293      0.0117
        51        -0.2494     -0.1154      0.0000      0.0755      0.0306
        52        -0.0000      0.0000      0.5256      0.2762      0.1121
        53         0.0000      0.0000      0.2534      0.0642      0.0262
        54         0.2276      0.0912      0.0000      0.0601      0.0249
        55         0.0000      0.0000     -0.1078      0.0116      0.0048
        56        -0.1004     -0.0904     -0.0000      0.0183      0.0076
        57         0.0000     -0.0000      0.2703      0.0731      0.0304
        58         0.2554      0.0271     -0.0000      0.0660      0.0275
        59        -0.0000      0.0000     -0.2338      0.0546      0.0230
        60        -0.1385      0.2615      0.0000      0.0875      0.0369
        61         0.5825     -0.1942     -0.0000      0.3770      0.1602
        62         0.0000     -0.0000     -0.5310      0.2820      0.1208
        63        -0.3302      0.1758     -0.0000      0.1399      0.0600
        64        -0.0000      0.0000     -0.0706      0.0050      0.0022
        65        -0.0000     -0.0000     -0.0730      0.0053      0.0023
        66         0.0584      0.5961     -0.0000      0.3587      0.1573
        67        -0.1019      0.1396      0.0000      0.0299      0.0134
        68         0.0000     -0.0000     -0.0356      0.0013      0.0006
        69        -0.0000     -0.0000     -0.1575      0.0248      0.0112
        70         0.3035      0.1720      0.0000      0.1217      0.0550
        71         0.0818      0.0401      0.0000      0.0083      0.0038
        72        -0.0000     -0.0000     -0.0972      0.0095      0.0043
        73         0.0000     -0.0000     -0.2769      0.0767      0.0351
        74        -0.2145      0.1097      0.0000      0.0580      0.0267
        75        -0.0998      0.0616     -0.0000      0.0138      0.0064
        76        -0.0348     -0.4272      0.0000      0.1837      0.0852
        77        -0.0000     -0.0000      0.1793      0.0322      0.0150
        78        -0.0000     -0.0000     -0.2459      0.0605      0.0282
        79        -0.3651     -0.0918      0.0000      0.1417      0.0662
        80         0.0000     -0.0000      0.3000      0.0900      0.0426
        81         0.1978     -0.1694      0.0000      0.0678      0.0321
        82         0.0304     -0.0122     -0.0000      0.0011      0.0005
        83        -0.0000      0.0000     -0.3030      0.0918      0.0438
        84        -0.1997      0.1079      0.0000      0.0515      0.0246
        85        -0.0680      0.0927      0.0000      0.0132      0.0064
        86        -0.0000     -0.0000      0.1135      0.0129      0.0062
        87         0.0397     -0.1766     -0.0000      0.0328      0.0158
        88         0.1874      0.4028     -0.0000      0.1974      0.0963
        89         0.0000     -0.0000     -0.0910      0.0083      0.0041
        90        -0.0824      0.0184     -0.0000      0.0071      0.0035
        91         0.0000      0.0000      0.2794      0.0781      0.0388
        92        -0.1943     -0.2747     -0.0000      0.1132      0.0566
        93        -0.0500      0.4814      0.0000      0.2342      0.1179
        94        -0.0000      0.0000     -0.1410      0.0199      0.0100
        95         0.0000      0.0000      0.0461      0.0021      0.0011
        96         0.1083     -0.0276      0.0000      0.0125      0.0064
        97        -0.0000     -0.0000      0.0484      0.0023      0.0012
        98        -0.3184      0.1651     -0.0000      0.1286      0.0661
        99        -0.0000     -0.0000     -0.0634      0.0040      0.0021
       100         0.3030      0.2408      0.0000      0.1498      0.0773
       101        -0.0000      0.0000     -0.0120      0.0001      0.0001
       102         0.2114      0.1677     -0.0000      0.0728      0.0377
       103        -0.0000      0.0000      0.1974      0.0390      0.0202
       104        -0.0582     -0.0016      0.0000      0.0034      0.0018
       105        -0.0000     -0.0000      0.1136      0.0129      0.0068
       106         0.1554     -0.2258     -0.0000      0.0751      0.0395
       107         0.1709      0.1035      0.0000      0.0399      0.0210
       108        -0.0301     -0.1031      0.0000      0.0115      0.0061
       109        -0.0000      0.0000     -0.1786      0.0319      0.0170
       110         0.0587      0.1224      0.0000      0.0184      0.0098
       111        -0.0000      0.0000     -0.1096      0.0120      0.0064
       112         0.1367     -0.1645     -0.0000      0.0457      0.0245
       113        -0.0000     -0.0000      0.2261      0.0511      0.0275
       114         0.0862     -0.1183     -0.0000      0.0214      0.0115
       115        -0.0000     -0.0000     -0.0309      0.0010      0.0005
       116         0.0000      0.0000     -0.0011      0.0000      0.0000
       117         0.2415      0.0618      0.0000      0.0621      0.0340
       118         0.0000      0.0000     -0.2970      0.0882      0.0486
       119         0.2433     -0.1707     -0.0000      0.0883      0.0490
       120         0.0141      0.4877      0.0000      0.2380      0.1323
       121         0.1245      0.1598     -0.0000      0.0410      0.0230
       122        -0.0000     -0.0000     -0.1650      0.0272      0.0153
       123         0.0118     -0.4233      0.0000      0.1793      0.1013
       124        -0.0000      0.0000      0.0583      0.0034      0.0019
       125         0.1012     -0.4888     -0.0000      0.2492      0.1415
       126        -0.0000      0.0000      0.1421      0.0202      0.0115
       127        -0.0000      0.0000      0.1860      0.0346      0.0198
       128         0.0427      0.3487     -0.0000      0.1234      0.0710
       129        -0.0000      0.0000      0.1752      0.0307      0.0177
       130         0.1540      0.0243      0.0000      0.0243      0.0141
       131         0.0443     -0.1064      0.0000      0.0133      0.0077
       132        -0.0000     -0.0000     -0.0231      0.0005      0.0003
       133        -0.0546     -0.2058     -0.0000      0.0453      0.0264
       134        -0.0251      0.1852      0.0000      0.0349      0.0205
       135         0.0000      0.0000     -0.1103      0.0122      0.0072
       136         0.0790      0.0845     -0.0000      0.0134      0.0079
       137        -0.0000      0.0000     -0.2042      0.0417      0.0247
       138        -0.1255      0.1803      0.0000      0.0482      0.0287
       139         0.0000      0.0000      0.1630      0.0266      0.0159
       140        -0.1581     -0.2370      0.0000      0.0812      0.0487
       141        -0.0000      0.0000     -0.2101      0.0441      0.0265
       142         0.0645      0.3992     -0.0000      0.1635      0.0985
       143        -0.1045      0.3578      0.0000      0.1389      0.0848
       144         0.0000     -0.0000      0.6611      0.4370      0.2684
       145        -0.0743      0.0801     -0.0000      0.0119      0.0073
       146         0.0000     -0.0000      0.4207      0.1770      0.1089
       147        -0.1887     -0.0326      0.0000      0.0367      0.0227
       148         0.2116      0.1316      0.0000      0.0621      0.0387
       149         0.0000      0.0000     -0.0995      0.0099      0.0062
       150         0.1279     -0.4320      0.0000      0.2030      0.1275
       151        -0.1657      0.1536      0.0000      0.0511      0.0323
       152         0.0000      0.0000      0.0436      0.0019      0.0012
       153        -0.3760      0.1754      0.0000      0.1721      0.1101
       154         0.0763     -0.0240      0.0000      0.0064      0.0041
       155         0.3825     -0.1145      0.0000      0.1594      0.1029
       156        -0.0000      0.0000     -0.0813      0.0066      0.0043
       157        -0.0000      0.0000     -0.0867      0.0075      0.0049
       158        -0.5473      0.1352     -0.0000      0.3178      0.2088
       159        -0.0000      0.0000      0.1958      0.0383      0.0254
       160         0.1498      0.1775     -0.0000      0.0539      0.0357
       161         0.0000     -0.0000     -0.2998      0.0899      0.0598
       162         0.2525     -0.0787     -0.0000      0.0699      0.0466
       163         0.5278      0.0965      0.0000      0.2879      0.1931
       164         0.0000      0.0000     -0.5190      0.2693      0.1820
       165         0.0000      0.0000      0.0676      0.0046      0.0031
       166         0.1263      0.0162     -0.0000      0.0162      0.0111
       167         0.1916      0.0668      0.0000      0.0412      0.0282
       168        -0.1741     -0.0141     -0.0000      0.0305      0.0210
       169        -0.0000     -0.0000      0.0856      0.0073      0.0051
       170        -0.1574     -0.0273     -0.0000      0.0255      0.0178
       171         0.2375      0.2019     -0.0000      0.0972      0.0682
       172         0.0000      0.0000      0.0578      0.0033      0.0023
       173         0.0187     -0.0221     -0.0000      0.0008      0.0006
       174        -0.0138     -0.0334     -0.0000      0.0013      0.0009
       175         0.0000     -0.0000      0.0157      0.0002      0.0002
       176        -0.1818      0.1902     -0.0000      0.0693      0.0498
       177         0.0517      0.0409     -0.0000      0.0043      0.0031
       178         0.0000      0.0000     -0.0742      0.0055      0.0040
       179         0.0000     -0.0000      0.1625      0.0264      0.0192
       180         0.0000      0.0000     -0.2013      0.0405      0.0295
       181        -0.0689      0.0863      0.0000      0.0122      0.0089
       182        -0.0000     -0.0000     -0.0316      0.0010      0.0007
       183         0.0452      0.0528     -0.0000      0.0048      0.0036
       184         0.0345     -0.0825      0.0000      0.0080      0.0059
       185         0.0000     -0.0000     -0.1446      0.0209      0.0156
       186         0.0000     -0.0000     -0.2096      0.0439      0.0330
       187         0.0121     -0.0343      0.0000      0.0013      0.0010
       188         0.1471      0.1105      0.0000      0.0338      0.0255
       189         0.0940     -0.0281     -0.0000      0.0096      0.0073
       190        -0.3480     -0.0856      0.0000      0.1284      0.0975
       191        -0.0443      0.0719     -0.0000      0.0071      0.0055
       192        -0.0000     -0.0000     -0.1940      0.0376      0.0289
       193         0.0279      0.1502     -0.0000      0.0233      0.0179
       194         0.0421     -0.1208      0.0000      0.0164      0.0126
       195         0.0000     -0.0000     -0.0140      0.0002      0.0002
       196         0.1941     -0.0198     -0.0000      0.0381      0.0297
       197         0.1327     -0.1128      0.0000      0.0304      0.0239
       198        -0.0000      0.0000      0.3709      0.1376      0.1085
       199        -0.1911     -0.0538     -0.0000      0.0394      0.0312
       200        -0.0000     -0.0000     -0.0633      0.0040      0.0032
       201        -0.1076     -0.0559     -0.0000      0.0147      0.0117
       202         0.0000      0.0000      0.0705      0.0050      0.0040
       203        -0.0630     -0.0712      0.0000      0.0090      0.0073
       204         0.0000      0.0000      0.0406      0.0016      0.0013
       205         0.0422      0.2958      0.0000      0.0893      0.0732
       206         0.0000     -0.0000      0.1016      0.0103      0.0085
       207         0.1179      0.1445     -0.0000      0.0348      0.0287
       208         0.0168      0.1229     -0.0000      0.0154      0.0128
       209        -0.0000     -0.0000     -0.2299      0.0529      0.0442
       210        -0.0953      0.0185      0.0000      0.0094      0.0079
       211        -0.0000     -0.0000     -0.1065      0.0113      0.0096
       212        -0.0473     -0.1543     -0.0000      0.0260      0.0220
       213        -0.0000     -0.0000      0.0576      0.0033      0.0028
       214        -0.2032      0.0447     -0.0000      0.0433      0.0370
       215         0.0000     -0.0000     -0.2173      0.0472      0.0404
       216        -0.1845      0.0614      0.0000      0.0378      0.0326
       217         0.0000      0.0000     -0.0371      0.0014      0.0012
       218         0.1073      0.1181     -0.0000      0.0255      0.0220
       219        -0.1578      0.0120      0.0000      0.0250      0.0218
       220         0.0000     -0.0000      0.1753      0.0307      0.0267
       221         0.0599     -0.1701     -0.0000      0.0325      0.0283
       222        -0.0552      0.1314      0.0000      0.0203      0.0178
       223        -0.0000      0.0000     -0.0354      0.0013      0.0011
       224        -0.0918      0.0232      0.0000      0.0090      0.0079
       225         0.0000      0.0000      0.0162      0.0003      0.0002
       226        -0.1309     -0.0557     -0.0000      0.0202      0.0180
       227        -0.0031     -0.0064      0.0000      0.0001      0.0000
       228         0.0716      0.0552     -0.0000      0.0082      0.0073
       229         0.0000     -0.0000      0.0899      0.0081      0.0073
       230        -0.0000      0.0000     -0.0671      0.0045      0.0041
       231         0.0000     -0.0000      0.1480      0.0219      0.0198
       232         0.1360     -0.1240     -0.0000      0.0339      0.0309
       233         0.0000     -0.0000     -0.0186      0.0003      0.0003
       234        -0.0540     -0.0864     -0.0000      0.0104      0.0095
       235        -0.0000     -0.0000     -0.0133      0.0002      0.0002
       236        -0.1533      0.0152     -0.0000      0.0237      0.0219
       237        -0.0000      0.0000      0.0111      0.0001      0.0001
       238         0.0815     -0.0152      0.0000      0.0069      0.0064
       239        -0.0000      0.0000      0.0871      0.0076      0.0070
       240         0.0565     -0.0755     -0.0000      0.0089      0.0083
       241         0.0000      0.0000     -0.2785      0.0775      0.0723
       242         0.0073     -0.0026     -0.0000      0.0001      0.0001
       243         0.0489     -0.1360     -0.0000      0.0209      0.0198
       244         0.0963      0.0212     -0.0000      0.0097      0.0092
       245         0.0561     -0.1128     -0.0000      0.0159      0.0153
       246        -0.0000     -0.0000     -0.0642      0.0041      0.0040
       247        -0.0000      0.0000     -0.0019      0.0000      0.0000
       248        -0.1195      0.0267     -0.0000      0.0150      0.0147
       249         0.0906      0.0987      0.0000      0.0179      0.0177
       250        -0.0453      0.0167     -0.0000      0.0023      0.0023
       251         0.0150      0.0522      0.0000      0.0030      0.0029
       252         0.0000      0.0000     -0.0218      0.0005      0.0005
       253         0.0143      0.0177      0.0000      0.0005      0.0005
       254         0.0585      0.0943     -0.0000      0.0123      0.0123
       255        -0.0000     -0.0000      0.1096      0.0120      0.0120
       256         0.0922      0.0003      0.0000      0.0085      0.0086
       257         0.0801     -0.0279      0.0000      0.0072      0.0073
       258        -0.0000     -0.0000      0.1360      0.0185      0.0190
       259         0.1015     -0.0047     -0.0000      0.0103      0.0107
       260         0.0000     -0.0000      0.0973      0.0095      0.0098
       261        -0.0651      0.0482      0.0000      0.0066      0.0069
       262         0.0173     -0.0132     -0.0000      0.0005      0.0005
       263        -0.1399      0.1116     -0.0000      0.0320      0.0342
       264         0.0000     -0.0000     -0.0169      0.0003      0.0003
       265         0.1715     -0.0193      0.0000      0.0298      0.0319
       266         0.0000      0.0000      0.2777      0.0771      0.0837
       267        -0.0643     -0.0833      0.0000      0.0111      0.0121
       268        -0.0307     -0.1018      0.0000      0.0113      0.0124
       269         0.1616      0.0822     -0.0000      0.0329      0.0360
       270        -0.0000     -0.0000     -0.0304      0.0009      0.0010
       271         0.0000     -0.0000     -0.0851      0.0072      0.0082
       272        -0.0053     -0.0889      0.0000      0.0079      0.0091
       273        -0.1104     -0.1989      0.0000      0.0517      0.0602
       274        -0.0000     -0.0000     -0.0021      0.0000      0.0000
       275         0.0000      0.0000     -0.1109      0.0123      0.0144
       276        -0.1448     -0.1737     -0.0000      0.0511      0.0599
       277         0.0639      0.0166     -0.0000      0.0044      0.0052
       278        -0.0000     -0.0000     -0.1242      0.0154      0.0185
       279        -0.0385      0.2662     -0.0000      0.0723      0.0877
       280         0.0201      0.1046      0.0000      0.0113      0.0138
       281        -0.0947      0.1794      0.0000      0.0412      0.0506
       282         0.0000     -0.0000     -0.0506      0.0026      0.0032
       283         0.0583     -0.0685      0.0000      0.0081      0.0101
       284        -0.0000     -0.0000      0.0450      0.0020      0.0025
       285        -0.0528     -0.1001     -0.0000      0.0128      0.0160
       286        -0.0000     -0.0000      0.0997      0.0099      0.0125
       287         0.1013      0.0793      0.0000      0.0165      0.0210
       288         0.0000      0.0000     -0.2396      0.0574      0.0728
       289        -0.0000     -0.0000     -0.2359      0.0557      0.0709
       290         0.0005      0.0976     -0.0000      0.0095      0.0121
       291        -0.3203     -0.1841      0.0000      0.1365      0.1744
       292        -0.0000     -0.0000     -0.0055      0.0000      0.0000
       293         0.0000     -0.0000     -0.0648      0.0042      0.0054
       294        -0.1186      0.1035     -0.0000      0.0248      0.0320
       295        -0.0492     -0.0095      0.0000      0.0025      0.0033
       296        -0.1327      0.2068      0.0000      0.0604      0.0789
       297         0.0000     -0.0000      0.1222      0.0149      0.0196
       298         0.0332     -0.1391     -0.0000      0.0205      0.0269
       299        -0.0000     -0.0000      0.0149      0.0002      0.0003
       300        -0.0000      0.0000      0.1717      0.0295      0.0390
       301         0.0324      0.1236      0.0000      0.0163      0.0217
       302        -0.0000      0.0000      0.2023      0.0409      0.0547
       303         0.1644      0.0294      0.0000      0.0279      0.0374
       304        -0.1624     -0.0010     -0.0000      0.0264      0.0358
       305        -0.0000      0.0000      0.1036      0.0107      0.0147
       306         0.0765     -0.0246     -0.0000      0.0065      0.0089
       307         0.0385      0.0924     -0.0000      0.0100      0.0138
       308         0.2979     -0.1063      0.0000      0.1000      0.1380
       309         0.0000     -0.0000     -0.0674      0.0045      0.0063
[...]
      4   0.320817D-01  0.214361D-01  0.000000D+00  0.000000D+00  0.000000D+00
      5   0.000000D+00  0.000000D+00  0.189397D+00 -0.887333D-01  0.481931D-01
      6   0.000000D+00  0.000000D+00  0.112577D+00 -0.700268D-01  0.854505D-01
      7  -0.944782D-01 -0.462699D-01  0.000000D+00  0.000000D+00  0.000000D+00
      8   0.277694D-01  0.452047D-01  0.000000D+00  0.000000D+00  0.000000D+00
      9   0.890953D-01 -0.626800D-01  0.000000D+00  0.000000D+00  0.000000D+00
     10   0.000000D+00  0.000000D+00  0.228017D+00  0.304148D-02 -0.193051D+00
     11   0.000000D+00  0.000000D+00  0.126977D+00  0.202878D+00 -0.144678D+00
     12   0.000000D+00  0.000000D+00  0.247801D+00 -0.349718D+00 -0.136820D+00
     13   0.000000D+00  0.000000D+00  0.228653D+00  0.226665D+00 -0.166611D+00
     14   0.000000D+00  0.000000D+00 -0.168669D+00  0.340109D-01  0.259675D+00
     15  -0.186883D+00 -0.216013D+00  0.000000D+00  0.000000D+00  0.000000D+00
     16  -0.734775D-01 -0.101430D+00  0.000000D+00  0.000000D+00  0.000000D+00
               396           397           398           399           400 
      1  -0.112646D+03 -0.112645D+03 -0.112624D+03 -0.112606D+03 -0.112598D+03
      2   0.000000D+00 -0.195618D-01 -0.583801D-01  0.000000D+00  0.589375D-01
      3   0.000000D+00  0.277089D-01 -0.816934D-02  0.000000D+00 -0.123755D-01
      4  -0.950937D-02  0.000000D+00  0.000000D+00 -0.791278D-02  0.000000D+00
      5   0.000000D+00  0.685377D-01  0.170297D+00  0.000000D+00 -0.131505D+00
      6   0.000000D+00 -0.689892D-01  0.379602D-01  0.000000D+00  0.258332D-01
      7   0.227003D-01  0.000000D+00  0.000000D+00  0.698295D-01  0.000000D+00
      8  -0.238296D+00  0.000000D+00  0.000000D+00 -0.160882D+00  0.000000D+00
      9   0.178299D-01  0.000000D+00  0.000000D+00 -0.463674D-01  0.000000D+00
     10   0.000000D+00  0.455344D-01  0.113293D+00  0.000000D+00  0.519371D-01
     11   0.000000D+00  0.314994D+00 -0.405644D-01  0.000000D+00 -0.753859D-01
     12   0.000000D+00  0.247294D+00 -0.499825D+00  0.000000D+00 -0.155862D+00
     13   0.000000D+00  0.344969D+00 -0.303205D-01  0.000000D+00  0.639794D-01
     14   0.000000D+00 -0.216725D+00  0.370648D-01  0.000000D+00 -0.247514D+00
     15   0.377434D-01  0.000000D+00  0.000000D+00  0.198756D+00  0.000000D+00
     16  -0.440483D+00  0.000000D+00  0.000000D+00 -0.385883D+00  0.000000D+00
               401           402           403           404           405 
      1  -0.112581D+03 -0.112548D+03 -0.112507D+03 -0.112503D+03 -0.112500D+03
      2  -0.215187D-01  0.000000D+00 -0.228173D-01  0.106307D-01  0.000000D+00
      3  -0.442125D-02  0.000000D+00 -0.125761D-01  0.119190D-01  0.000000D+00
      4   0.000000D+00 -0.385195D-01  0.000000D+00  0.000000D+00 -0.768717D-01
      5   0.100289D+00  0.000000D+00  0.716513D-01 -0.487161D-01  0.000000D+00
      6  -0.556288D-01  0.000000D+00  0.394638D-01 -0.438555D-01  0.000000D+00
      7   0.000000D+00  0.919425D-01  0.000000D+00  0.000000D+00  0.157116D+00
      8   0.000000D+00 -0.347897D-01  0.000000D+00  0.000000D+00  0.167997D-01
      9   0.000000D+00 -0.149438D-01  0.000000D+00  0.000000D+00 -0.160469D-01
     10  -0.166144D-01  0.000000D+00  0.203175D+00 -0.187006D+00  0.000000D+00
     11   0.113665D-01  0.000000D+00 -0.877512D-01 -0.123550D+00  0.000000D+00
     12   0.142189D+00  0.000000D+00 -0.710305D-01  0.441385D+00  0.000000D+00
     13  -0.755460D+00  0.000000D+00 -0.167936D+00  0.132207D+00  0.000000D+00
     14  -0.371532D+00  0.000000D+00 -0.755305D-01  0.208752D+00  0.000000D+00
     15   0.000000D+00  0.158647D+00  0.000000D+00  0.000000D+00  0.338092D-01
     16   0.000000D+00  0.762194D-02  0.000000D+00  0.000000D+00  0.131034D+00
               406           407           408           409           410 
      1  -0.112500D+03 -0.112436D+03 -0.112411D+03 -0.112402D+03 -0.112397D+03
      2   0.138053D-01 -0.981814D-01 -0.893184D-02  0.000000D+00  0.000000D+00
      3  -0.219279D-01 -0.143165D+00 -0.325852D-01  0.000000D+00  0.000000D+00
      4   0.000000D+00  0.000000D+00  0.000000D+00  0.233355D-01 -0.119928D-01
      5   0.493885D-03  0.263420D+00  0.546624D-03  0.000000D+00  0.000000D+00
      6   0.745937D-01  0.390885D+00  0.990838D-01  0.000000D+00  0.000000D+00
      7   0.000000D+00  0.000000D+00  0.000000D+00 -0.656743D-01  0.138057D-01
      8   0.000000D+00  0.000000D+00  0.000000D+00 -0.287771D+00 -0.308830D+00
      9   0.000000D+00  0.000000D+00  0.000000D+00 -0.468243D-02  0.552832D-02
     10   0.140786D+00  0.633489D+00 -0.646544D-01  0.000000D+00  0.000000D+00
     11   0.220040D-01  0.190879D+00 -0.201359D+00  0.000000D+00  0.000000D+00
     12   0.441498D+00 -0.699890D+00  0.289656D+00  0.000000D+00  0.000000D+00
     13  -0.160523D+00 -0.397933D-01 -0.626879D-01  0.000000D+00  0.000000D+00
     14  -0.263122D+00 -0.448547D+00  0.128534D+00  0.000000D+00  0.000000D+00
     15   0.000000D+00  0.000000D+00  0.000000D+00  0.216721D+00  0.625748D-01
     16   0.000000D+00  0.000000D+00  0.000000D+00 -0.114297D+00 -0.247448D+00
               411           412           413           414           415 
      1  -0.112363D+03 -0.112360D+03 -0.112323D+03 -0.112317D+03 -0.112297D+03
      2   0.147080D+00  0.406527D-01  0.859300D-01  0.000000D+00  0.000000D+00
      3  -0.451241D-01 -0.607189D-01 -0.145673D+00  0.000000D+00  0.000000D+00
      4   0.000000D+00  0.000000D+00  0.000000D+00  0.784613D-01  0.890900D-01
      5  -0.459781D+00 -0.760238D-01 -0.240432D+00  0.000000D+00  0.000000D+00
      6   0.113290D+00  0.193143D+00  0.398943D+00  0.000000D+00  0.000000D+00
      7   0.000000D+00  0.000000D+00  0.000000D+00 -0.213314D+00 -0.254207D+00
      8   0.000000D+00  0.000000D+00  0.000000D+00  0.100936D+00  0.652913D+00
      9   0.000000D+00  0.000000D+00  0.000000D+00  0.257599D-01 -0.608119D-03
     10  -0.497633D+00  0.108601D+00 -0.685761D+00  0.000000D+00  0.000000D+00
     11  -0.130635D+00 -0.135103D+00 -0.577126D-01  0.000000D+00  0.000000D+00
     12  -0.639346D+00 -0.102896D+01 -0.681853D+00  0.000000D+00  0.000000D+00
     13   0.834810D-02  0.289632D+00  0.109755D+00  0.000000D+00  0.000000D+00
     14   0.434478D+00 -0.227484D+00  0.650395D+00  0.000000D+00  0.000000D+00
     15   0.000000D+00  0.000000D+00  0.000000D+00 -0.256698D-01 -0.131870D+00
     16   0.000000D+00  0.000000D+00  0.000000D+00  0.129491D+00  0.633570D+00
               416           417           418           419           420 
      1  -0.112287D+03 -0.112272D+03 -0.112251D+03 -0.112248D+03 -0.112242D+03
      2  -0.131225D+00  0.267854D-01  0.789536D-02  0.000000D+00 -0.118868D+00
      3  -0.454205D-01 -0.154210D-01  0.359618D-01  0.000000D+00  0.733797D-01
      4   0.000000D+00  0.000000D+00  0.000000D+00 -0.889106D-01  0.000000D+00
      5   0.375993D+00 -0.114013D+00 -0.222133D-01  0.000000D+00  0.324710D+00
      6   0.139866D+00  0.543252D-01 -0.101583D+00  0.000000D+00 -0.219397D+00
      7   0.000000D+00  0.000000D+00  0.000000D+00  0.252425D+00  0.000000D+00
      8   0.000000D+00  0.000000D+00  0.000000D+00  0.156437D-01  0.000000D+00
      9   0.000000D+00  0.000000D+00  0.000000D+00  0.137441D-01  0.000000D+00
     10   0.845893D-01 -0.234599D+00  0.547389D-01  0.000000D+00  0.368739D-01
     11   0.135696D+00  0.223053D+00  0.109810D+00  0.000000D+00  0.200832D-01
     12  -0.126815D+01 -0.366829D+00 -0.369944D+00  0.000000D+00  0.986497D+00
     13  -0.189331D+00  0.972770D-02  0.858898D-01  0.000000D+00  0.176620D-01
     14  -0.116902D+00  0.222199D+00 -0.962685D-01  0.000000D+00  0.119000D+00
     15   0.000000D+00  0.000000D+00  0.000000D+00 -0.125616D+00  0.000000D+00
     16   0.000000D+00  0.000000D+00  0.000000D+00 -0.138808D+00  0.000000D+00
               421           422           423           424           425 
      1  -0.112226D+03 -0.112226D+03 -0.112212D+03 -0.112189D+03 -0.112188D+03
      2   0.000000D+00 -0.216439D+00  0.000000D+00  0.000000D+00  0.693728D-01
      3   0.000000D+00 -0.847395D-01  0.000000D+00  0.000000D+00 -0.467106D-01
      4   0.105543D+00  0.000000D+00 -0.103041D+00 -0.423618D-01  0.000000D+00
      5   0.000000D+00  0.652085D+00  0.000000D+00  0.000000D+00 -0.188987D+00
      6   0.000000D+00  0.275844D+00  0.000000D+00  0.000000D+00  0.148903D+00
      7  -0.325273D+00  0.000000D+00  0.277809D+00  0.140929D+00  0.000000D+00
      8  -0.886942D-01  0.000000D+00 -0.238365D+00  0.321053D-01  0.000000D+00
      9   0.491521D-01  0.000000D+00 -0.450088D-01 -0.190038D-01  0.000000D+00
     10   0.000000D+00  0.515283D+00  0.000000D+00  0.000000D+00 -0.279747D+00
     11   0.000000D+00  0.313495D+00  0.000000D+00  0.000000D+00 -0.326569D-01
     12   0.000000D+00 -0.111120D+01  0.000000D+00  0.000000D+00 -0.809392D-01
     13   0.000000D+00 -0.395939D-01  0.000000D+00  0.000000D+00 -0.310026D-01
     14   0.000000D+00 -0.518052D+00  0.000000D+00  0.000000D+00  0.283814D+00
     15  -0.273609D+00  0.000000D+00  0.172059D+00  0.191172D+00  0.000000D+00
     16  -0.369586D+00  0.000000D+00 -0.222872D+00  0.387678D-01  0.000000D+00
               426           427           428           429           430 
      1  -0.112182D+03 -0.112168D+03 -0.112156D+03 -0.112148D+03 -0.112145D+03
      2   0.000000D+00  0.000000D+00  0.677448D-01 -0.811321D-01  0.000000D+00
      3   0.000000D+00  0.000000D+00 -0.611699D-01 -0.533527D-02  0.000000D+00
      4  -0.173032D-01  0.161014D+00  0.000000D+00  0.000000D+00  0.797630D-01
      5   0.000000D+00  0.000000D+00 -0.180112D+00  0.250400D+00  0.000000D+00
      6   0.000000D+00  0.000000D+00  0.193032D+00  0.329026D-01  0.000000D+00
      7   0.211328D-01 -0.471821D+00  0.000000D+00  0.000000D+00 -0.229302D+00
      8   0.169979D+00  0.630028D+00  0.000000D+00  0.000000D+00  0.227351D+00
      9  -0.440382D-02  0.866917D-02  0.000000D+00  0.000000D+00  0.457922D-01
     10   0.000000D+00  0.000000D+00  0.870791D-01  0.151473D+00  0.000000D+00
     11   0.000000D+00  0.000000D+00 -0.179455D+00 -0.101177D+00  0.000000D+00
     12   0.000000D+00  0.000000D+00 -0.925452D+00 -0.194018D+00  0.000000D+00
     13   0.000000D+00  0.000000D+00  0.470335D-01  0.187349D+00  0.000000D+00
     14   0.000000D+00  0.000000D+00  0.962304D-01  0.275792D-01  0.000000D+00
     15  -0.142090D+00 -0.837238D-01  0.000000D+00  0.000000D+00 -0.279024D+00
     16   0.413182D+00  0.613957D+00  0.000000D+00  0.000000D+00  0.231383D+00
               431           432           433           434           435 
      1  -0.112102D+03 -0.112087D+03 -0.112080D+03 -0.112053D+03 -0.112017D+03
      2   0.000000D+00 -0.131274D+00 -0.408219D-01  0.000000D+00  0.000000D+00
      3   0.000000D+00  0.129226D+00 -0.842097D-01  0.000000D+00  0.000000D+00
      4  -0.107555D+00  0.000000D+00  0.000000D+00 -0.113882D+00 -0.522509D-02
      5   0.000000D+00  0.412199D+00  0.141231D+00  0.000000D+00  0.000000D+00
      6   0.000000D+00 -0.410800D+00  0.272792D+00  0.000000D+00  0.000000D+00
      7   0.316211D+00  0.000000D+00  0.000000D+00  0.317965D+00  0.163409D-01
      8  -0.346170D+00  0.000000D+00  0.000000D+00 -0.628257D-01  0.101239D+00
      9  -0.313438D-01  0.000000D+00  0.000000D+00 -0.376767D-01  0.128585D-01
     10   0.000000D+00  0.452288D+00  0.475897D+00  0.000000D+00  0.000000D+00
     11   0.000000D+00  0.243485D+00  0.134198D+00  0.000000D+00  0.000000D+00
     12   0.000000D+00  0.179145D+01  0.347753D-01  0.000000D+00  0.000000D+00
     13   0.000000D+00 -0.174265D+00 -0.584110D-01  0.000000D+00  0.000000D+00
     14   0.000000D+00 -0.859647D+00 -0.375826D+00  0.000000D+00  0.000000D+00
     15   0.194793D-01  0.000000D+00  0.000000D+00  0.257004D+00  0.186454D-01
     16  -0.669568D+00  0.000000D+00  0.000000D+00 -0.171161D+00  0.725974D-01
               436           437           438           439           440 
      1  -0.112016D+03 -0.112014D+03 -0.111994D+03 -0.111950D+03 -0.111950D+03
      2   0.194873D+00  0.000000D+00  0.244324D-01 -0.511824D-01  0.000000D+00
      3  -0.837286D-01  0.000000D+00 -0.124938D+00  0.620845D-01  0.000000D+00
      4   0.000000D+00  0.850297D-01  0.000000D+00  0.000000D+00  0.546497D-01
      5  -0.604338D+00  0.000000D+00 -0.113609D+00  0.161394D+00  0.000000D+00
      6   0.260487D+00  0.000000D+00  0.407700D+00 -0.221853D+00  0.000000D+00
      7   0.000000D+00 -0.247921D+00  0.000000D+00  0.000000D+00 -0.187091D+00
      8   0.000000D+00 -0.307976D+00  0.000000D+00  0.000000D+00  0.370585D+00
      9   0.000000D+00  0.891054D-02  0.000000D+00  0.000000D+00  0.183959D-01
     10  -0.715628D+00  0.000000D+00 -0.759066D+00 -0.713539D-01  0.000000D+00
     11  -0.116297D+00  0.000000D+00 -0.264050D+00  0.161214D+00  0.000000D+00
     12  -0.540444D+00  0.000000D+00 -0.832771D+00  0.379485D+00  0.000000D+00
     13   0.111490D+00  0.000000D+00  0.203908D+00 -0.120631D-01  0.000000D+00
     14   0.871973D+00  0.000000D+00  0.777798D+00 -0.899589D-01  0.000000D+00
     15   0.000000D+00  0.601665D-01  0.000000D+00  0.000000D+00 -0.336793D-01
     16   0.000000D+00 -0.288216D+00  0.000000D+00  0.000000D+00  0.205555D+00
               441           442           443           444           445 
      1  -0.111926D+03 -0.111924D+03 -0.111886D+03 -0.111837D+03 -0.111817D+03
      2   0.117117D+00  0.000000D+00 -0.162917D-01  0.000000D+00 -0.990069D-02
      3   0.201737D-01  0.000000D+00  0.292321D-01  0.000000D+00 -0.999024D-01
      4   0.000000D+00  0.342329D+00  0.000000D+00 -0.787152D-01  0.000000D+00
      5  -0.392258D+00  0.000000D+00  0.566111D-01  0.000000D+00  0.572575D-01
      6  -0.723672D-01  0.000000D+00 -0.950481D-01  0.000000D+00  0.339364D+00
      7   0.000000D+00 -0.108852D+01  0.000000D+00  0.269479D+00  0.000000D+00
      8   0.000000D+00  0.135222D+01  0.000000D+00 -0.565155D+00  0.000000D+00
      9   0.000000D+00  0.777687D-01  0.000000D+00 -0.236154D-01  0.000000D+00
     10  -0.487973D+00  0.000000D+00  0.601787D-01  0.000000D+00  0.372671D+00
     11  -0.174922D+00  0.000000D+00 -0.520747D-01  0.000000D+00  0.139842D+00
     12   0.175400D+00  0.000000D+00  0.165441D+00  0.000000D+00 -0.111780D+01
     13  -0.951613D-01  0.000000D+00  0.616776D-01  0.000000D+00  0.373606D-01
     14   0.756459D+00  0.000000D+00 -0.735334D-01  0.000000D+00 -0.423054D+00
     15   0.000000D+00 -0.369927D+00  0.000000D+00 -0.854733D-02  0.000000D+00
     16   0.000000D+00  0.153389D+01  0.000000D+00 -0.628741D+00  0.000000D+00
               446           447           448           449           450 
      1  -0.111797D+03 -0.111770D+03 -0.111723D+03 -0.111701D+03 -0.111638D+03
      2   0.000000D+00  0.137899D-01 -0.203262D-01  0.000000D+00 -0.661947D-01
      3   0.000000D+00  0.406771D-01 -0.221821D+00  0.000000D+00  0.257026D-01
      4   0.153725D+00  0.000000D+00  0.000000D+00 -0.299372D-01  0.000000D+00
      5   0.000000D+00 -0.522215D-01  0.737976D-01  0.000000D+00  0.213727D+00
      6   0.000000D+00 -0.126089D+00  0.798046D+00  0.000000D+00 -0.933822D-01
      7  -0.501200D+00  0.000000D+00  0.000000D+00  0.847343D-01  0.000000D+00
      8   0.966769D+00  0.000000D+00  0.000000D+00  0.125304D+00  0.000000D+00
      9   0.206898D-01  0.000000D+00  0.000000D+00 -0.112813D-01  0.000000D+00
     10   0.000000D+00 -0.259157D+00  0.151050D+00  0.000000D+00  0.110391D-01
     11   0.000000D+00 -0.139413D+00  0.123338D-01  0.000000D+00 -0.128807D+00
     12   0.000000D+00 -0.200711D+00 -0.165127D+01  0.000000D+00  0.271266D+00
     13   0.000000D+00  0.217300D+00  0.179671D-01  0.000000D+00  0.188393D+00
     14   0.000000D+00  0.298273D+00  0.151448D+00  0.000000D+00  0.810352D-01
     15  -0.671354D-01  0.000000D+00  0.000000D+00  0.288401D+00  0.000000D+00
     16   0.123335D+01  0.000000D+00  0.000000D+00  0.265327D+00  0.000000D+00
               451           452           453           454           455 
      1  -0.111626D+03 -0.111558D+03 -0.111508D+03 -0.111494D+03 -0.111440D+03
      2   0.000000D+00  0.661811D-03  0.000000D+00  0.000000D+00  0.114249D-01
      3   0.000000D+00 -0.123024D-01  0.000000D+00  0.000000D+00 -0.187199D-01
      4  -0.775788D-01  0.000000D+00  0.636948D-01 -0.122878D+00  0.000000D+00
      5   0.000000D+00 -0.121728D-02  0.000000D+00  0.000000D+00 -0.527733D-01
      6   0.000000D+00  0.990455D-01  0.000000D+00  0.000000D+00  0.945759D-01
      7   0.260814D+00  0.000000D+00 -0.225777D+00  0.465835D+00  0.000000D+00
      8  -0.336946D+00  0.000000D+00  0.103924D+00 -0.714429D+00  0.000000D+00
      9  -0.179801D-01  0.000000D+00  0.832482D-02 -0.136557D-01  0.000000D+00
     10   0.000000D+00  0.784123D-02  0.000000D+00  0.000000D+00 -0.218007D+00
     11   0.000000D+00  0.821838D-01  0.000000D+00  0.000000D+00  0.878386D-01
     12   0.000000D+00 -0.150303D+01  0.000000D+00  0.000000D+00 -0.258554D+00
     13   0.000000D+00  0.162076D+00  0.000000D+00  0.000000D+00 -0.165522D+00
     14   0.000000D+00  0.363844D-02  0.000000D+00  0.000000D+00  0.868928D-01
     15  -0.289621D+00  0.000000D+00  0.154637D-01  0.282778D+00  0.000000D+00
     16  -0.755192D-01  0.000000D+00  0.287484D+00 -0.560833D+00  0.000000D+00
               456           457           458           459           460 
      1  -0.111398D+03 -0.111307D+03 -0.111287D+03 -0.111244D+03 -0.111214D+03
      2   0.121800D+00  0.523245D-01  0.000000D+00 -0.276477D-02  0.173543D+00
      3   0.156120D+00 -0.925353D-01  0.000000D+00  0.544821D-02 -0.442225D-03
      4   0.000000D+00  0.000000D+00 -0.418683D-01  0.000000D+00  0.000000D+00
      5  -0.457950D+00 -0.206464D+00  0.000000D+00  0.937047D-02 -0.674672D+00
      6  -0.615205D+00  0.379919D+00  0.000000D+00  0.413479D-01  0.577477D-02
      7   0.000000D+00  0.000000D+00  0.165205D+00  0.000000D+00  0.000000D+00
      8   0.000000D+00  0.000000D+00 -0.189071D+00  0.000000D+00  0.000000D+00
      9   0.000000D+00  0.000000D+00  0.371750D-02  0.000000D+00  0.000000D+00
     10  -0.580019D+00 -0.183271D+00  0.000000D+00  0.412459D-01 -0.975455D+00
     11  -0.300383D+00 -0.121999D+00  0.000000D+00 -0.265969D-01 -0.502647D+00
     12   0.184706D+01 -0.105610D+01  0.000000D+00  0.206031D-01  0.194308D+00
     13   0.966968D-01  0.598862D-02  0.000000D+00 -0.271103D+00  0.224091D+00
     14   0.330953D+00  0.232200D+00  0.000000D+00  0.396976D-01  0.968901D+00
     15   0.000000D+00  0.000000D+00  0.150446D+00  0.000000D+00  0.000000D+00
     16   0.000000D+00  0.000000D+00 -0.144101D+00  0.000000D+00  0.000000D+00
               461           462 
      1  -0.111042D+03 -0.110743D+03
      2   0.442229D-01  0.328679D-01
      3   0.140747D-02  0.155111D-02
      4   0.000000D+00  0.000000D+00
      5  -0.175022D+00 -0.123420D+00
      6   0.165497D-01  0.333811D-01
      7   0.000000D+00  0.000000D+00
      8   0.000000D+00  0.000000D+00
      9   0.000000D+00  0.000000D+00
     10  -0.225358D+00 -0.149900D+00
     11  -0.496727D-01 -0.222936D+00
     12  -0.502355D+00 -0.183392D-02
     13   0.472875D-02  0.154314D+00
     14   0.270170D+00  0.692010D-01
     15   0.000000D+00  0.000000D+00
     16   0.000000D+00  0.000000D+00
 Unable to Open any file for archive entry.
 1\1\GINC-HEL01\SP\RwB97XD TD-FC\Gen\C1H4O1\RR\12-Feb-2022\0\\#P TD(Nst
 ates=10000) wB97XD/Gen SCF(maxcycles=100) Int(Grid=ultrafine)\\xGDB7_0
 0001_tier4.com\\0,1\C,0,0.046399,0.649661,0.\O,0,0.046399,-0.749705,0.
 \H,0,-0.439261,1.084276,0.894962\H,0,-0.439261,1.084276,-0.894962\H,0,
 1.093835,0.983607,0.\H,0,-0.864903,-1.052487,0.\\Version=EM64L-G16RevC
 .01\State=1-A'\HF=-115.6105057\RMSD=2.891e-09\PG=CS [SG(C1H2O1),X(H2)]
 \\@
 The archive entry for this job was punched.


 AN OPTIMIST IS A GUY
 THAT HAS NEVER HAD
 MUCH EXPERIENCE
   (CERTAIN MAXIMS OF ARCHY  -- DON MARQUIS)
 Job cpu time:       0 days  0 hours  2 minutes 41.3 seconds.
 Elapsed time:       0 days  0 hours  0 minutes 20.5 seconds.
 File lengths (MBytes):  RWF=    278 Int=      0 D2E=      0 Chk=     64 Scr=      1
 Normal termination of Gaussian 16 at Sat Feb 12 22:25:24 2022.
