 Entering Gaussian System, Link 0=g16
 Input=bigQM7w_TDwB97XD_def2SVPD_000031.com
 Output=bigQM7w_TDwB97XD_def2SVPD_000031.log
 Initial command:
 /home/rr/g16/l1.exe "/scratch/rr/PBS_7839476.helios/Gau-139811.inp" -scrdir="/scratch/rr/PBS_7839476.helios/"
 Entering Link 1 = /home/rr/g16/l1.exe PID=    139835.
  
 Copyright (c) 1988-2019, Gaussian, Inc.  All Rights Reserved.
  
 This is part of the Gaussian(R) 16 program.  It is based on
 the Gaussian(R) 09 system (copyright 2009, Gaussian, Inc.),
 the Gaussian(R) 03 system (copyright 2003, Gaussian, Inc.),
 the Gaussian(R) 98 system (copyright 1998, Gaussian, Inc.),
 the Gaussian(R) 94 system (copyright 1995, Gaussian, Inc.),
 the Gaussian 92(TM) system (copyright 1992, Gaussian, Inc.),
 the Gaussian 90(TM) system (copyright 1990, Gaussian, Inc.),
 the Gaussian 88(TM) system (copyright 1988, Gaussian, Inc.),
 the Gaussian 86(TM) system (copyright 1986, Carnegie Mellon
 University), and the Gaussian 82(TM) system (copyright 1983,
 Carnegie Mellon University). Gaussian is a federally registered
 trademark of Gaussian, Inc.
  
 This software contains proprietary and confidential information,
 including trade secrets, belonging to Gaussian, Inc.
  
 This software is provided under written license and may be
 used, copied, transmitted, or stored only in accord with that
 written license.
  
 The following legend is applicable only to US Government
 contracts under FAR:
  
                    RESTRICTED RIGHTS LEGEND
  
 Use, reproduction and disclosure by the US Government is
 subject to restrictions as set forth in subparagraphs (a)
 and (c) of the Commercial Computer Software - Restricted
 Rights clause in FAR 52.227-19.
  
 Gaussian, Inc.
 340 Quinnipiac St., Bldg. 40, Wallingford CT 06492
  
  
 ---------------------------------------------------------------
 Warning -- This program may not be used in any manner that
 competes with the business of Gaussian, Inc. or will provide
 assistance to any competitor of Gaussian, Inc.  The licensee
 of this program is prohibited from giving any competitor of
 Gaussian, Inc. access to this program.  By using this program,
 the user acknowledges that Gaussian, Inc. is engaged in the
 business of creating and licensing software in the field of
 computational chemistry and represents and warrants to the
 licensee that it is not a competitor of Gaussian, Inc. and that
 it will not use this program in any manner prohibited above.
 ---------------------------------------------------------------
  

 Cite this work as:
 Gaussian 16, Revision C.01,
 M. J. Frisch, G. W. Trucks, H. B. Schlegel, G. E. Scuseria, 
 M. A. Robb, J. R. Cheeseman, G. Scalmani, V. Barone, 
 G. A. Petersson, H. Nakatsuji, X. Li, M. Caricato, A. V. Marenich, 
 J. Bloino, B. G. Janesko, R. Gomperts, B. Mennucci, H. P. Hratchian, 
 J. V. Ortiz, A. F. Izmaylov, J. L. Sonnenberg, D. Williams-Young, 
 F. Ding, F. Lipparini, F. Egidi, J. Goings, B. Peng, A. Petrone, 
 T. Henderson, D. Ranasinghe, V. G. Zakrzewski, J. Gao, N. Rega, 
 G. Zheng, W. Liang, M. Hada, M. Ehara, K. Toyota, R. Fukuda, 
 J. Hasegawa, M. Ishida, T. Nakajima, Y. Honda, O. Kitao, H. Nakai, 
 T. Vreven, K. Throssell, J. A. Montgomery, Jr., J. E. Peralta, 
 F. Ogliaro, M. J. Bearpark, J. J. Heyd, E. N. Brothers, K. N. Kudin, 
 V. N. Staroverov, T. A. Keith, R. Kobayashi, J. Normand, 
 K. Raghavachari, A. P. Rendell, J. C. Burant, S. S. Iyengar, 
 J. Tomasi, M. Cossi, J. M. Millam, M. Klene, C. Adamo, R. Cammi, 
 J. W. Ochterski, R. L. Martin, K. Morokuma, O. Farkas, 
 J. B. Foresman, and D. J. Fox, Gaussian, Inc., Wallingford CT, 2019.
 
 ******************************************
 Gaussian 16:  EM64L-G16RevC.01  3-Jul-2019
                12-Feb-2022 
 ******************************************
 %mem=64gb
 %nproc=8
 Will use up to    8 processors via shared memory.
 ----------------------------------------------------------------------
 #P TD(Nstates=10000) wB97XD/Gen SCF(maxcycles=100) Int(Grid=ultrafine)
 ----------------------------------------------------------------------
 1/38=1,172=1/1;
 2/12=2,17=6,18=5,40=1/2;
 3/5=7,11=9,25=1,30=1,74=-58,75=-5/1,2,3,8;
 4//1;
 5/5=2,7=100,38=5/2;
 8/6=1,10=1,108=10000/1;
 9/41=10000,42=1,70=2/14;
 6/7=2,8=2,9=2,10=2/1;
 99/5=1,9=1/99;
 Leave Link    1 at Sat Feb 12 21:40:24 2022, MaxMem=  8589934592 cpu:               0.4 elap:               0.1
 (Enter /home/rr/g16/l101.exe)
 ---------------------
 xGDB7_00001_tier4.com
 ---------------------
 Symbolic Z-matrix:
 Charge =  0 Multiplicity = 1
 6                     0.75391  -0.4296    0. 
 6                    -0.00491   0.86769   0. 
 6                    -0.74899  -0.43811   0. 
 1                     1.27079  -0.72407   0.91682 
 1                     1.2708   -0.72405  -0.91682 
 1                    -0.00831   1.46256  -0.91681 
 1                    -0.00828   1.46256   0.91681 
 1                    -1.2625   -0.73843  -0.91682 
 1                    -1.26251  -0.73841   0.91682 
 
 ITRead=  0  0  0  0  0  0  0  0  0
 MicOpt= -1 -1 -1 -1 -1 -1 -1 -1 -1
 NAtoms=      9 NQM=        9 NQMF=       0 NMMI=      0 NMMIF=      0
                NMic=       0 NMicF=      0.
                    Isotopes and Nuclear Properties:
 (Nuclear quadrupole moments (NQMom) in fm**2, nuclear magnetic moments (NMagM)
  in nuclear magnetons)

  Atom         1           2           3           4           5           6           7           8           9
 IAtWgt=          12          12          12           1           1           1           1           1           1
 AtmWgt=  12.0000000  12.0000000  12.0000000   1.0078250   1.0078250   1.0078250   1.0078250   1.0078250   1.0078250
 NucSpn=           0           0           0           1           1           1           1           1           1
 AtZEff=  -0.0000000  -0.0000000  -0.0000000  -0.0000000  -0.0000000  -0.0000000  -0.0000000  -0.0000000  -0.0000000
 NQMom=    0.0000000   0.0000000   0.0000000   0.0000000   0.0000000   0.0000000   0.0000000   0.0000000   0.0000000
 NMagM=    0.0000000   0.0000000   0.0000000   2.7928460   2.7928460   2.7928460   2.7928460   2.7928460   2.7928460
 AtZNuc=   6.0000000   6.0000000   6.0000000   1.0000000   1.0000000   1.0000000   1.0000000   1.0000000   1.0000000
 Leave Link  101 at Sat Feb 12 21:40:24 2022, MaxMem=  8589934592 cpu:               0.7 elap:               0.1
 (Enter /home/rr/g16/l202.exe)
                          Input orientation:                          
 ---------------------------------------------------------------------
 Center     Atomic      Atomic             Coordinates (Angstroms)
 Number     Number       Type             X           Y           Z
 ---------------------------------------------------------------------
      1          6           0        0.753909   -0.429599    0.000000
      2          6           0       -0.004913    0.867686    0.000000
      3          6           0       -0.748994   -0.438113    0.000000
      4          1           0        1.270787   -0.724070    0.916822
      5          1           0        1.270801   -0.724046   -0.916822
      6          1           0       -0.008309    1.462556   -0.916811
      7          1           0       -0.008282    1.462555    0.916811
      8          1           0       -1.262496   -0.738429   -0.916817
      9          1           0       -1.262510   -0.738408    0.916816
 ---------------------------------------------------------------------
                    Distance matrix (angstroms):
                    1          2          3          4          5
     1  C    0.000000
     2  C    1.502917   0.000000
     3  C    1.502927   1.502920   0.000000
     4  H    1.092904   2.236439   2.236481   0.000000
     5  H    1.092904   2.236430   2.236491   1.833644   0.000000
     6  H    2.236464   1.092897   2.236448   3.127240   2.533249
     7  H    2.236454   1.092897   2.236456   2.533248   3.127217
     8  H    2.236475   2.236442   1.092899   3.127293   2.533338
     9  H    2.236484   2.236435   1.092899   2.533338   3.127315
                    6          7          8          9
     6  H    0.000000
     7  H    1.833622   0.000000
     8  H    2.533243   3.127231   0.000000
     9  H    3.127211   2.533244   1.833633   0.000000
 Stoichiometry    C3H6
 Framework group  C1[X(C3H6)]
 Deg. of freedom    21
 Full point group                 C1      NOp   1
 Largest Abelian subgroup         C1      NOp   1
 Largest concise Abelian subgroup C1      NOp   1
                         Standard orientation:                         
 ---------------------------------------------------------------------
 Center     Atomic      Atomic             Coordinates (Angstroms)
 Number     Number       Type             X           Y           Z
 ---------------------------------------------------------------------
      1          6           0       -0.751618   -0.433594   -0.000000
      2          6           0        0.000308    0.867700   -0.000000
      3          6           0        0.751309   -0.434132   -0.000000
      4          1           0       -1.266926   -0.730804   -0.916822
      5          1           0       -1.266940   -0.730780    0.916822
      6          1           0        0.000547    1.462579    0.916811
      7          1           0        0.000520    1.462578   -0.916811
      8          1           0        1.266397   -0.731718    0.916817
      9          1           0        1.266411   -0.731697   -0.916816
 ---------------------------------------------------------------------
 Rotational constants (GHZ):          20.1324548          20.1317840          12.6216384
 Leave Link  202 at Sat Feb 12 21:40:24 2022, MaxMem=  8589934592 cpu:               0.1 elap:               0.0
 (Enter /home/rr/g16/l301.exe)
 General basis read from cards:  (5D, 7F)
 Centers:       4      5      6      7      8      9
 S 3 1.00
     Exponent=  1.3010701000D+01 Coefficients=  1.9682158000D-02
     Exponent=  1.9622572000D+00 Coefficients=  1.3796524000D-01
     Exponent=  4.4453796000D-01 Coefficients=  4.7831935000D-01
 S 1 1.00
     Exponent=  1.2194962000D-01 Coefficients=  1.0000000000D+00
 P 1 1.00
     Exponent=  8.0000000000D-01 Coefficients=  1.0000000000D+00
 P 1 1.00
     Exponent=  1.1704099050D-01 Coefficients=  1.0000000000D+00
 ****
 Centers:       1      2      3
 S 5 1.00
     Exponent=  1.2384016938D+03 Coefficients=  5.4568832082D-03
     Exponent=  1.8629004992D+02 Coefficients=  4.0638409211D-02
     Exponent=  4.2251176346D+01 Coefficients=  1.8025593888D-01
     Exponent=  1.1676557932D+01 Coefficients=  4.6315121755D-01
     Exponent=  3.5930506482D+00 Coefficients=  4.4087173314D-01
 S 1 1.00
     Exponent=  4.0245147363D-01 Coefficients=  1.0000000000D+00
 S 1 1.00
     Exponent=  1.3090182668D-01 Coefficients=  1.0000000000D+00
 S 1 1.00
     Exponent=  6.7053540256D-02 Coefficients=  1.0000000000D+00
 P 3 1.00
     Exponent=  9.4680970621D+00 Coefficients=  3.8387871728D-02
     Exponent=  2.0103545142D+00 Coefficients=  2.1117025112D-01
     Exponent=  5.4771004707D-01 Coefficients=  5.1328172114D-01
 P 1 1.00
     Exponent=  1.5268613795D-01 Coefficients=  1.0000000000D+00
 D 1 1.00
     Exponent=  8.0000000000D-01 Coefficients=  1.0000000000D+00
 D 1 1.00
     Exponent=  1.1713185140D-01 Coefficients=  1.0000000000D+00
 ****
 Ernie: Thresh=  0.10000D-02 Tol=  0.10000D-05 Strict=F.
 There are   114 symmetry adapted cartesian basis functions of A   symmetry.
 There are   108 symmetry adapted basis functions of A   symmetry.
   108 basis functions,   156 primitive gaussians,   114 cartesian basis functions
    12 alpha electrons       12 beta electrons
       nuclear repulsion energy        75.6283634747 Hartrees.
 IExCor= 4639 DFT=T Ex+Corr=wB97XD ExCW=0 ScaHFX=  1.000000
 ScaDFX=  1.000000  1.000000  1.000000  1.000000 ScalE2=  1.000000  1.000000
 IRadAn=      5 IRanWt=     -1 IRanGd=            0 ICorTp=0 IEmpDi=121
 HFx  wShort=  0.000000 wLong=  0.200000 cFull=  0.222036 cShort=  0.000000 cLong=  0.777964
 DFx  wShort=  0.000000 wLong=  0.200000 cFull=  0.000000 cShort=  0.000000 cLong=  1.000000
 NAtoms=    9 NActive=    9 NUniq=    9 SFac= 1.00D+00 NAtFMM=   60 NAOKFM=F Big=F
 Integral buffers will be    131072 words long.
 Raffenetti 1 integral format.
 Two-electron integral symmetry is turned on.
 R6Disp:  Grimme-D2 Dispersion energy=       -0.0024159600 Hartrees.
 Nuclear repulsion after empirical dispersion term =       75.6259475147 Hartrees.
 Leave Link  301 at Sat Feb 12 21:40:24 2022, MaxMem=  8589934592 cpu:               0.5 elap:               0.1
 (Enter /home/rr/g16/l302.exe)
 NPDir=0 NMtPBC=     1 NCelOv=     1 NCel=       1 NClECP=     1 NCelD=      1
         NCelK=      1 NCelE2=     1 NClLst=     1 CellRange=     0.0.
 One-electron integrals computed using PRISM.
 One-electron integral symmetry used in STVInt
 NBasis=   108 RedAO= T EigKep=  1.87D-04  NBF=   108
 NBsUse=   108 1.00D-06 EigRej= -1.00D+00 NBFU=   108
 Precomputing XC quadrature grid using
 IXCGrd= 4 IRadAn=           5 IRanWt=          -1 IRanGd=           0 AccXCQ= 0.00D+00.
 Generated NRdTot=       0 NPtTot=           0 NUsed=           0 NTot=          32
 NSgBfM=   114   114   114   114   114 MxSgAt=     9 MxSgA2=     9.
 Leave Link  302 at Sat Feb 12 21:40:24 2022, MaxMem=  8589934592 cpu:               1.1 elap:               0.2
 (Enter /home/rr/g16/l303.exe)
 DipDrv:  MaxL=1.
 Leave Link  303 at Sat Feb 12 21:40:24 2022, MaxMem=  8589934592 cpu:               0.2 elap:               0.1
 (Enter /home/rr/g16/l308.exe)
 Leave Link  308 at Sat Feb 12 21:40:24 2022, MaxMem=  8589934592 cpu:               0.2 elap:               0.1
 (Enter /home/rr/g16/l401.exe)
 ExpMin= 6.71D-02 ExpMax= 1.24D+03 ExpMxC= 1.86D+02 IAcc=3 IRadAn=         5 AccDes= 0.00D+00
 Harris functional with IExCor= 4639 and IRadAn=       5 diagonalized for initial guess.
 HarFok:  IExCor= 4639 AccDes= 0.00D+00 IRadAn=         5 IDoV= 1 UseB2=F ITyADJ=14
 ICtDFT=  3500011 ScaDFX=  1.000000  1.000000  1.000000  1.000000
 FoFCou: FMM=F IPFlag=           0 FMFlag=      100000 FMFlg1=           0
         NFxFlg=           0 DoJE=T BraDBF=F KetDBF=T FulRan=T
         wScrn=  0.000000 ICntrl=       500 IOpCl=  0 I1Cent=   200000004 NGrid=           0
         NMat0=    1 NMatS0=      1 NMatT0=    0 NMatD0=    1 NMtDS0=    0 NMtDT0=    0
 Petite list used in FoFCou.
 Harris En= -111.918777565078    
 JPrj=0 DoOrth=F DoCkMO=F.
 Leave Link  401 at Sat Feb 12 21:40:25 2022, MaxMem=  8589934592 cpu:               3.8 elap:               0.5
 (Enter /home/rr/g16/l502.exe)
 Keep R1 ints in memory in canonical form, NReq=42812970.
 FoFCou: FMM=F IPFlag=           0 FMFlag=           0 FMFlg1=           0
         NFxFlg=           0 DoJE=F BraDBF=F KetDBF=F FulRan=T
         wScrn=  0.000000 ICntrl=       600 IOpCl=  0 I1Cent=           0 NGrid=           0
         NMat0=    1 NMatS0=   5886 NMatT0=    0 NMatD0=    1 NMtDS0=    0 NMtDT0=    0
 Symmetry not used in FoFCou.
 Two-electron integral symmetry not used.
 Closed shell SCF:
 Using DIIS extrapolation, IDIIS=  1040.
 NGot=  8589934592 LenX=  8555255314 LenY=  8555241877
 Requested convergence on RMS density matrix=1.00D-08 within 100 cycles.
 Requested convergence on MAX density matrix=1.00D-06.
 Requested convergence on             energy=1.00D-06.
 No special actions if energy rises.
 Integral accuracy reduced to 1.0D-05 until final iterations.

 Cycle   1  Pass 0  IDiag  1:
 E= -117.761304498961    
 DIIS: error= 3.17D-02 at cycle   1 NSaved=   1.
 NSaved= 1 IEnMin= 1 EnMin= -117.761304498961     IErMin= 1 ErrMin= 3.17D-02
 ErrMax= 3.17D-02  0.00D+00 EMaxC= 1.00D-01 BMatC= 5.33D-02 BMatP= 5.33D-02
 IDIUse=3 WtCom= 6.83D-01 WtEn= 3.17D-01
 Coeff-Com:  0.100D+01
 Coeff-En:   0.100D+01
 Coeff:      0.100D+01
 Gap=     0.451 Goal=   None    Shift=    0.000
 GapD=    0.451 DampG=2.000 DampE=0.500 DampFc=1.0000 IDamp=-1.
 RMSDP=5.39D-03 MaxDP=1.42D-01              OVMax= 4.62D-02

 Cycle   2  Pass 0  IDiag  1:
 E= -117.775819762267     Delta-E=       -0.014515263306 Rises=F Damp=F
 DIIS: error= 7.98D-03 at cycle   2 NSaved=   2.
 NSaved= 2 IEnMin= 2 EnMin= -117.775819762267     IErMin= 2 ErrMin= 7.98D-03
 ErrMax= 7.98D-03  0.00D+00 EMaxC= 1.00D-01 BMatC= 4.21D-03 BMatP= 5.33D-02
 IDIUse=3 WtCom= 9.20D-01 WtEn= 7.98D-02
 Coeff-Com:  0.108D+00 0.892D+00
 Coeff-En:   0.000D+00 0.100D+01
 Coeff:      0.994D-01 0.901D+00
 Gap=     0.497 Goal=   None    Shift=    0.000
 RMSDP=1.19D-03 MaxDP=2.34D-02 DE=-1.45D-02 OVMax= 2.44D-02

 Cycle   3  Pass 0  IDiag  1:
 E= -117.778350852701     Delta-E=       -0.002531090434 Rises=F Damp=F
 DIIS: error= 5.04D-03 at cycle   3 NSaved=   3.
 NSaved= 3 IEnMin= 3 EnMin= -117.778350852701     IErMin= 3 ErrMin= 5.04D-03
 ErrMax= 5.04D-03  0.00D+00 EMaxC= 1.00D-01 BMatC= 1.82D-03 BMatP= 4.21D-03
 IDIUse=3 WtCom= 9.50D-01 WtEn= 5.04D-02
 Coeff-Com: -0.296D-02 0.395D+00 0.608D+00
 Coeff-En:   0.000D+00 0.257D+00 0.743D+00
 Coeff:     -0.282D-02 0.388D+00 0.614D+00
 Gap=     0.479 Goal=   None    Shift=    0.000
 RMSDP=4.81D-04 MaxDP=7.74D-03 DE=-2.53D-03 OVMax= 1.02D-02

 Cycle   4  Pass 0  IDiag  1:
 E= -117.780158879564     Delta-E=       -0.001808026863 Rises=F Damp=F
 DIIS: error= 1.66D-04 at cycle   4 NSaved=   4.
 NSaved= 4 IEnMin= 4 EnMin= -117.780158879564     IErMin= 4 ErrMin= 1.66D-04
 ErrMax= 1.66D-04  0.00D+00 EMaxC= 1.00D-01 BMatC= 1.59D-06 BMatP= 1.82D-03
 IDIUse=3 WtCom= 9.98D-01 WtEn= 1.66D-03
 Coeff-Com: -0.857D-04-0.532D-01-0.656D-01 0.112D+01
 Coeff-En:   0.000D+00 0.000D+00 0.000D+00 0.100D+01
 Coeff:     -0.856D-04-0.531D-01-0.654D-01 0.112D+01
 Gap=     0.479 Goal=   None    Shift=    0.000
 RMSDP=5.44D-05 MaxDP=1.10D-03 DE=-1.81D-03 OVMax= 8.48D-04

 Cycle   5  Pass 0  IDiag  1:
 E= -117.780162948784     Delta-E=       -0.000004069219 Rises=F Damp=F
 DIIS: error= 4.85D-05 at cycle   5 NSaved=   5.
 NSaved= 5 IEnMin= 5 EnMin= -117.780162948784     IErMin= 5 ErrMin= 4.85D-05
 ErrMax= 4.85D-05  0.00D+00 EMaxC= 1.00D-01 BMatC= 8.12D-08 BMatP= 1.59D-06
 IDIUse=1 WtCom= 1.00D+00 WtEn= 0.00D+00
 Coeff-Com:  0.643D-04-0.237D-01-0.344D-01 0.968D-01 0.961D+00
 Coeff:      0.643D-04-0.237D-01-0.344D-01 0.968D-01 0.961D+00
 Gap=     0.479 Goal=   None    Shift=    0.000
 RMSDP=8.77D-06 MaxDP=1.06D-04 DE=-4.07D-06 OVMax= 1.83D-04

 Initial convergence to 1.0D-05 achieved.  Increase integral accuracy.
 Cycle   6  Pass 1  IDiag  1:
 E= -117.780165535221     Delta-E=       -0.000002586437 Rises=F Damp=F
 DIIS: error= 1.88D-05 at cycle   1 NSaved=   1.
 NSaved= 1 IEnMin= 1 EnMin= -117.780165535221     IErMin= 1 ErrMin= 1.88D-05
 ErrMax= 1.88D-05  0.00D+00 EMaxC= 1.00D-01 BMatC= 3.04D-08 BMatP= 3.04D-08
 IDIUse=1 WtCom= 1.00D+00 WtEn= 0.00D+00
 Coeff-Com:  0.100D+01
 Coeff:      0.100D+01
 Gap=     0.479 Goal=   None    Shift=    0.000
 RMSDP=8.77D-06 MaxDP=1.06D-04 DE=-2.59D-06 OVMax= 4.80D-05

 Cycle   7  Pass 1  IDiag  1:
 E= -117.780165565112     Delta-E=       -0.000000029891 Rises=F Damp=F
 DIIS: error= 3.65D-06 at cycle   2 NSaved=   2.
 NSaved= 2 IEnMin= 2 EnMin= -117.780165565112     IErMin= 2 ErrMin= 3.65D-06
 ErrMax= 3.65D-06  0.00D+00 EMaxC= 1.00D-01 BMatC= 6.13D-10 BMatP= 3.04D-08
 IDIUse=1 WtCom= 1.00D+00 WtEn= 0.00D+00
 Coeff-Com: -0.812D-01 0.108D+01
 Coeff:     -0.812D-01 0.108D+01
 Gap=     0.479 Goal=   None    Shift=    0.000
 RMSDP=1.17D-06 MaxDP=1.86D-05 DE=-2.99D-08 OVMax= 1.26D-05

 Cycle   8  Pass 1  IDiag  1:
 E= -117.780165566157     Delta-E=       -0.000000001045 Rises=F Damp=F
 DIIS: error= 1.46D-06 at cycle   3 NSaved=   3.
 NSaved= 3 IEnMin= 3 EnMin= -117.780165566157     IErMin= 3 ErrMin= 1.46D-06
 ErrMax= 1.46D-06  0.00D+00 EMaxC= 1.00D-01 BMatC= 9.60D-11 BMatP= 6.13D-10
 IDIUse=1 WtCom= 1.00D+00 WtEn= 0.00D+00
 Coeff-Com: -0.343D-01 0.273D+00 0.762D+00
 Coeff:     -0.343D-01 0.273D+00 0.762D+00
 Gap=     0.479 Goal=   None    Shift=    0.000
 RMSDP=2.62D-07 MaxDP=3.51D-06 DE=-1.05D-09 OVMax= 4.95D-06

 Cycle   9  Pass 1  IDiag  1:
 E= -117.780165566277     Delta-E=       -0.000000000120 Rises=F Damp=F
 DIIS: error= 5.13D-07 at cycle   4 NSaved=   4.
 NSaved= 4 IEnMin= 4 EnMin= -117.780165566277     IErMin= 4 ErrMin= 5.13D-07
 ErrMax= 5.13D-07  0.00D+00 EMaxC= 1.00D-01 BMatC= 1.35D-11 BMatP= 9.60D-11
 IDIUse=1 WtCom= 1.00D+00 WtEn= 0.00D+00
 Coeff-Com:  0.139D-02-0.570D-01 0.204D+00 0.851D+00
 Coeff:      0.139D-02-0.570D-01 0.204D+00 0.851D+00
 Gap=     0.479 Goal=   None    Shift=    0.000
 RMSDP=1.54D-07 MaxDP=2.62D-06 DE=-1.20D-10 OVMax= 1.66D-06

 Cycle  10  Pass 1  IDiag  1:
 E= -117.780165566297     Delta-E=       -0.000000000020 Rises=F Damp=F
 DIIS: error= 1.03D-07 at cycle   5 NSaved=   5.
 NSaved= 5 IEnMin= 5 EnMin= -117.780165566297     IErMin= 5 ErrMin= 1.03D-07
 ErrMax= 1.03D-07  0.00D+00 EMaxC= 1.00D-01 BMatC= 5.19D-13 BMatP= 1.35D-11
 IDIUse=1 WtCom= 1.00D+00 WtEn= 0.00D+00
 Coeff-Com:  0.361D-02-0.344D-01-0.481D-01 0.744D-01 0.100D+01
 Coeff:      0.361D-02-0.344D-01-0.481D-01 0.744D-01 0.100D+01
 Gap=     0.479 Goal=   None    Shift=    0.000
 RMSDP=5.11D-08 MaxDP=8.84D-07 DE=-1.96D-11 OVMax= 7.74D-07

 Cycle  11  Pass 1  IDiag  1:
 E= -117.780165566299     Delta-E=       -0.000000000003 Rises=F Damp=F
 DIIS: error= 1.60D-08 at cycle   6 NSaved=   6.
 NSaved= 6 IEnMin= 6 EnMin= -117.780165566299     IErMin= 6 ErrMin= 1.60D-08
 ErrMax= 1.60D-08  0.00D+00 EMaxC= 1.00D-01 BMatC= 1.08D-14 BMatP= 5.19D-13
 IDIUse=1 WtCom= 1.00D+00 WtEn= 0.00D+00
 Coeff-Com: -0.226D-03 0.328D-02 0.183D-02-0.347D-01-0.830D-01 0.111D+01
 Coeff:     -0.226D-03 0.328D-02 0.183D-02-0.347D-01-0.830D-01 0.111D+01
 Gap=     0.479 Goal=   None    Shift=    0.000
 RMSDP=8.75D-09 MaxDP=1.21D-07 DE=-2.50D-12 OVMax= 1.10D-07

 SCF Done:  E(RwB97XD) =  -117.780165566     A.U. after   11 cycles
            NFock= 11  Conv=0.87D-08     -V/T= 2.0140
 KE= 1.161493731263D+02 PE=-4.225516172050D+02 EE= 1.129961309977D+02
 Leave Link  502 at Sat Feb 12 21:40:29 2022, MaxMem=  8589934592 cpu:              31.9 elap:               4.3
 (Enter /home/rr/g16/l801.exe)
 DoSCS=F DFT=T ScalE2(SS,OS)=  1.000000  1.000000
 ExpMin= 6.71D-02 ExpMax= 1.24D+03 ExpMxC= 1.86D+02 IAcc=3 IRadAn=         5 AccDes= 0.00D+00
 HarFok:  IExCor=  205 AccDes= 0.00D+00 IRadAn=         5 IDoV=-2 UseB2=F ITyADJ=14
 ICtDFT= 12500011 ScaDFX=  1.000000  1.000000  1.000000  1.000000
 Largest valence mixing into a core orbital is  7.77D-05
 Largest core mixing into a valence orbital is  1.84D-05
 Range of M.O.s used for correlation:     4   108
 NBasis=   108 NAE=    12 NBE=    12 NFC=     3 NFV=     0
 NROrb=    105 NOA=     9 NOB=     9 NVA=    96 NVB=    96

 **** Warning!!: The largest alpha MO coefficient is  0.35675271D+02

 Leave Link  801 at Sat Feb 12 21:40:29 2022, MaxMem=  8589934592 cpu:               0.6 elap:               0.1
 (Enter /home/rr/g16/l914.exe)
 RHF ground state
 Keep R1, R2, and R3 ints in memory in canonical form, NReq=1005004538.
 FoFCou: FMM=F IPFlag=           0 FMFlag=           0 FMFlg1=           0
         NFxFlg=           0 DoJE=F BraDBF=F KetDBF=F FulRan=T
         wScrn=  0.000000 ICntrl=       600 IOpCl=  0 I1Cent=           0 NGrid=           0
         NMat0=    1 NMatS0=   5886 NMatT0=    0 NMatD0=    1 NMtDS0=    0 NMtDT0=    0
 Symmetry not used in FoFCou.
 Two-electron integral symmetry not used.
 MDV=  8589934592 DFT=T DoStab=F Mixed=T DoRPA=T DoScal=F NonHer=T
 Making orbital integer symmetry assigments:
 Orbital symmetries:
       Occupied  (A) (A) (A) (A) (A) (A) (A) (A) (A) (A) (A) (A)
       Virtual   (A) (A) (A) (A) (A) (A) (A) (A) (A) (A) (A) (A)
                 (A) (A) (A) (A) (A) (A) (A) (A) (A) (A) (A) (A)
                 (A) (A) (A) (A) (A) (A) (A) (A) (A) (A) (A) (A)
                 (A) (A) (A) (A) (A) (A) (A) (A) (A) (A) (A) (A)
                 (A) (A) (A) (A) (A) (A) (A) (A) (A) (A) (A) (A)
                 (A) (A) (A) (A) (A) (A) (A) (A) (A) (A) (A) (A)
                 (A) (A) (A) (A) (A) (A) (A) (A) (A) (A) (A) (A)
                 (A) (A) (A) (A) (A) (A) (A) (A) (A) (A) (A) (A)
   864 initial guesses have been made.
 Convergence on wavefunction:    0.001000000000000
 Davidson Disk Diagonalization:  ConvIn= 1.00D-03 SkipCon=T Conv= 1.00D-03.
 Max sub-space:  5184 roots to seek:  1728 dimension of matrix:         1728
 *** WARNING: Number of orthogonal guesses is          864
 Iteration     1 Dimension   864 NMult     0 NNew    864
 CISAX will form   864 AO SS matrices at one time.
 NMat=   864 NSing=   864 JSym2X= 0.
 New state      3 was old state      4
 New state      4 was old state      3
 New state      5 was old state      7
 New state      6 was old state      8
 New state      7 was old state      5
 New state      8 was old state      6
 New state     11 was old state     15
 New state     12 was old state     16
 New state     14 was old state     17
 New state     15 was old state     18
 New state     16 was old state     12
 New state     17 was old state     11
 New state     18 was old state     14
 New state     21 was old state     22
 New state     22 was old state     21
 New state     25 was old state     27
 New state     26 was old state     28
 New state     27 was old state     35
 New state     28 was old state     36
 New state     29 was old state     30
 New state     30 was old state     25
 New state     31 was old state     26
 New state     32 was old state     29
 New state     33 was old state     32
 New state     34 was old state     38
 New state     35 was old state     39
 New state     36 was old state     31
 New state     37 was old state     34
 New state     38 was old state     33
 New state     39 was old state     44
 New state     40 was old state     45
 New state     41 was old state     46
 New state     42 was old state     37
 New state     43 was old state     47
 New state     44 was old state     50
 New state     45 was old state     51
 New state     46 was old state     40
 New state     47 was old state     42
 New state     48 was old state     43
 New state     49 was old state     54
 New state     50 was old state     53
 New state     51 was old state     55
 New state     52 was old state     48
 New state     53 was old state     49
 New state     54 was old state     57
 New state     55 was old state     41
 New state     56 was old state     52
 New state     57 was old state     56
 New state     58 was old state     61
 New state     59 was old state     60
 New state     60 was old state     64
 New state     61 was old state     65
 New state     62 was old state     78
 New state     63 was old state     69
 New state     64 was old state     62
 New state     65 was old state     58
 New state     66 was old state     59
 New state     67 was old state     63
 New state     68 was old state     66
 New state     69 was old state     67
 New state     70 was old state     68
 New state     71 was old state     72
 New state     72 was old state     73
 New state     73 was old state     70
 New state     74 was old state     76
 New state     75 was old state     74
 New state     76 was old state     77
 New state     77 was old state     75
 New state     78 was old state     71
 New state     79 was old state     88
 New state     82 was old state     79
 New state     83 was old state     82
 New state     84 was old state     83
 New state     85 was old state     89
 New state     86 was old state     90
 New state     87 was old state     91
 New state     88 was old state     92
 New state     89 was old state     84
 New state     90 was old state     85
 New state     91 was old state     86
 New state     92 was old state     87
 New state     93 was old state    102
 New state     94 was old state     95
 New state     95 was old state     96
 New state     96 was old state    103
 New state     97 was old state    101
 New state     98 was old state    104
 New state     99 was old state    112
 New state    100 was old state    113
 New state    101 was old state    124
 New state    102 was old state    123
 New state    103 was old state    105
 New state    104 was old state    106
 New state    105 was old state    100
 New state    106 was old state     99
 New state    107 was old state    108
 New state    108 was old state    109
 New state    109 was old state    107
 New state    110 was old state     97
 New state    111 was old state     98
 New state    112 was old state    110
 New state    113 was old state    111
 New state    114 was old state    125
 New state    115 was old state    114
 New state    116 was old state    115
 New state    117 was old state    122
 New state    119 was old state    126
 New state    120 was old state    116
 New state    121 was old state    117
 New state    122 was old state    133
 New state    123 was old state    121
 New state    124 was old state    120
 New state    125 was old state    129
 New state    126 was old state    130
 New state    127 was old state    119
 New state    128 was old state    134
 New state    129 was old state    135
 New state    130 was old state    127
 New state    131 was old state    128
 New state    133 was old state    131
 New state    134 was old state    137
 New state    135 was old state    136
 New state    136 was old state    142
 New state    137 was old state    153
 New state    138 was old state    154
 New state    139 was old state    144
 New state    140 was old state    145
 New state    141 was old state    143
 New state    142 was old state    141
 New state    143 was old state    140
 New state    144 was old state    146
 New state    145 was old state    148
 New state    146 was old state    149
 New state    147 was old state    152
 New state    148 was old state    150
 New state    149 was old state    138
 New state    150 was old state    139
 New state    151 was old state    147
 New state    152 was old state    151
 New state    153 was old state    155
 New state    154 was old state    156
 New state    155 was old state    169
 New state    156 was old state    170
 New state    157 was old state    166
 New state    159 was old state    167
 New state    160 was old state    165
 New state    161 was old state    157
 New state    162 was old state    159
 New state    164 was old state    175
 New state    165 was old state    174
 New state    166 was old state    176
 New state    167 was old state    171
 New state    168 was old state    172
 New state    169 was old state    164
 New state    170 was old state    162
 New state    171 was old state    161
 New state    172 was old state    160
 New state    173 was old state    168
 New state    174 was old state    182
 New state    175 was old state    181
 New state    176 was old state    177
 New state    177 was old state    189
 New state    178 was old state    173
 New state    179 was old state    183
 New state    180 was old state    185
 New state    181 was old state    184
 New state    182 was old state    179
 New state    183 was old state    194
 New state    184 was old state    180
 New state    185 was old state    178
 New state    187 was old state    214
 New state    188 was old state    192
 New state    189 was old state    193
 New state    190 was old state    195
 New state    191 was old state    190
 New state    192 was old state    188
 New state    193 was old state    191
 New state    194 was old state    197
 New state    195 was old state    196
 New state    196 was old state    215
 New state    197 was old state    202
 New state    198 was old state    203
 New state    199 was old state    207
 New state    200 was old state    208
 New state    201 was old state    204
 New state    202 was old state    205
 New state    203 was old state    206
 New state    204 was old state    200
 New state    205 was old state    198
 New state    206 was old state    201
 New state    207 was old state    217
 New state    208 was old state    216
 New state    209 was old state    199
 No map to state    210
 New state    211 was old state    209
 New state    212 was old state    210
 New state    213 was old state    211
 New state    214 was old state    218
 New state    215 was old state    219
 New state    216 was old state    222
 New state    217 was old state    213
 New state    218 was old state    212
 New state    219 was old state    240
 New state    222 was old state    233
 New state    225 was old state    226
 New state    226 was old state    225
 New state    227 was old state    231
 New state    228 was old state    232
 New state    229 was old state    227
 New state    230 was old state    238
 New state    231 was old state    237
 New state    232 was old state    229
 New state    233 was old state    234
 New state    234 was old state    228
 New state    237 was old state    239
 New state    238 was old state    241
 New state    239 was old state    289
 New state    240 was old state    249
 New state    241 was old state    250
 New state    244 was old state    246
 New state    245 was old state    247
 New state    246 was old state    256
 New state    247 was old state    255
 New state    249 was old state    253
 New state    250 was old state    254
 New state    251 was old state    244
 New state    252 was old state    245
 New state    253 was old state    258
 New state    254 was old state    257
 New state    255 was old state    262
 New state    256 was old state    252
 New state    257 was old state    274
 New state    258 was old state    251
 New state    260 was old state    266
 New state    261 was old state    265
 New state    262 was old state    267
 New state    263 was old state    271
 New state    264 was old state    272
 New state    265 was old state    263
 New state    266 was old state    264
 New state    267 was old state    260
 New state    268 was old state    261
 New state    270 was old state    268
 New state    271 was old state    270
 New state    272 was old state    380
 New state    273 was old state    279
 New state    274 was old state    286
 New state    275 was old state    285
 New state    276 was old state    288
 New state    277 was old state    278
 New state    278 was old state    277
 New state    279 was old state    287
 New state    280 was old state    281
 New state    281 was old state    282
 New state    282 was old state    284
 New state    284 was old state    294
 New state    285 was old state    273
 New state    286 was old state    280
 New state    287 was old state    276
 New state    288 was old state    275
 New state    289 was old state    304
 New state    290 was old state    299
 New state    291 was old state    290
 New state    292 was old state    291
 New state    294 was old state    296
 New state    295 was old state    297
 New state    296 was old state    292
 New state    297 was old state    302
 New state    298 was old state    303
 New state    299 was old state    310
 New state    300 was old state    295
 New state    301 was old state    300
 New state    302 was old state    309
 New state    303 was old state    298
 New state    304 was old state    326
 New state    305 was old state    315
 New state    306 was old state    316
 New state    307 was old state    311
 New state    309 was old state    312
 New state    310 was old state    305
 New state    311 was old state    301
 New state    312 was old state    317
 New state    313 was old state    318
 New state    314 was old state    306
 New state    315 was old state    325
 New state    316 was old state    323
 New state    317 was old state    307
 New state    318 was old state    313
 New state    319 was old state    314
 New state    320 was old state    324
 New state    321 was old state    319
 New state    323 was old state    320
 New state    324 was old state    337
 New state    325 was old state    321
 New state    326 was old state    329
 No map to state    329
 New state    330 was old state    345
 New state    331 was old state    346
 New state    332 was old state    331
 New state    333 was old state    330
 New state    336 was old state    332
 New state    337 was old state    339
 New state    339 was old state    333
 New state    340 was old state    336
 New state    341 was old state    348
 New state    342 was old state    347
 New state    343 was old state    341
 New state    344 was old state    342
 New state    345 was old state    343
 New state    346 was old state    344
 New state    347 was old state    340
 No map to state    348
 New state    353 was old state    355
 New state    354 was old state    353
 New state    355 was old state    354
 New state    356 was old state    358
 New state    357 was old state    356
 New state    358 was old state    357
 New state    359 was old state    365
 New state    360 was old state    366
 New state    361 was old state    363
 New state    362 was old state    359
 New state    363 was old state    360
 New state    364 was old state    362
 New state    365 was old state    361
 New state    366 was old state    364
 New state    367 was old state    382
 New state    368 was old state    383
 New state    369 was old state    367
 New state    370 was old state    368
 New state    371 was old state    381
 New state    372 was old state    369
 New state    373 was old state    370
 New state    374 was old state    375
 New state    375 was old state    379
 New state    376 was old state    372
 New state    377 was old state    371
 New state    379 was old state    373
 New state    380 was old state    374
 New state    381 was old state    377
 New state    382 was old state    376
 New state    383 was old state    410
 New state    385 was old state    390
 New state    386 was old state    385
 New state    387 was old state    393
 New state    388 was old state    387
 New state    390 was old state    391
 New state    391 was old state    392
 New state    392 was old state    394
 New state    393 was old state    396
 New state    394 was old state    388
 New state    395 was old state    386
 New state    396 was old state    395
 New state    399 was old state    401
 New state    400 was old state    399
 New state    401 was old state    406
 New state    402 was old state    411
 New state    403 was old state    402
 New state    404 was old state    400
 New state    405 was old state    407
 New state    406 was old state    425
 New state    407 was old state    405
 New state    408 was old state    416
 New state    409 was old state    403
 New state    410 was old state    404
 New state    411 was old state    408
 New state    412 was old state    426
 New state    413 was old state    424
 New state    414 was old state    409
 New state    415 was old state    427
 New state    416 was old state    429
 New state    417 was old state    430
 New state    418 was old state    412
 New state    419 was old state    413
 New state    420 was old state    421
 New state    421 was old state    420
 New state    422 was old state    417
 New state    423 was old state    418
 New state    424 was old state    419
 New state    425 was old state    423
 New state    426 was old state    422
 New state    427 was old state    428
 New state    428 was old state    431
 New state    429 was old state    432
 New state    430 was old state    434
 New state    431 was old state    433
 New state    432 was old state    414
 New state    433 was old state    415
 New state    434 was old state    438
 New state    435 was old state    439
 New state    436 was old state    441
 New state    437 was old state    449
 New state    438 was old state    448
 New state    439 was old state    465
 New state    440 was old state    435
 New state    441 was old state    436
 New state    442 was old state    437
 New state    443 was old state    447
 New state    444 was old state    446
 New state    446 was old state    444
 New state    447 was old state    440
 New state    448 was old state    443
 New state    449 was old state    442
 New state    456 was old state    463
 New state    457 was old state    459
 New state    458 was old state    460
 New state    459 was old state    464
 New state    460 was old state    461
 New state    461 was old state    462
 New state    462 was old state    457
 New state    463 was old state    458
 New state    464 was old state    467
 New state    465 was old state    466
 New state    466 was old state    474
 New state    467 was old state    456
 New state    472 was old state    475
 New state    473 was old state    480
 New state    474 was old state    493
 New state    475 was old state    476
 New state    476 was old state    477
 New state    477 was old state    485
 New state    478 was old state    486
 New state    479 was old state    491
 New state    480 was old state    482
 New state    481 was old state    484
 New state    482 was old state    472
 New state    483 was old state    473
 New state    484 was old state    483
 New state    485 was old state    478
 New state    486 was old state    479
 New state    487 was old state    481
 New state    489 was old state    487
 New state    490 was old state    489
 New state    491 was old state    490
 New state    492 was old state    503
 New state    493 was old state    495
 New state    494 was old state    492
 New state    495 was old state    494
 New state    497 was old state    498
 New state    498 was old state    499
 New state    499 was old state    497
 New state    503 was old state    504
 New state    504 was old state    515
 New state    506 was old state    508
 New state    507 was old state    509
 New state    508 was old state    510
 New state    509 was old state    524
 New state    510 was old state    512
 New state    511 was old state    517
 New state    512 was old state    516
 New state    513 was old state    506
 New state    514 was old state    507
 New state    515 was old state    521
 New state    516 was old state    518
 New state    517 was old state    519
 New state    518 was old state    513
 New state    519 was old state    511
 New state    520 was old state    514
 New state    521 was old state    520
 New state    524 was old state    534
 New state    528 was old state    529
 New state    529 was old state    528
 New state    530 was old state    531
 New state    531 was old state    530
 New state    534 was old state    537
 New state    535 was old state    536
 New state    536 was old state    535
 New state    537 was old state    538
 New state    538 was old state    539
 No map to state    539
 New state    544 was old state    546
 New state    545 was old state    544
 New state    546 was old state    545
 New state    549 was old state    551
 New state    550 was old state    552
 New state    551 was old state    554
 New state    552 was old state    549
 New state    553 was old state    550
 New state    554 was old state    555
 New state    555 was old state    557
 New state    556 was old state    553
 New state    557 was old state    561
 New state    558 was old state    560
 New state    559 was old state    558
 New state    560 was old state    556
 New state    561 was old state    559
 New state    563 was old state    564
 New state    564 was old state    567
 New state    565 was old state    568
 New state    566 was old state    563
 New state    567 was old state    565
 New state    568 was old state    566
 New state    571 was old state    572
 New state    572 was old state    574
 New state    573 was old state    571
 New state    574 was old state    573
 New state    577 was old state    580
 New state    578 was old state    583
 New state    579 was old state    584
 New state    580 was old state    577
 New state    581 was old state    578
 New state    582 was old state    579
 New state    583 was old state    581
 New state    584 was old state    585
 New state    585 was old state    586
 New state    586 was old state    582
 New state    588 was old state    593
 New state    589 was old state    588
 New state    590 was old state    589
 New state    591 was old state    590
 New state    592 was old state    591
 New state    593 was old state    592
 New state    598 was old state    599
 New state    599 was old state    598
 New state    602 was old state    604
 New state    604 was old state    602
 New state    606 was old state    607
 New state    607 was old state    606
 New state    608 was old state    610
 New state    609 was old state    611
 New state    610 was old state    613
 New state    611 was old state    609
 New state    612 was old state    608
 New state    613 was old state    612
 New state    614 was old state    615
 New state    615 was old state    614
 New state    618 was old state    619
 New state    619 was old state    618
 New state    620 was old state    623
 New state    621 was old state    624
 New state    623 was old state    620
 New state    624 was old state    621
 New state    626 was old state    628
 New state    627 was old state    626
 New state    628 was old state    627
 New state    632 was old state    633
 New state    633 was old state    634
 New state    634 was old state    632
 New state    643 was old state    646
 New state    644 was old state    647
 New state    645 was old state    644
 New state    646 was old state    645
 New state    647 was old state    643
 New state    654 was old state    655
 New state    655 was old state    656
 New state    656 was old state    657
 New state    657 was old state    654
 New state    658 was old state    659
 New state    659 was old state    658
 New state    662 was old state    664
 New state    663 was old state    665
 New state    664 was old state    674
 New state    665 was old state    671
 New state    666 was old state    670
 New state    667 was old state    662
 New state    668 was old state    663
 New state    669 was old state    666
 New state    670 was old state    668
 New state    671 was old state    667
 New state    672 was old state    669
 New state    673 was old state    677
 New state    674 was old state    675
 New state    675 was old state    676
 New state    676 was old state    673
 New state    677 was old state    672
 New state    678 was old state    680
 New state    679 was old state    678
 New state    680 was old state    679
 New state    681 was old state    682
 New state    682 was old state    681
 New state    684 was old state    686
 New state    685 was old state    684
 New state    686 was old state    687
 New state    687 was old state    688
 New state    688 was old state    689
 New state    689 was old state    685
 New state    691 was old state    693
 New state    692 was old state    691
 New state    693 was old state    692
 New state    697 was old state    699
 New state    698 was old state    700
 New state    699 was old state    697
 New state    700 was old state    701
 New state    701 was old state    698
 New state    704 was old state    705
 New state    705 was old state    704
 New state    706 was old state    707
 New state    707 was old state    708
 New state    708 was old state    706
 New state    716 was old state    717
 New state    717 was old state    716
 New state    722 was old state    723
 New state    723 was old state    722
 New state    726 was old state    727
 New state    727 was old state    726
 New state    728 was old state    729
 New state    729 was old state    728
 New state    731 was old state    733
 New state    732 was old state    731
 New state    733 was old state    734
 New state    734 was old state    732
 New state    735 was old state    737
 New state    736 was old state    735
 New state    737 was old state    736
 New state    738 was old state    742
 New state    740 was old state    738
 New state    741 was old state    740
 New state    742 was old state    741
 New state    750 was old state    752
 New state    751 was old state    750
 New state    752 was old state    751
 New state    756 was old state    758
 New state    757 was old state    759
 New state    758 was old state    756
 New state    759 was old state    757
 New state    762 was old state    766
 New state    763 was old state    767
 New state    764 was old state    762
 New state    766 was old state    763
 New state    767 was old state    764
 New state    768 was old state    770
 New state    769 was old state    768
 New state    770 was old state    769
 New state    774 was old state    775
 New state    775 was old state    774
 New state    776 was old state    777
 New state    777 was old state    776
 New state    778 was old state    780
 New state    779 was old state    778
 New state    780 was old state    779
 New state    781 was old state    782
 New state    782 was old state    783
 New state    783 was old state    784
 New state    784 was old state    781
 New state    785 was old state    786
 New state    786 was old state    787
 New state    787 was old state    785
 New state    791 was old state    792
 New state    792 was old state    791
 New state    795 was old state    796
 New state    796 was old state    795
 New state    799 was old state    801
 New state    800 was old state    802
 New state    801 was old state    799
 New state    802 was old state    800
 New state    807 was old state    808
 New state    808 was old state    811
 New state    810 was old state    807
 New state    811 was old state    810
 New state    815 was old state    816
 New state    816 was old state    823
 New state    817 was old state    815
 New state    818 was old state    817
 New state    819 was old state    818
 New state    820 was old state    819
 New state    822 was old state    820
 New state    823 was old state    822
 New state    825 was old state    826
 New state    826 was old state    825
 New state    830 was old state    832
 New state    831 was old state    830
 New state    832 was old state    833
 New state    833 was old state    834
 New state    834 was old state    831
 New state    835 was old state    837
 New state    836 was old state    835
 New state    837 was old state    836
 New state    842 was old state    843
 New state    843 was old state    842
 New state    844 was old state    845
 New state    845 was old state    844
 New state    847 was old state    849
 New state    849 was old state    847
 New state    852 was old state    855
 New state    853 was old state    852
 New state    854 was old state    853
 New state    855 was old state    854
 New state    858 was old state    860
 New state    859 was old state    858
 New state    860 was old state    859
 Excitation Energies [eV] at current iteration:
 Root      1 :     8.517364576098418
 Root      2 :     8.517583665077375
 Root      3 :     9.151262213854848
 Root      4 :     9.239280103152979
 Root      5 :     9.266637423176151
 Root      6 :     9.266860758815003
 Root      7 :     9.273473977143482
 Root      8 :     9.273476692508922
 Root      9 :    10.160165924257390
 Root     10 :    10.160315142434620
 Root     11 :    10.626070358989350
 Root     12 :    10.626263530581140
 Root     13 :    10.847668193031850
 Root     14 :    11.072630882728560
 Root     15 :    11.072834668568030
 Root     16 :    11.095676758170000
 Root     17 :    11.095686652461370
 Root     18 :    11.128261742567340
 Root     19 :    11.355116932386500
 Root     20 :    11.355268901456580
 Root     21 :    11.692943382718830
 Root     22 :    11.838155166666690
 Root     23 :    11.838183737041890
 Root     24 :    11.908795284886460
 Root     25 :    12.171043506216940
 Root     26 :    12.171062491944050
 Root     27 :    12.232580265558280
 Root     28 :    12.232614090574110
 Root     29 :    12.254792849302960
 Root     30 :    12.457549842485760
 Root     31 :    12.457620245272310
 Root     32 :    12.484558308165080
 Root     33 :    12.803640459991520
 Root     34 :    12.906310597722090
 Root     35 :    12.906459116654280
 Root     36 :    13.002264885240690
 Root     37 :    13.030770227141010
 Root     38 :    13.030781834270710
 Root     39 :    13.269031545457590
 Root     40 :    13.269067501329120
 Root     41 :    13.304025422457070
 Root     42 :    13.389879319002530
 Root     43 :    13.434508013473100
 Root     44 :    13.576702591685550
 Root     45 :    13.576914814521750
 Root     46 :    13.802367263444290
 Root     47 :    13.802406195306690
 Root     48 :    13.899725992173710
 Root     49 :    13.912492904096680
 Root     50 :    13.912502152004280
 Root     51 :    13.965262318139870
 Root     52 :    13.994632439112350
 Root     53 :    13.994785975020880
 Root     54 :    14.082346986494730
 Root     55 :    14.152090013848430
 Root     56 :    14.164196133883510
 Root     57 :    14.251428247367740
 Root     58 :    14.810229315220030
 Root     59 :    14.810237981507490
 Root     60 :    14.844018381472970
 Root     61 :    14.844192188153860
 Root     62 :    14.872810139386270
 Root     63 :    14.918769844438480
 Root     64 :    15.002006202128530
 Root     65 :    15.004800283115320
 Root     66 :    15.004922292239420
 Root     67 :    15.075587648071050
 Root     68 :    15.117106306287580
 Root     69 :    15.226253324442070
 Root     70 :    15.226272621814240
 Root     71 :    15.334691888185920
 Root     72 :    15.334824171740260
 Root     73 :    15.453433997595290
 Root     74 :    15.462787606083340
 Root     75 :    15.528483906655120
 Root     76 :    15.701809714502260
 Root     77 :    15.701819218551450
 Root     78 :    15.746491893701080
 Root     79 :    15.854790724236110
 Root     80 :    16.047478118810790
 Root     81 :    16.047676398434650
 Root     82 :    16.373239510461340
 Root     83 :    16.447433457515200
 Root     84 :    16.447621922749820
 Root     85 :    16.485502905727540
 Root     86 :    16.485686380926500
 Root     87 :    16.876255717189700
 Root     88 :    16.876463222822380
 Root     89 :    17.001139908039590
 Root     90 :    17.001350647104310
 Root     91 :    17.043089006214700
 Root     92 :    17.043221324028720
 Root     93 :    17.135487696806810
 Root     94 :    17.180041892671750
 Root     95 :    17.180044737400020
 Root     96 :    17.214714017520630
 Root     97 :    17.214759752920730
 Root     98 :    17.432411049566550
 Root     99 :    17.659079606265990
 Root    100 :    17.659112301722800
 Root    101 :    17.664241929125900
 Root    102 :    17.664280296767560
 Root    103 :    17.684328981207240
 Root    104 :    17.684393203225810
 Root    105 :    17.703399889169940
 Root    106 :    17.705209528077220
 Root    107 :    17.789852450438890
 Root    108 :    17.789987686765450
 Root    109 :    17.801857320157180
 Root    110 :    17.881716742213810
 Root    111 :    17.881796039924760
 Root    112 :    17.929502192967330
 Root    113 :    17.929645982836490
 Root    114 :    17.950949920861890
 Root    115 :    18.108492960266990
 Root    116 :    18.108579201029910
 Root    117 :    18.118981349164600
 Root    118 :    18.146859190494550
 Root    119 :    18.328271473681830
 Root    120 :    18.347471443676350
 Root    121 :    18.347486733159730
 Root    122 :    18.364817078337340
 Root    123 :    18.496281512187110
 Root    124 :    18.496284691101250
 Root    125 :    18.508201109940400
 Root    126 :    18.508292795962540
 Root    127 :    18.534271600068420
 Root    128 :    18.571194907428370
 Root    129 :    18.571306710038040
 Root    130 :    18.669081971348910
 Root    131 :    18.669231472703230
 Root    132 :    18.735069318108070
 Root    133 :    18.735095891190640
 Root    134 :    18.795504373711140
 Root    135 :    18.795544418433070
 Root    136 :    18.798776523506780
 Root    137 :    18.916449203342650
 Root    138 :    18.916529394315170
 Root    139 :    18.928202682065500
 Root    140 :    18.967856456680690
 Root    141 :    18.983917122602550
 Root    142 :    19.087223468779520
 Root    143 :    19.087280255515630
 Root    144 :    19.121485735142310
 Root    145 :    19.121517559352870
 Root    146 :    19.134977432067490
 Root    147 :    19.196009691217180
 Root    148 :    19.196123003653970
 Root    149 :    19.268965541754310
 Root    150 :    19.268986171720560
 Root    151 :    19.342563805452930
 Root    152 :    19.395648431063120
 Root    153 :    19.401608543780450
 Root    154 :    19.401683899964060
 Root    155 :    19.669160408414380
 Root    156 :    19.669328005477920
 Root    157 :    19.951860701837720
 Root    158 :    19.961152353480710
 Root    159 :    20.104249007352610
 Root    160 :    20.104265201625260
 Root    161 :    20.174456555369390
 Root    162 :    20.174468256148100
 Root    163 :    20.174594654051170
 Root    164 :    20.196379896090640
 Root    165 :    20.255005530397420
 Root    166 :    20.255208977454000
 Root    167 :    20.309468155108690
 Root    168 :    20.309521652912170
 Root    169 :    20.319145384171480
 Root    170 :    20.378192312505550
 Root    171 :    20.378230433843990
 Root    172 :    20.509777887021880
 Root    173 :    20.521497606004360
 Root    174 :    20.566836295663950
 Root    175 :    20.566859491344720
 Root    176 :    20.641981501938950
 Root    177 :    20.714160203006670
 Root    178 :    20.714196112530180
 Root    179 :    20.728422251096130
 Root    180 :    20.770368385453030
 Root    181 :    20.770534628207500
 Root    182 :    20.773801823134920
 Root    183 :    20.782134731044600
 Root    184 :    20.855829031156100
 Root    185 :    20.855927257945200
 Root    186 :    20.931851411408130
 Root    187 :    21.016414201101640
 Root    188 :    21.035454179302220
 Root    189 :    21.035503603833850
 Root    190 :    21.083709848563530
 Root    191 :    21.102956963605860
 Root    192 :    21.102967239626880
 Root    193 :    21.157353936499700
 Root    194 :    21.163248415034350
 Root    195 :    21.163304234165470
 Root    196 :    21.181015432809510
 Root    197 :    21.291170039794850
 Root    198 :    21.291298676570270
 Root    199 :    21.294613790617390
 Root    200 :    21.313795264376160
 Root    201 :    21.365944735281290
 Root    202 :    21.460577042409600
 Root    203 :    21.460669874173920
 Root    204 :    21.468297952951970
 Root    205 :    21.468301482053440
 Root    206 :    21.487927485573610
 Root    207 :    21.567908351462580
 Root    208 :    21.567914217108720
 Root    209 :    21.574324396735510
 Root    210 :    21.725897525710370
 Root    211 :    21.820254100097210
 Root    212 :    21.840539776540660
 Root    213 :    21.840634719779160
 Root    214 :    21.894964536981690
 Root    215 :    21.895124239577430
 Root    216 :    21.896490247453810
 Root    217 :    22.022739677600690
 Root    218 :    22.089270484684120
 Root    219 :    22.102913454974310
 Root    220 :    22.130306927168530
 Root    221 :    22.367896076937900
 Root    222 :    22.528678368085250
 Root    223 :    22.631194363615110
 Root    224 :    22.631319879572810
 Root    225 :    22.652769500992800
 Root    226 :    22.652829171992950
 Root    227 :    22.798257088191580
 Root    228 :    22.816134202140170
 Root    229 :    22.846220782011000
 Root    230 :    22.847510118543270
 Root    231 :    22.847624190562590
 Root    232 :    22.932727388578590
 Root    233 :    22.932821197729320
 Root    234 :    23.094163841300340
 Root    235 :    23.100930480150100
 Root    236 :    23.101189262010240
 Root    237 :    23.362607119614200
 Root    238 :    23.362626157061810
 Root    239 :    23.536684748498170
 Root    240 :    23.568650541024180
 Root    241 :    23.568705029332000
 Root    242 :    23.580907338700510
 Root    243 :    23.636519762167730
 Root    244 :    23.673310062493850
 Root    245 :    23.673490866709610
 Root    246 :    23.826706994196980
 Root    247 :    23.826722418570970
 Root    248 :    23.876258591106130
 Root    249 :    23.930916809592640
 Root    250 :    23.930990949816330
 Root    251 :    24.016751654832880
 Root    252 :    24.016893856915360
 Root    253 :    24.062220265201440
 Root    254 :    24.062295503823510
 Root    255 :    24.080406381025990
 Root    256 :    24.120492178443940
 Root    257 :    24.144193504255020
 Root    258 :    24.144306626220200
 Root    259 :    24.177170338013970
 Root    260 :    24.309725029579810
 Root    261 :    24.309737379193890
 Root    262 :    24.441200675684420
 Root    263 :    24.559663683751690
 Root    264 :    24.559781555797430
 Root    265 :    24.652329381238730
 Root    266 :    24.652398941919220
 Root    267 :    24.737495717468220
 Root    268 :    24.737537549717670
 Root    269 :    24.747681275386070
 Root    270 :    24.827332843548940
 Root    271 :    24.827516428233130
 Root    272 :    24.838947478280460
 Root    273 :    24.869191766180870
 Root    274 :    24.950782383248210
 Root    275 :    24.950854968922310
 Root    276 :    24.994085145037200
 Root    277 :    25.103251640101010
 Root    278 :    25.103305038810230
 Root    279 :    25.154978782283880
 Root    280 :    25.156455769283430
 Root    281 :    25.156552964416090
 Root    282 :    25.281923720913350
 Root    283 :    25.281943809901500
 Root    284 :    25.312372442735000
 Root    285 :    25.312470471396720
 Root    286 :    25.360957552699810
 Root    287 :    25.406110702736050
 Root    288 :    25.406216648301760
 Root    289 :    25.696420760231190
 Root    290 :    25.725579193299720
 Root    291 :    25.742902513123380
 Root    292 :    25.743033222206570
 Root    293 :    26.017627709070740
 Root    294 :    26.162245126357800
 Root    295 :    26.162411118109450
 Root    296 :    26.181435708849350
 Root    297 :    26.394585761213500
 Root    298 :    26.394628831147430
 Root    299 :    26.596864709682810
 Root    300 :    26.597013790241910
 Root    301 :    26.630774228424740
 Root    302 :    26.701029771296220
 Root    303 :    26.773074562288970
 Root    304 :    26.773095509249300
 Root    305 :    26.779849249346140
 Root    306 :    26.779878025721580
 Root    307 :    26.884360740249180
 Root    308 :    26.887176724479560
 Root    309 :    26.887292972561600
 Root    310 :    26.934205079188040
 Root    311 :    26.991304572458950
 Root    312 :    27.084394859994400
 Root    313 :    27.084589569778810
 Root    314 :    27.090775560122300
 Root    315 :    27.090839410063680
 Root    316 :    27.113733659057480
 Root    317 :    27.144928022673590
 Root    318 :    27.297400950821190
 Root    319 :    27.297586915737100
 Root    320 :    27.300423943663020
 Root    321 :    27.300584964333050
 Root    322 :    27.432908732155010
 Root    323 :    27.436903437863910
 Root    324 :    27.437333594078880
 Root    325 :    27.437394107558000
 Root    326 :    27.480758450117080
 Root    327 :    27.626072070541870
 Root    328 :    27.626080203869360
 Root    329 :    27.798310308481060
 Root    330 :    27.822682292200340
 Root    331 :    27.823009979812100
 Root    332 :    27.840132678864750
 Root    333 :    27.840199715824330
 Root    334 :    27.860836959535350
 Root    335 :    27.860859064282790
 Root    336 :    27.892114734145790
 Root    337 :    28.013932964173300
 Root    338 :    28.013936057733930
 Root    339 :    28.059698480617790
 Root    340 :    28.071699097766930
 Root    341 :    28.071892302811610
 Root    342 :    28.315438402389780
 Root    343 :    28.372732952840840
 Root    344 :    28.372991791975780
 Root    345 :    28.411847610311760
 Root    346 :    28.412018114853470
 Root    347 :    28.457308311583030
 Root    348 :    28.504423704382040
 Root    349 :    28.504517137073010
 Root    350 :    28.778992224450600
 Root    351 :    28.779102884160850
 Root    352 :    28.944655382009900
 Root    353 :    28.948090889629850
 Root    354 :    29.165065227917610
 Root    355 :    29.165192461977580
 Root    356 :    29.326769271343000
 Root    357 :    29.326820689963410
 Root    358 :    29.426158190131740
 Root    359 :    29.781188723270830
 Root    360 :    29.781351640277350
 Root    361 :    29.802881182593500
 Root    362 :    29.833052757916360
 Root    363 :    29.833196151099090
 Root    364 :    29.950596013763400
 Root    365 :    29.950718622199030
 Root    366 :    30.103151706080420
 Root    367 :    30.342280401789400
 Root    368 :    30.342395005606410
 Root    369 :    30.343342225994160
 Root    370 :    30.343507862900500
 Root    371 :    30.389077586867550
 Root    372 :    30.662220816880840
 Root    373 :    30.662397447912120
 Root    374 :    30.783125303803240
 Root    375 :    30.955890351540300
 Root    376 :    31.095746668799540
 Root    377 :    31.095772045713580
 Root    378 :    31.160579575350810
 Root    379 :    31.256107874678390
 Root    380 :    31.256328001045340
 Root    381 :    31.356107615560310
 Root    382 :    31.372754988319530
 Root    383 :    31.372960163236580
 Root    384 :    31.576114592042910
 Root    385 :    31.789908862074660
 Root    386 :    31.806470758028140
 Root    387 :    32.022389930477270
 Root    388 :    32.082845816033310
 Root    389 :    32.174594889064590
 Root    390 :    32.174652964244960
 Root    391 :    32.181926424672290
 Root    392 :    32.271304636408060
 Root    393 :    32.271312973320430
 Root    394 :    32.360678691461930
 Root    395 :    32.471512227805120
 Root    396 :    32.636054635829850
 Root    397 :    32.753096211893810
 Root    398 :    32.800644059859040
 Root    399 :    33.407328655614400
 Root    400 :    33.407486814033250
 Root    401 :    33.436641497006580
 Root    402 :    33.436755268429990
 Root    403 :    33.471472872086990
 Root    404 :    33.554919475468300
 Root    405 :    33.648640150795860
 Root    406 :    33.650885625288450
 Root    407 :    33.695300225650870
 Root    408 :    33.695339353646350
 Root    409 :    33.774010689249920
 Root    410 :    33.774255335076670
 Root    411 :    33.792469373115470
 Root    412 :    33.834498175617110
 Root    413 :    33.834528282583950
 Root    414 :    34.003279951884270
 Root    415 :    34.134749418982710
 Root    416 :    34.289098567138850
 Root    417 :    34.289236215283710
 Root    418 :    34.452169636247430
 Root    419 :    34.452287452477340
 Root    420 :    34.487195888769700
 Root    421 :    34.487216730764780
 Root    422 :    34.557381782780440
 Root    423 :    34.613915922384660
 Root    424 :    34.613946699576800
 Root    425 :    34.752920392705370
 Root    426 :    34.752935622340300
 Root    427 :    34.891246033658820
 Root    428 :    35.075668785215330
 Root    429 :    35.075806535030050
 Root    430 :    35.180622472880440
 Root    431 :    35.180659209243230
 Root    432 :    35.243917207046660
 Root    433 :    35.244050257383170
 Root    434 :    35.343619119181950
 Root    435 :    35.343826863657280
 Root    436 :    35.470934124967070
 Root    437 :    35.603056313543240
 Root    438 :    35.603196409285840
 Root    439 :    35.634667340087680
 Root    440 :    35.942584419778090
 Root    441 :    36.087323963980610
 Root    442 :    36.087442904135170
 Root    443 :    36.185175889946100
 Root    444 :    36.185183063449570
 Root    445 :    36.394797755086220
 Root    446 :    36.394919244023270
 Root    447 :    36.417113582143390
 Root    448 :    36.588386516869160
 Root    449 :    36.588393683581940
 Root    450 :    36.597718534173810
 Root    451 :    36.597916175719650
 Root    452 :    36.979650635601340
 Root    453 :    36.979767427978130
 Root    454 :    37.037457498709590
 Root    455 :    37.037913702907570
 Root    456 :    37.748359642863530
 Root    457 :    37.822191686534830
 Root    458 :    37.822226574695780
 Root    459 :    37.985806931997540
 Root    460 :    38.080029949961930
 Root    461 :    38.080356479030450
 Root    462 :    38.183067096312390
 Root    463 :    38.183319839466810
 Root    464 :    38.248525894856970
 Root    465 :    38.248529100349880
 Root    466 :    38.251846268867820
 Root    467 :    38.302442345877660
 Root    468 :    38.896220183961330
 Root    469 :    38.896232949815710
 Root    470 :    38.968313357936850
 Root    471 :    39.023410378022480
 Root    472 :    39.080437545120920
 Root    473 :    39.537315196380190
 Root    474 :    39.570997110721460
 Root    475 :    39.693473165532520
 Root    476 :    39.693596576330930
 Root    477 :    39.863214883351770
 Root    478 :    39.863437400242740
 Root    479 :    40.047547636413010
 Root    480 :    40.057767189512080
 Root    481 :    40.057780415305930
 Root    482 :    40.269682928104380
 Root    483 :    40.269790494117050
 Root    484 :    40.289834278096900
 Root    485 :    40.416081725752310
 Root    486 :    40.416230622872590
 Root    487 :    40.538138625379100
 Root    488 :    40.732263876163430
 Root    489 :    40.742635477840810
 Root    490 :    40.742707556822860
 Root    491 :    40.990164777146590
 Root    492 :    41.250970858463940
 Root    493 :    41.352591168663540
 Root    494 :    41.510786975723730
 Root    495 :    41.599907620172590
 Root    496 :    41.599975469957260
 Root    497 :    41.956199798169070
 Root    498 :    41.956377495392570
 Root    499 :    42.012218848813680
 Root    500 :    42.125580811452470
 Root    501 :    42.125652033137740
 Root    502 :    42.522558533914280
 Root    503 :    42.522611103484310
 Root    504 :    42.662129509663710
 Root    505 :    42.856965492249980
 Root    506 :    42.899435010632050
 Root    507 :    42.899500339326970
 Root    508 :    43.201792613061920
 Root    509 :    43.457695678403060
 Root    510 :    43.516462487291510
 Root    511 :    43.654375814979460
 Root    512 :    43.654386244635260
 Root    513 :    43.685729809554350
 Root    514 :    43.685863332983830
 Root    515 :    43.763424006744690
 Root    516 :    43.777515729203080
 Root    517 :    43.777594478605680
 Root    518 :    44.025840889884780
 Root    519 :    44.025894329530080
 Root    520 :    44.027082315415860
 Root    521 :    44.238267730638730
 Root    522 :    44.238356231088920
 Root    523 :    44.468414527324410
 Root    524 :    45.190051394311080
 Root    525 :    45.716098041286590
 Root    526 :    45.719875287962790
 Root    527 :    45.720088937234280
 Root    528 :    46.123038510616380
 Root    529 :    46.260571941569130
 Root    530 :    46.308974689849900
 Root    531 :    46.308988841630940
 Root    532 :    46.476649666043020
 Root    533 :    46.477322107123470
 Root    534 :    46.797573298639010
 Root    535 :    46.797580936631550
 Root    536 :    46.840958049534630
 Root    537 :    47.336043952596670
 Root    538 :    47.336658471856520
 Root    539 :    47.409925336310590
 Root    540 :    47.490150879711790
 Root    541 :    47.490614907259080
 Root    542 :    48.499828866744270
 Root    543 :    48.500015978774380
 Root    544 :    48.652461548404910
 Root    545 :    48.958470795191050
 Root    546 :    48.959020488059470
 Root    547 :    49.423541762986840
 Root    548 :    49.423589435548740
 Root    549 :    49.569137468159380
 Root    550 :    49.606928195816510
 Root    551 :    49.607053113465570
 Root    552 :    49.805563570070130
 Root    553 :    49.806125726141920
 Root    554 :    49.878563142741850
 Root    555 :    49.997823993074920
 Root    556 :    50.026360866708520
 Root    557 :    50.225966817495940
 Root    558 :    50.225997775045150
 Root    559 :    50.288113483607890
 Root    560 :    50.288234018989360
 Root    561 :    50.464335302938100
 Root    562 :    50.645939131410490
 Root    563 :    51.422656582530510
 Root    564 :    51.550957874220070
 Root    565 :    51.551135962661900
 Root    566 :    51.725705477488260
 Root    567 :    51.725725763815500
 Root    568 :    51.798418367322800
 Root    569 :    52.303888670605210
 Root    570 :    52.381949760993540
 Root    571 :    52.381993023849860
 Root    572 :    52.544603403936210
 Root    573 :    52.549884099220070
 Root    574 :    52.572611879391320
 Root    575 :    52.572627069034380
 Root    576 :    52.776580295159730
 Root    577 :    53.761482010717460
 Root    578 :    53.792216772512120
 Root    579 :    53.792449806776520
 Root    580 :    53.888494636442910
 Root    581 :    53.888686103929270
 Root    582 :    54.099602693906650
 Root    583 :    54.099779912562870
 Root    584 :    54.171446876956860
 Root    585 :    54.172611328531820
 Root    586 :    54.367922204574950
 Root    587 :    54.734085791915770
 Root    588 :    55.209659624984380
 Root    589 :    55.336820446340720
 Root    590 :    55.337772657771150
 Root    591 :    55.469579188379270
 Root    592 :    55.490548011379790
 Root    593 :    55.490629095699380
 Root    594 :    55.971843336281740
 Root    595 :    55.972118082232580
 Root    596 :    56.109227376925720
 Root    597 :    56.109459657258080
 Root    598 :    56.992407044556470
 Root    599 :    56.992449043942560
 Root    600 :    57.008257756145030
 Root    601 :    57.008339229940320
 Root    602 :    57.286754702713960
 Root    603 :    57.438549491722630
 Root    604 :    57.438681034711580
 Root    605 :    57.528003511502800
 Root    606 :    57.528143264256910
 Root    607 :    57.653357867704530
 Root    608 :    57.729822461631470
 Root    609 :    57.730476687224390
 Root    610 :    57.886255042844090
 Root    611 :    58.005503278664350
 Root    612 :    58.005592023764360
 Root    613 :    58.129002915350180
 Root    614 :    58.174637497714590
 Root    615 :    58.174669719385020
 Root    616 :    58.465990509323840
 Root    617 :    58.466377124974020
 Root    618 :    58.956738230571370
 Root    619 :    59.325087918924860
 Root    620 :    59.366011593880160
 Root    621 :    59.366613710458670
 Root    622 :    59.612591718856030
 Root    623 :    59.612780146319380
 Root    624 :    59.749666678994450
 Root    625 :    59.889306882126590
 Root    626 :    60.344886992847730
 Root    627 :    60.369690536444630
 Root    628 :    60.551097795876740
 Root    629 :    60.622571771118470
 Root    630 :    60.622596678905470
 Root    631 :    60.683364347588280
 Root    632 :    60.901118241842520
 Root    633 :    60.961290673000490
 Root    634 :    60.961318655806810
 Root    635 :    61.084774163555330
 Root    636 :    61.325579189579930
 Root    637 :    61.626150085385660
 Root    638 :    62.171821988189130
 Root    639 :    62.172377261889980
 Root    640 :    62.437884618909670
 Root    641 :    62.438270372590330
 Root    642 :    62.446408275955570
 Root    643 :    62.598901379168080
 Root    644 :    62.599096685804600
 Root    645 :    62.738352045693670
 Root    646 :    62.738405278495280
 Root    647 :    63.052585088316290
 Root    648 :    63.137529522964530
 Root    649 :    63.138341376146800
 Root    650 :    63.227258916876120
 Root    651 :    63.227523609530760
 Root    652 :    63.344622270337390
 Root    653 :    63.389429983932220
 Root    654 :    63.389579088850990
 Root    655 :    63.907788742414300
 Root    656 :    63.907836093378850
 Root    657 :    64.095788084497760
 Root    658 :    64.319541357475730
 Root    659 :    64.319872612779410
 Root    660 :    64.707687974920700
 Root    661 :    64.707762534293070
 Root    662 :    64.901709603701510
 Root    663 :    64.902587558613760
 Root    664 :    64.927650275684020
 Root    665 :    64.962385890825800
 Root    666 :    64.962450329687040
 Root    667 :    65.201363187488310
 Root    668 :    65.201724144287710
 Root    669 :    65.263981310592370
 Root    670 :    65.307085029372330
 Root    671 :    65.503615969957140
 Root    672 :    65.503683634739940
 Root    673 :    65.635665508050890
 Root    674 :    65.732657627506550
 Root    675 :    65.732830160222150
 Root    676 :    65.781019530022580
 Root    677 :    65.878638272807010
 Root    678 :    66.056799436640020
 Root    679 :    66.057009822443320
 Root    680 :    66.251650822715490
 Root    681 :    66.582851048920430
 Root    682 :    66.582884282058590
 Root    683 :    66.707541554241980
 Root    684 :    67.101258703597210
 Root    685 :    67.101267593946050
 Root    686 :    67.320901004515390
 Root    687 :    67.326063408050540
 Root    688 :    67.326724256477330
 Root    689 :    67.465247489498150
 Root    690 :    67.749326061009950
 Root    691 :    68.237725522095370
 Root    692 :    68.279387743081700
 Root    693 :    68.279430014605340
 Root    694 :    68.902295582670130
 Root    695 :    68.917855991556100
 Root    696 :    68.917929769438440
 Root    697 :    69.251072871205950
 Root    698 :    69.251161012320720
 Root    699 :    69.329059700825200
 Root    700 :    69.432432494882780
 Root    701 :    69.482428237367060
 Root    702 :    69.986624572000250
 Root    703 :    69.986952700765490
 Root    704 :    70.192602384564760
 Root    705 :    70.192758154904310
 Root    706 :    70.681539457781840
 Root    707 :    70.682114308676560
 Root    708 :    70.866786255997400
 Root    709 :    71.048224366728260
 Root    710 :    71.048420137350550
 Root    711 :    71.151869481869040
 Root    712 :    71.700537623014540
 Root    713 :    71.700883956655960
 Root    714 :    71.723018293613890
 Root    715 :    71.804433175052880
 Root    716 :    71.804451569368990
 Root    717 :    71.816429393282680
 Root    718 :    72.060205845762160
 Root    719 :    72.060303305589390
 Root    720 :    72.168581190607440
 Root    721 :    72.376209657847030
 Root    722 :    72.379134541994570
 Root    723 :    72.379233684596730
 Root    724 :    72.886484986974890
 Root    725 :    72.887300316106670
 Root    726 :    73.029634954099210
 Root    727 :    73.309212568281130
 Root    728 :    73.372374126470530
 Root    729 :    73.372407059171510
 Root    730 :    73.511742517737100
 Root    731 :    73.708847115047460
 Root    732 :    73.708887088637670
 Root    733 :    73.816875817463870
 Root    734 :    73.895909348407400
 Root    735 :    74.202184379641270
 Root    736 :    74.202359759017360
 Root    737 :    74.265669588280300
 Root    738 :    74.990779805012880
 Root    739 :    75.154699681871760
 Root    740 :    75.199116731462330
 Root    741 :    75.210577898282850
 Root    742 :    75.210756980972500
 Root    743 :    76.017623251023540
 Root    744 :    76.178917194742110
 Root    745 :    76.179113690899460
 Root    746 :    76.971944278020530
 Root    747 :    76.972392588461090
 Root    748 :    77.730250105035440
 Root    749 :    77.730747199268730
 Root    750 :    77.749957949021630
 Root    751 :    77.840189208154750
 Root    752 :    77.841111801029650
 Root    753 :    78.574705407439620
 Root    754 :    78.593576003890040
 Root    755 :    78.593819075887010
 Root    756 :    78.677880956797030
 Root    757 :    78.677928014700730
 Root    758 :    78.844797486038890
 Root    759 :    78.845634586862120
 Root    760 :    79.465390401313210
 Root    761 :    79.465665072324430
 Root    762 :    80.280982376678170
 Root    763 :    80.281647922444800
 Root    764 :    80.447430169404270
 Root    765 :    80.730093605282830
 Root    766 :    80.730253065096280
 Root    767 :    80.758528952869230
 Root    768 :    81.497195374111260
 Root    769 :    81.499760051860240
 Root    770 :    81.499986973468400
 Root    771 :    81.608260452023430
 Root    772 :    81.623381399559320
 Root    773 :    81.623548997882540
 Root    774 :    81.656621855625900
 Root    775 :    82.339005266098170
 Root    776 :    82.397626457913090
 Root    777 :    82.397867345164940
 Root    778 :    83.635456268635020
 Root    779 :    84.035973189664530
 Root    780 :    84.036185447509640
 Root    781 :    84.194380549480600
 Root    782 :    84.434612522358070
 Root    783 :    84.434811826067670
 Root    784 :    84.626456504037170
[...]
     13   0.112645D-04  0.299165D-04  0.000000D+00  0.000000D+00 -0.383910D-05
     14  -0.318199D+00  0.563206D-01 -0.105697D-03 -0.987106D-03  0.179125D-01
     15  -0.144604D-03 -0.898982D-03  0.288199D+00 -0.356813D-01  0.472866D-05
     16  -0.895894D-03  0.143811D-03  0.356594D-01  0.288056D+00  0.000000D+00
               796           797           798           799           800 
      1  -0.114579D+03 -0.114565D+03 -0.114565D+03 -0.114556D+03 -0.114556D+03
      2  -0.986767D-01  0.168125D-02  0.670375D-01 -0.740853D-05  0.774765D-05
      3  -0.895263D-02 -0.670510D-01  0.168516D-02 -0.851115D-05 -0.728257D-05
      4   0.000000D+00  0.000000D+00  0.000000D+00  0.155335D-04 -0.862171D-05
      5   0.305328D+00 -0.427590D-02 -0.170550D+00  0.208061D-04 -0.218975D-04
      6   0.277038D-01  0.170598D+00 -0.428773D-02  0.238499D-04  0.205213D-04
      7   0.000000D+00  0.000000D+00  0.000000D+00 -0.432782D-04  0.240698D-04
      8  -0.906078D-05  0.000000D+00 -0.201095D-04  0.713094D-01 -0.744337D-01
      9   0.000000D+00  0.206880D-04 -0.161388D-05  0.741033D-01  0.709868D-01
     10  -0.255574D-03 -0.680688D-05  0.146605D-03  0.000000D+00  0.000000D+00
     11  -0.178400D-01 -0.415602D+00  0.338735D-02 -0.344588D-04 -0.318904D-04
     12   0.178469D-01  0.415575D+00 -0.337558D-02  0.353712D-04  0.282624D-04
     13  -0.545253D-05  0.149007D-04 -0.243475D-05  0.000000D+00  0.000000D+00
     14  -0.242776D+00  0.337058D-02  0.415465D+00 -0.316466D-04  0.304130D-04
     15   0.000000D+00  0.310197D-04 -0.216862D-05 -0.763353D-01 -0.730442D-01
     16  -0.542680D-05 -0.119715D-05  0.298012D-04  0.727016D-01 -0.760134D-01
               801           802           803           804           805 
      1  -0.114555D+03 -0.114555D+03 -0.114539D+03 -0.114539D+03 -0.114531D+03
      2   0.000000D+00  0.137875D-04  0.000000D+00  0.000000D+00  0.000000D+00
      3  -0.141549D-04  0.000000D+00  0.000000D+00  0.000000D+00  0.327731D-05
      4  -0.150699D-05  0.000000D+00 -0.800349D-05  0.362687D-05  0.000000D+00
      5   0.126697D-05 -0.336609D-04 -0.272250D-05  0.333116D-05  0.000000D+00
      6   0.344972D-04  0.000000D+00 -0.374967D-05 -0.252555D-05 -0.556824D-05
      7   0.408117D-05  0.000000D+00  0.247638D-04 -0.110318D-04  0.126101D-05
      8  -0.583524D-03  0.112548D+00 -0.238953D+00  0.234334D+00  0.171431D-02
      9  -0.112868D+00 -0.588617D-03 -0.234360D+00 -0.238963D+00  0.103418D+00
     10   0.000000D+00  0.000000D+00  0.000000D+00  0.000000D+00  0.000000D+00
     11  -0.799337D-04 -0.111909D-05  0.435820D-05  0.106000D-05  0.345951D-04
     12   0.793702D-04  0.000000D+00 -0.319414D-05 -0.395908D-05 -0.340343D-04
     13   0.000000D+00  0.000000D+00  0.000000D+00  0.000000D+00  0.000000D+00
     14  -0.506675D-05  0.772886D-04  0.260522D-05 -0.301928D-05  0.254562D-05
     15  -0.160375D+00 -0.755571D-03  0.374986D+00  0.382391D+00 -0.103451D+00
     16   0.756772D-03 -0.160646D+00 -0.382455D+00  0.375028D+00  0.172020D-02
               806           807           808           809           810 
      1  -0.114531D+03 -0.114515D+03 -0.114499D+03 -0.114499D+03 -0.114498D+03
      2  -0.303222D-05  0.450696D-04  0.776017D-01 -0.383948D-01  0.167279D-05
      3   0.000000D+00  0.218971D-05 -0.384095D-01 -0.776297D-01  0.429138D-05
      4   0.127258D-04  0.270896D-05  0.000000D+00 -0.549663D-05 -0.113642D+00
      5   0.500752D-05 -0.140084D-03 -0.246143D+00  0.121785D+00 -0.531014D-05
      6   0.000000D+00 -0.524470D-05  0.121827D+00  0.246227D+00 -0.135743D-04
      7  -0.354169D-04 -0.785058D-05  0.105217D-05  0.152123D-04  0.314642D+00
      8  -0.103365D+00  0.000000D+00 -0.100255D-04  0.461699D-05 -0.249794D-04
      9   0.171170D-02  0.000000D+00  0.556780D-05  0.911345D-05 -0.969302D-05
     10   0.000000D+00  0.671919D+00 -0.689529D-04  0.114850D-04  0.553894D-03
     11  -0.101439D-05 -0.190911D-04  0.726902D-01  0.140697D+00 -0.787243D-05
     12   0.000000D+00 -0.694995D-05 -0.724870D-01 -0.140500D+00  0.319334D-05
     13   0.000000D+00  0.468672D-05 -0.871303D-04 -0.602945D-04  0.124334D-05
     14  -0.330744D-04  0.264997D-04 -0.140573D+00  0.725586D-01 -0.192422D-05
     15  -0.170557D-02  0.000000D+00 -0.941977D-05 -0.168535D-04  0.153900D-04
     16  -0.103259D+00  0.000000D+00 -0.169628D-04  0.891688D-05 -0.716940D-04
               811           812           813           814           815 
      1  -0.114491D+03 -0.114487D+03 -0.114464D+03 -0.114464D+03 -0.114459D+03
      2  -0.190512D-04  0.471287D-04  0.000000D+00  0.000000D+00 -0.174906D-05
      3   0.339358D-04  0.440327D-05 -0.405817D-05  0.000000D+00  0.604891D-05
      4   0.000000D+00 -0.709642D-04 -0.296199D-05  0.246163D-04  0.000000D+00
      5   0.617695D-04 -0.143606D-03  0.294961D-05  0.000000D+00  0.142065D-05
      6  -0.108825D-03 -0.130202D-04  0.830596D-05  0.000000D+00 -0.162337D-04
      7   0.240845D-05  0.197465D-03  0.829434D-05 -0.696242D-04  0.166159D-05
      8   0.000000D+00  0.000000D+00  0.134391D-05 -0.588465D-05  0.000000D+00
      9   0.000000D+00  0.000000D+00 -0.137170D-05  0.145581D-04  0.000000D+00
     10  -0.180965D-03 -0.842117D+00 -0.653372D-04 -0.226257D-05  0.000000D+00
     11   0.201798D+00 -0.253807D-04 -0.614475D+00 -0.338998D-01  0.613068D-01
     12   0.202028D+00 -0.309021D-04 -0.614479D+00 -0.338997D-01  0.617288D-01
     13  -0.193489D+00  0.471238D-04 -0.257046D+00 -0.142834D-01  0.382421D+00
     14   0.367787D-04  0.687883D-04  0.421522D-05  0.000000D+00 -0.198893D-04
     15   0.000000D+00  0.000000D+00  0.616202D-05 -0.100045D-03  0.000000D+00
     16   0.000000D+00  0.000000D+00  0.163695D-05 -0.116583D-04  0.000000D+00
               816           817           818           819           820 
      1  -0.114452D+03 -0.114448D+03 -0.114448D+03 -0.114434D+03 -0.114432D+03
      2   0.000000D+00  0.197882D-01 -0.349797D-03 -0.208571D-04  0.448397D-05
      3   0.000000D+00 -0.347132D-03 -0.198307D-01 -0.226687D-05 -0.110879D-04
      4  -0.204273D+00  0.000000D+00  0.000000D+00  0.447143D-05  0.000000D+00
      5   0.000000D+00 -0.351088D-01  0.622072D-03  0.455123D-04 -0.144552D-04
      6   0.000000D+00  0.615730D-03  0.352198D-01  0.456662D-05  0.321999D-04
      7   0.578226D+00  0.000000D+00  0.000000D+00 -0.121028D-04  0.105016D-05
      8  -0.417564D-04 -0.427079D-05  0.000000D+00  0.000000D+00  0.000000D+00
      9  -0.738794D-05  0.000000D+00  0.364158D-05  0.000000D+00  0.000000D+00
     10  -0.690217D-05 -0.218409D-04  0.201679D-04 -0.341457D+00  0.590477D-04
     11   0.421196D-05 -0.760296D-02 -0.219555D+00 -0.173186D-04 -0.367412D+00
     12   0.491140D-05  0.759317D-02  0.219529D+00 -0.826805D-05 -0.367460D+00
     13   0.000000D+00  0.443101D-04 -0.103346D-03 -0.284269D-05 -0.104242D+00
     14   0.000000D+00  0.219836D+00 -0.757368D-02  0.638322D-04 -0.720456D-05
     15   0.122837D-04  0.000000D+00  0.000000D+00  0.000000D+00  0.000000D+00
     16  -0.953367D-04  0.000000D+00  0.000000D+00  0.000000D+00  0.000000D+00
               821           822           823           824           825 
      1  -0.114422D+03 -0.114422D+03 -0.114401D+03 -0.114390D+03 -0.114374D+03
      2   0.000000D+00  0.111801D-05  0.000000D+00  0.000000D+00  0.505146D-05
      3  -0.104090D-05  0.000000D+00  0.000000D+00  0.000000D+00  0.216860D-04
      4   0.293772D-05 -0.151866D-04  0.116288D-05  0.150362D-01 -0.838416D-05
      5  -0.175398D-05 -0.357353D-05  0.000000D+00  0.000000D+00 -0.115953D-04
      6   0.339595D-05  0.000000D+00  0.000000D+00  0.000000D+00 -0.501325D-04
      7  -0.745594D-05  0.457046D-04 -0.430893D-05 -0.110669D-01  0.226046D-04
      8   0.728897D-01  0.290594D+00  0.151409D-04 -0.668003D-05 -0.124154D-01
      9  -0.290581D+00  0.728754D-01 -0.439214D-04  0.112160D-04 -0.543455D-01
     10   0.000000D+00  0.000000D+00  0.000000D+00  0.216086D-04  0.000000D+00
     11   0.740108D-05 -0.177995D-05  0.257050D-04 -0.235988D-05 -0.206336D-03
     12  -0.677477D-05  0.164656D-05  0.264565D-04 -0.208706D-05  0.205174D-03
     13   0.000000D+00  0.000000D+00  0.115616D-04  0.000000D+00  0.000000D+00
     14   0.000000D+00 -0.628170D-05  0.104445D-05  0.000000D+00 -0.508872D-04
     15   0.366945D+00 -0.920282D-01  0.622995D-04 -0.190601D-04 -0.229888D+00
     16   0.920484D-01  0.366965D+00  0.191863D-04  0.000000D+00  0.525502D-01
               826           827           828           829           830 
      1  -0.114374D+03 -0.114354D+03 -0.114354D+03 -0.114350D+03 -0.114328D+03
      2   0.218386D-04 -0.671150D-01  0.782404D-02  0.000000D+00 -0.128975D-04
      3  -0.524154D-05 -0.781967D-02 -0.670915D-01  0.000000D+00 -0.330883D-04
      4  -0.323283D-04  0.000000D+00  0.000000D+00  0.241150D-05  0.185655D-04
      5  -0.505786D-04  0.154713D+00 -0.180336D-01  0.000000D+00  0.375337D-04
      6   0.122622D-04  0.180211D-01  0.154645D+00  0.000000D+00  0.972083D-04
      7   0.903816D-04  0.000000D+00  0.000000D+00 -0.660438D-05 -0.608211D-04
      8  -0.543535D-01  0.269725D-04 -0.299893D-05  0.000000D+00 -0.160008D+00
      9   0.124142D-01  0.325828D-05  0.270032D-04 -0.183684D-03 -0.352599D+00
     10   0.000000D+00 -0.157370D-04  0.302678D-05  0.102370D-05  0.000000D+00
     11   0.518392D-04  0.650695D-01  0.654344D+00 -0.128013D-04  0.445139D-04
     12  -0.501840D-04 -0.650727D-01 -0.654297D+00 -0.122663D-04 -0.457723D-04
     13  -0.113606D-05  0.213042D-05  0.833251D-04 -0.204037D-04  0.000000D+00
     14  -0.206030D-03  0.654239D+00 -0.650464D-01  0.000000D+00  0.230244D-04
     15   0.525496D-01 -0.148838D-04 -0.125237D-03  0.243855D-03  0.453680D+00
     16   0.229882D+00  0.125691D-03 -0.152867D-04  0.496232D-05 -0.205895D+00
               831           832           833           834           835 
      1  -0.114328D+03 -0.114326D+03 -0.114326D+03 -0.114321D+03 -0.114304D+03
      2   0.314196D-04  0.555716D-01  0.213717D-01  0.000000D+00  0.000000D+00
      3  -0.117617D-04 -0.213817D-01  0.555973D-01  0.000000D+00  0.000000D+00
      4  -0.842574D-04  0.000000D+00 -0.114146D-05 -0.856703D-01  0.623339D-05
      5  -0.921032D-04 -0.172795D+00 -0.664511D-01  0.000000D+00  0.000000D+00
      6   0.340811D-04  0.664790D-01 -0.172868D+00  0.142405D-05  0.000000D+00
      7   0.271961D-03  0.000000D+00  0.356293D-05  0.275668D+00 -0.181017D-04
      8   0.352568D+00 -0.156075D-03 -0.817939D-04 -0.342260D-03 -0.167724D-05
      9  -0.160026D+00  0.717714D-04 -0.167208D-03  0.815103D-04  0.285214D-04
     10   0.000000D+00  0.109264D-03  0.507533D-04 -0.136326D-04  0.000000D+00
     11   0.243326D-04 -0.234270D-01  0.580310D-01 -0.107613D-05  0.579114D-05
     12  -0.252841D-04  0.234288D-01 -0.580530D-01  0.120702D-05  0.639252D-05
     13   0.000000D+00  0.417421D-05 -0.578566D-05  0.000000D+00 -0.936946D-05
     14  -0.473016D-04  0.582313D-01  0.234769D-01  0.000000D+00  0.000000D+00
     15   0.205895D+00 -0.919070D-04  0.213698D-03 -0.105367D-03 -0.232278D-04
     16   0.453678D+00 -0.200616D-03 -0.103650D-03 -0.463573D-03 -0.155171D-05
               836           837           838           839           840 
      1  -0.114291D+03 -0.114291D+03 -0.114284D+03 -0.114284D+03 -0.114266D+03
      2  -0.119325D-02 -0.141219D-01  0.198980D-05 -0.299954D-05 -0.229322D-05
      3   0.141243D-01 -0.119119D-02  0.326138D-05  0.176465D-05 -0.715716D-04
      4   0.000000D+00  0.000000D+00 -0.205313D-05  0.000000D+00  0.000000D+00
      5   0.175793D-02  0.207869D-01 -0.594275D-05  0.898733D-05  0.772488D-05
      6  -0.207951D-01  0.175333D-02 -0.988122D-05 -0.520794D-05  0.242610D-03
      7   0.000000D+00  0.000000D+00  0.505985D-05  0.000000D+00  0.000000D+00
      8   0.119947D-05  0.840672D-05  0.161745D+00 -0.258508D+00 -0.139868D-05
      9  -0.882194D-05  0.103835D-05  0.258498D+00  0.161737D+00  0.000000D+00
     10   0.273572D-05  0.106273D-04  0.000000D+00  0.000000D+00  0.672872D-05
     11  -0.999129D-02  0.657632D-03  0.124950D-04  0.121633D-05  0.697607D+00
     12   0.997499D-02 -0.634454D-03 -0.110575D-04 -0.121991D-04  0.698181D+00
     13   0.000000D+00  0.000000D+00  0.000000D+00  0.000000D+00  0.126179D+00
     14   0.630844D-03  0.994963D-02  0.770050D-05 -0.110170D-04 -0.177617D-04
     15   0.782878D-05 -0.173714D-05 -0.392651D+00 -0.245672D+00  0.000000D+00
     16   0.201659D-05  0.730782D-05  0.245672D+00 -0.392641D+00 -0.248743D-05
               841           842           843           844           845 
      1  -0.114255D+03 -0.114255D+03 -0.114236D+03 -0.114201D+03 -0.114201D+03
      2  -0.494618D-01 -0.403409D-01 -0.339340D-04 -0.103996D-02  0.117016D-01
      3  -0.403375D-01  0.494571D-01  0.000000D+00  0.116846D-01  0.103817D-02
      4   0.000000D+00  0.000000D+00  0.113374D-05  0.000000D+00  0.000000D+00
      5   0.166118D+00  0.135485D+00  0.113058D-03  0.480231D-02 -0.540636D-01
      6   0.135471D+00 -0.166099D+00 -0.341625D-05 -0.540094D-01 -0.479694D-02
      7   0.000000D+00  0.000000D+00 -0.380063D-05 -0.152996D-05  0.000000D+00
      8  -0.731050D-05 -0.690482D-05  0.000000D+00  0.000000D+00  0.000000D+00
      9  -0.581626D-05  0.749719D-05  0.000000D+00  0.000000D+00  0.000000D+00
     10   0.111485D-04  0.357583D-05  0.389463D-01  0.304581D-05 -0.397625D-04
     11  -0.161721D+00  0.205227D+00  0.888753D-05  0.947276D-01  0.674525D-02
     12   0.160783D+00 -0.204198D+00 -0.735764D-05 -0.942160D-01 -0.679502D-02
     13  -0.939278D-04  0.107914D-03  0.000000D+00 -0.446382D-04  0.784344D-05
     14  -0.204683D+00 -0.161221D+00 -0.116039D-03 -0.677006D-02  0.944984D-01
     15   0.865527D-05 -0.104537D-04  0.000000D+00  0.000000D+00  0.000000D+00
     16  -0.103881D-04 -0.903905D-05  0.000000D+00  0.000000D+00  0.000000D+00
               846           847           848           849           850 
      1  -0.114197D+03 -0.114182D+03 -0.114182D+03 -0.114167D+03 -0.114155D+03
      2   0.000000D+00  0.284828D-01 -0.151443D-01 -0.104343D-04  0.000000D+00
      3  -0.493363D-05  0.151508D-01  0.284905D-01 -0.185139D-05  0.000000D+00
      4   0.000000D+00  0.000000D+00  0.000000D+00 -0.708985D-05  0.353290D-04
      5  -0.205693D-05 -0.732432D-01  0.389436D-01  0.247848D-04 -0.368863D-05
      6   0.243511D-04 -0.389613D-01 -0.732637D-01  0.464357D-05  0.000000D+00
      7   0.000000D+00  0.000000D+00  0.000000D+00  0.211896D-04 -0.102833D-03
      8   0.000000D+00 -0.909436D-05  0.519147D-05  0.000000D+00 -0.462627D+00
      9   0.000000D+00 -0.478778D-05 -0.937513D-05 -0.178996D-05 -0.422630D-01
     10   0.285017D-05  0.426384D-05 -0.531030D-05  0.372383D-02  0.000000D+00
     11   0.761586D+00  0.167521D+00  0.328266D+00 -0.337737D-04  0.000000D+00
     12   0.761916D+00 -0.167329D+00 -0.328182D+00  0.122853D-04  0.000000D+00
     13  -0.155215D+00 -0.140667D-04  0.141374D-05  0.000000D+00  0.000000D+00
     14  -0.209628D-04  0.328324D+00 -0.167480D+00 -0.320248D-04 -0.118017D-04
     15   0.000000D+00  0.694321D-05  0.145191D-04  0.238019D-05  0.462787D-01
     16   0.000000D+00 -0.143068D-04  0.841279D-05  0.000000D+00 -0.506625D+00
               851           852           853           854           855 
      1  -0.114155D+03 -0.114119D+03 -0.114118D+03 -0.114118D+03 -0.114113D+03
      2   0.000000D+00  0.158135D-03  0.251892D-02  0.711070D-01  0.000000D+00
      3   0.000000D+00  0.532837D-05 -0.711007D-01  0.251842D-02  0.000000D+00
      4  -0.268597D-05 -0.196404D-03  0.000000D+00  0.149542D-05  0.172234D+00
      5   0.000000D+00 -0.493514D-03 -0.788205D-02 -0.222454D+00  0.176558D-05
      6  -0.314908D-05 -0.162226D-04  0.222430D+00 -0.787997D-02  0.204808D-05
      7   0.782442D-05  0.576726D-03  0.284410D-05 -0.437789D-05 -0.506173D+00
      8   0.422560D-01  0.000000D+00  0.000000D+00 -0.940127D-05  0.117966D-03
      9  -0.462670D+00  0.000000D+00  0.987448D-05  0.000000D+00  0.400600D-05
     10   0.000000D+00 -0.310669D-02  0.253039D-05 -0.342800D-04  0.733337D-05
     11  -0.121934D-04  0.145922D-04 -0.183395D+00  0.337906D-02 -0.202036D-05
     12   0.119499D-04  0.547063D-05  0.183437D+00 -0.336790D-02  0.000000D+00
     13   0.000000D+00  0.285491D-05  0.809286D-05  0.000000D+00  0.000000D+00
     14   0.138754D-05  0.372773D-03  0.337645D-02  0.183446D+00 -0.162989D-05
     15   0.506653D+00  0.000000D+00 -0.165213D-04  0.000000D+00 -0.504783D-05
     16   0.462725D-01  0.000000D+00  0.000000D+00 -0.160756D-04  0.134059D-03
               856           857           858           859           860 
      1  -0.114051D+03 -0.114032D+03 -0.114019D+03 -0.114019D+03 -0.114001D+03
      2   0.000000D+00  0.000000D+00  0.255081D-05  0.000000D+00  0.000000D+00
      3   0.000000D+00  0.000000D+00  0.000000D+00  0.245467D-05  0.000000D+00
      4   0.000000D+00 -0.261143D-01 -0.276330D-04 -0.148280D-05 -0.144939D-05
      5  -0.131258D-05  0.000000D+00 -0.720254D-05 -0.102426D-05  0.000000D+00
      6  -0.387826D-05  0.000000D+00  0.119057D-05 -0.690788D-05  0.000000D+00
      7  -0.204714D-05  0.698938D-01  0.730186D-04  0.274954D-05  0.395905D-05
      8   0.000000D+00  0.228487D-03 -0.184820D+00 -0.325267D-01  0.155778D-05
      9   0.000000D+00 -0.112488D-05  0.325331D-01 -0.184814D+00 -0.110451D-03
     10  -0.430311D-05 -0.261569D-05  0.000000D+00  0.000000D+00  0.000000D+00
     11  -0.229421D-01  0.000000D+00 -0.104872D-05  0.735435D-05 -0.228311D-04
     12  -0.229227D-01  0.000000D+00  0.000000D+00 -0.710851D-05 -0.227502D-04
     13   0.109052D+00  0.000000D+00  0.000000D+00  0.000000D+00  0.530576D-05
     14   0.000000D+00  0.000000D+00  0.751711D-05  0.128797D-05  0.000000D+00
     15   0.000000D+00  0.268312D-05 -0.321794D-01  0.182795D+00  0.985342D-04
     16   0.000000D+00  0.216806D-03 -0.182764D+00 -0.321699D-01  0.000000D+00
               861           862           863           864 
      1  -0.113940D+03 -0.113940D+03 -0.113774D+03 -0.113774D+03
      2   0.899923D-02  0.480847D-01  0.000000D+00  0.000000D+00
      3  -0.480863D-01  0.899950D-02  0.000000D+00  0.000000D+00
      4   0.000000D+00  0.000000D+00 -0.654349D-05 -0.217931D-05
      5  -0.255808D-01 -0.136681D+00  0.000000D+00  0.000000D+00
      6   0.136683D+00 -0.255812D-01  0.000000D+00 -0.103448D-05
      7   0.128667D-05 -0.114105D-05  0.210700D-04  0.713859D-05
      8  -0.265902D-05 -0.106327D-04  0.422997D+00 -0.245567D-01
      9   0.109726D-04 -0.214321D-05  0.245517D-01  0.422983D+00
     10   0.000000D+00 -0.178290D-04  0.000000D+00  0.000000D+00
     11  -0.104337D+00  0.177005D-01  0.000000D+00  0.973839D-05
     12   0.104328D+00 -0.176916D-01  0.000000D+00 -0.920370D-05
     13   0.240763D-05 -0.244244D-05  0.000000D+00  0.000000D+00
     14   0.176889D-01  0.104308D+00  0.929760D-05  0.000000D+00
     15  -0.122793D-04  0.227118D-05 -0.235580D-01 -0.405889D+00
     16  -0.296939D-05 -0.119628D-04  0.405924D+00 -0.235642D-01
 Unable to Open any file for archive entry.
 1\1\GINC-HEL04\SP\RwB97XD TD-FC\Gen\C3H6\RR\12-Feb-2022\0\\#P TD(Nstat
 es=10000) wB97XD/Gen SCF(maxcycles=100) Int(Grid=ultrafine)\\xGDB7_000
 01_tier4.com\\0,1\C,0,0.753909,-0.429599,0.\C,0,-0.004913,0.867686,0.\
 C,0,-0.748994,-0.438113,0.\H,0,1.270787,-0.72407,0.916822\H,0,1.270801
 ,-0.724046,-0.916822\H,0,-0.008309,1.462556,-0.916811\H,0,-0.008282,1.
 462555,0.916811\H,0,-1.262496,-0.738429,-0.916817\H,0,-1.26251,-0.7384
 08,0.916816\\Version=EM64L-G16RevC.01\State=1-A\HF=-117.7801656\RMSD=8
 .749e-09\PG=C01 [X(C3H6)]\\@
 The archive entry for this job was punched.


 SUCCESS-- IF YOU HAVE TRIED TO DO SOMETHING AND FAILED
           YOU ARE BETTER OFF THAN IF YOU HAD TRIED TO DO
           NOTHING AND SUCCEEDED.

                   -- FROM THE BACK OF A SUGAR PACKET
 Job cpu time:       0 days  0 hours 25 minutes 27.6 seconds.
 Elapsed time:       0 days  0 hours  3 minutes 11.4 seconds.
 File lengths (MBytes):  RWF=    968 Int=      0 D2E=      0 Chk=    240 Scr=      1
 Normal termination of Gaussian 16 at Sat Feb 12 21:43:35 2022.
