 Entering Gaussian System, Link 0=g16
 Input=bigQM7w_TDwB97XD_def2SVPD_000015.com
 Output=bigQM7w_TDwB97XD_def2SVPD_000015.log
 Initial command:
 /home/rr/g16/l1.exe "/scratch/rr/PBS_7839460.helios/Gau-63917.inp" -scrdir="/scratch/rr/PBS_7839460.helios/"
 Entering Link 1 = /home/rr/g16/l1.exe PID=     63926.
  
 Copyright (c) 1988-2019, Gaussian, Inc.  All Rights Reserved.
  
 This is part of the Gaussian(R) 16 program.  It is based on
 the Gaussian(R) 09 system (copyright 2009, Gaussian, Inc.),
 the Gaussian(R) 03 system (copyright 2003, Gaussian, Inc.),
 the Gaussian(R) 98 system (copyright 1998, Gaussian, Inc.),
 the Gaussian(R) 94 system (copyright 1995, Gaussian, Inc.),
 the Gaussian 92(TM) system (copyright 1992, Gaussian, Inc.),
 the Gaussian 90(TM) system (copyright 1990, Gaussian, Inc.),
 the Gaussian 88(TM) system (copyright 1988, Gaussian, Inc.),
 the Gaussian 86(TM) system (copyright 1986, Carnegie Mellon
 University), and the Gaussian 82(TM) system (copyright 1983,
 Carnegie Mellon University). Gaussian is a federally registered
 trademark of Gaussian, Inc.
  
 This software contains proprietary and confidential information,
 including trade secrets, belonging to Gaussian, Inc.
  
 This software is provided under written license and may be
 used, copied, transmitted, or stored only in accord with that
 written license.
  
 The following legend is applicable only to US Government
 contracts under FAR:
  
                    RESTRICTED RIGHTS LEGEND
  
 Use, reproduction and disclosure by the US Government is
 subject to restrictions as set forth in subparagraphs (a)
 and (c) of the Commercial Computer Software - Restricted
 Rights clause in FAR 52.227-19.
  
 Gaussian, Inc.
 340 Quinnipiac St., Bldg. 40, Wallingford CT 06492
  
  
 ---------------------------------------------------------------
 Warning -- This program may not be used in any manner that
 competes with the business of Gaussian, Inc. or will provide
 assistance to any competitor of Gaussian, Inc.  The licensee
 of this program is prohibited from giving any competitor of
 Gaussian, Inc. access to this program.  By using this program,
 the user acknowledges that Gaussian, Inc. is engaged in the
 business of creating and licensing software in the field of
 computational chemistry and represents and warrants to the
 licensee that it is not a competitor of Gaussian, Inc. and that
 it will not use this program in any manner prohibited above.
 ---------------------------------------------------------------
  

 Cite this work as:
 Gaussian 16, Revision C.01,
 M. J. Frisch, G. W. Trucks, H. B. Schlegel, G. E. Scuseria, 
 M. A. Robb, J. R. Cheeseman, G. Scalmani, V. Barone, 
 G. A. Petersson, H. Nakatsuji, X. Li, M. Caricato, A. V. Marenich, 
 J. Bloino, B. G. Janesko, R. Gomperts, B. Mennucci, H. P. Hratchian, 
 J. V. Ortiz, A. F. Izmaylov, J. L. Sonnenberg, D. Williams-Young, 
 F. Ding, F. Lipparini, F. Egidi, J. Goings, B. Peng, A. Petrone, 
 T. Henderson, D. Ranasinghe, V. G. Zakrzewski, J. Gao, N. Rega, 
 G. Zheng, W. Liang, M. Hada, M. Ehara, K. Toyota, R. Fukuda, 
 J. Hasegawa, M. Ishida, T. Nakajima, Y. Honda, O. Kitao, H. Nakai, 
 T. Vreven, K. Throssell, J. A. Montgomery, Jr., J. E. Peralta, 
 F. Ogliaro, M. J. Bearpark, J. J. Heyd, E. N. Brothers, K. N. Kudin, 
 V. N. Staroverov, T. A. Keith, R. Kobayashi, J. Normand, 
 K. Raghavachari, A. P. Rendell, J. C. Burant, S. S. Iyengar, 
 J. Tomasi, M. Cossi, J. M. Millam, M. Klene, C. Adamo, R. Cammi, 
 J. W. Ochterski, R. L. Martin, K. Morokuma, O. Farkas, 
 J. B. Foresman, and D. J. Fox, Gaussian, Inc., Wallingford CT, 2019.
 
 ******************************************
 Gaussian 16:  EM64L-G16RevC.01  3-Jul-2019
                12-Feb-2022 
 ******************************************
 %mem=64gb
 %nproc=8
 Will use up to    8 processors via shared memory.
 ----------------------------------------------------------------------
 #P TD(Nstates=10000) wB97XD/Gen SCF(maxcycles=100) Int(Grid=ultrafine)
 ----------------------------------------------------------------------
 1/38=1,172=1/1;
 2/12=2,17=6,18=5,40=1/2;
 3/5=7,11=9,25=1,30=1,74=-58,75=-5/1,2,3,8;
 4//1;
 5/5=2,7=100,38=5/2;
 8/6=1,10=1,108=10000/1;
 9/41=10000,42=1,70=2/14;
 6/7=2,8=2,9=2,10=2/1;
 99/5=1,9=1/99;
 Leave Link    1 at Sat Feb 12 22:22:42 2022, MaxMem=  8589934592 cpu:               0.4 elap:               0.1
 (Enter /home/rr/g16/l101.exe)
 ---------------------
 xGDB7_00001_tier4.com
 ---------------------
 Symbolic Z-matrix:
 Charge =  0 Multiplicity = 1
 6                    -1.24414  -0.23575  -0.02792 
 6                     0.05307   0.55435   0.0546 
 7                     1.20258  -0.3202   -0.11851 
 1                    -2.11985   0.42504   0.05498 
 1                    -1.30763  -0.97611   0.78644 
 1                    -1.30043  -0.78069  -0.98168 
 1                     0.06348   1.13096   1.00438 
 1                     0.07027   1.3031   -0.75485 
 1                     1.25454  -0.98676   0.65037 
 1                     2.06797   0.21422  -0.09015 
 
 ITRead=  0  0  0  0  0  0  0  0  0  0
 MicOpt= -1 -1 -1 -1 -1 -1 -1 -1 -1 -1
 NAtoms=     10 NQM=       10 NQMF=       0 NMMI=      0 NMMIF=      0
                NMic=       0 NMicF=      0.
                    Isotopes and Nuclear Properties:
 (Nuclear quadrupole moments (NQMom) in fm**2, nuclear magnetic moments (NMagM)
  in nuclear magnetons)

  Atom         1           2           3           4           5           6           7           8           9          10
 IAtWgt=          12          12          14           1           1           1           1           1           1           1
 AtmWgt=  12.0000000  12.0000000  14.0030740   1.0078250   1.0078250   1.0078250   1.0078250   1.0078250   1.0078250   1.0078250
 NucSpn=           0           0           2           1           1           1           1           1           1           1
 AtZEff=  -0.0000000  -0.0000000  -0.0000000  -0.0000000  -0.0000000  -0.0000000  -0.0000000  -0.0000000  -0.0000000  -0.0000000
 NQMom=    0.0000000   0.0000000   2.0440000   0.0000000   0.0000000   0.0000000   0.0000000   0.0000000   0.0000000   0.0000000
 NMagM=    0.0000000   0.0000000   0.4037610   2.7928460   2.7928460   2.7928460   2.7928460   2.7928460   2.7928460   2.7928460
 AtZNuc=   6.0000000   6.0000000   7.0000000   1.0000000   1.0000000   1.0000000   1.0000000   1.0000000   1.0000000   1.0000000
 Leave Link  101 at Sat Feb 12 22:22:42 2022, MaxMem=  8589934592 cpu:               0.8 elap:               0.1
 (Enter /home/rr/g16/l202.exe)
                          Input orientation:                          
 ---------------------------------------------------------------------
 Center     Atomic      Atomic             Coordinates (Angstroms)
 Number     Number       Type             X           Y           Z
 ---------------------------------------------------------------------
      1          6           0       -1.244141   -0.235754   -0.027915
      2          6           0        0.053070    0.554353    0.054597
      3          7           0        1.202580   -0.320195   -0.118513
      4          1           0       -2.119845    0.425044    0.054983
      5          1           0       -1.307630   -0.976111    0.786441
      6          1           0       -1.300428   -0.780687   -0.981677
      7          1           0        0.063480    1.130960    1.004377
      8          1           0        0.070274    1.303101   -0.754854
      9          1           0        1.254541   -0.986760    0.650372
     10          1           0        2.067972    0.214222   -0.090146
 ---------------------------------------------------------------------
                    Distance matrix (angstroms):
                    1          2          3          4          5
     1  C    0.000000
     2  C    1.521129   0.000000
     3  N    2.449853   1.454708   0.000000
     4  H    1.100174   2.176759   3.409397   0.000000
     5  H    1.102422   2.174723   2.747785   1.777065   0.000000
     6  H    1.099901   2.165214   2.687407   1.788825   1.778900
     7  H    2.154857   1.111155   2.159695   2.483259   2.523329
     8  H    2.150396   1.102783   2.078975   2.494683   3.077177
     9  H    2.695829   2.042917   1.018918   3.705963   2.565804
    10  H    3.343119   2.048529   1.017502   4.195631   3.685103
                    6          7          8          9         10
     6  H    0.000000
     7  H    3.075557   0.000000
     8  H    2.504485   1.767646   0.000000
     9  H    3.038736   2.455338   2.936088   0.000000
    10  H    3.623643   2.460971   2.370294   1.628617   0.000000
 Stoichiometry    C2H7N
 Framework group  C1[X(C2H7N)]
 Deg. of freedom    24
 Full point group                 C1      NOp   1
 Largest Abelian subgroup         C1      NOp   1
 Largest concise Abelian subgroup C1      NOp   1
                         Standard orientation:                         
 ---------------------------------------------------------------------
 Center     Atomic      Atomic             Coordinates (Angstroms)
 Number     Number       Type             X           Y           Z
 ---------------------------------------------------------------------
      1          6           0       -1.244141   -0.235754   -0.027915
      2          6           0        0.053070    0.554353    0.054597
      3          7           0        1.202580   -0.320195   -0.118513
      4          1           0       -2.119845    0.425044    0.054983
      5          1           0       -1.307630   -0.976111    0.786441
      6          1           0       -1.300428   -0.780687   -0.981677
      7          1           0        0.063480    1.130960    1.004377
      8          1           0        0.070274    1.303101   -0.754854
      9          1           0        1.254541   -0.986760    0.650372
     10          1           0        2.067972    0.214222   -0.090146
 ---------------------------------------------------------------------
 Rotational constants (GHZ):          32.8119153           8.9405665           7.8599598
 Leave Link  202 at Sat Feb 12 22:22:42 2022, MaxMem=  8589934592 cpu:               0.1 elap:               0.0
 (Enter /home/rr/g16/l301.exe)
 General basis read from cards:  (5D, 7F)
 Centers:       4      5      6      7      8      9     10
 S 3 1.00
     Exponent=  1.3010701000D+01 Coefficients=  1.9682158000D-02
     Exponent=  1.9622572000D+00 Coefficients=  1.3796524000D-01
     Exponent=  4.4453796000D-01 Coefficients=  4.7831935000D-01
 S 1 1.00
     Exponent=  1.2194962000D-01 Coefficients=  1.0000000000D+00
 P 1 1.00
     Exponent=  8.0000000000D-01 Coefficients=  1.0000000000D+00
 P 1 1.00
     Exponent=  1.1704099050D-01 Coefficients=  1.0000000000D+00
 ****
 Centers:       1      2
 S 5 1.00
     Exponent=  1.2384016938D+03 Coefficients=  5.4568832082D-03
     Exponent=  1.8629004992D+02 Coefficients=  4.0638409211D-02
     Exponent=  4.2251176346D+01 Coefficients=  1.8025593888D-01
     Exponent=  1.1676557932D+01 Coefficients=  4.6315121755D-01
     Exponent=  3.5930506482D+00 Coefficients=  4.4087173314D-01
 S 1 1.00
     Exponent=  4.0245147363D-01 Coefficients=  1.0000000000D+00
 S 1 1.00
     Exponent=  1.3090182668D-01 Coefficients=  1.0000000000D+00
 S 1 1.00
     Exponent=  6.7053540256D-02 Coefficients=  1.0000000000D+00
 P 3 1.00
     Exponent=  9.4680970621D+00 Coefficients=  3.8387871728D-02
     Exponent=  2.0103545142D+00 Coefficients=  2.1117025112D-01
     Exponent=  5.4771004707D-01 Coefficients=  5.1328172114D-01
 P 1 1.00
     Exponent=  1.5268613795D-01 Coefficients=  1.0000000000D+00
 D 1 1.00
     Exponent=  8.0000000000D-01 Coefficients=  1.0000000000D+00
 D 1 1.00
     Exponent=  1.1713185140D-01 Coefficients=  1.0000000000D+00
 ****
 Centers:       3
 S 5 1.00
     Exponent=  1.7128415853D+03 Coefficients= -5.3934125305D-03
     Exponent=  2.5764812677D+02 Coefficients= -4.0221581118D-02
     Exponent=  5.8458245853D+01 Coefficients= -1.7931144990D-01
     Exponent=  1.6198367905D+01 Coefficients= -4.6376317823D-01
     Exponent=  5.0052600809D+00 Coefficients= -4.4171422662D-01
 S 1 1.00
     Exponent=  5.8731856571D-01 Coefficients=  1.0000000000D+00
 S 1 1.00
     Exponent=  1.8764592253D-01 Coefficients=  1.0000000000D+00
 S 1 1.00
     Exponent=  9.6171241529D-02 Coefficients=  1.0000000000D+00
 P 3 1.00
     Exponent=  1.3571470233D+01 Coefficients= -4.0072398852D-02
     Exponent=  2.9257372874D+00 Coefficients= -2.1807045028D-01
     Exponent=  7.9927750754D-01 Coefficients= -5.1294466049D-01
 P 1 1.00
     Exponent=  2.1954348034D-01 Coefficients=  1.0000000000D+00
 D 1 1.00
     Exponent=  1.0000000000D+00 Coefficients=  1.0000000000D+00
 D 1 1.00
     Exponent=  1.6697708112D-01 Coefficients=  1.0000000000D+00
 ****
 Ernie: Thresh=  0.10000D-02 Tol=  0.10000D-05 Strict=F.
 There are   122 symmetry adapted cartesian basis functions of A   symmetry.
 There are   116 symmetry adapted basis functions of A   symmetry.
   116 basis functions,   166 primitive gaussians,   122 cartesian basis functions
    13 alpha electrons       13 beta electrons
       nuclear repulsion energy        82.8945901699 Hartrees.
 IExCor= 4639 DFT=T Ex+Corr=wB97XD ExCW=0 ScaHFX=  1.000000
 ScaDFX=  1.000000  1.000000  1.000000  1.000000 ScalE2=  1.000000  1.000000
 IRadAn=      5 IRanWt=     -1 IRanGd=            0 ICorTp=0 IEmpDi=121
 HFx  wShort=  0.000000 wLong=  0.200000 cFull=  0.222036 cShort=  0.000000 cLong=  0.777964
 DFx  wShort=  0.000000 wLong=  0.200000 cFull=  0.000000 cShort=  0.000000 cLong=  1.000000
 NAtoms=   10 NActive=   10 NUniq=   10 SFac= 1.00D+00 NAtFMM=   60 NAOKFM=F Big=F
 Integral buffers will be    131072 words long.
 Raffenetti 1 integral format.
 Two-electron integral symmetry is turned on.
 R6Disp:  Grimme-D2 Dispersion energy=       -0.0032334560 Hartrees.
 Nuclear repulsion after empirical dispersion term =       82.8913567139 Hartrees.
 Leave Link  301 at Sat Feb 12 22:22:42 2022, MaxMem=  8589934592 cpu:               0.6 elap:               0.1
 (Enter /home/rr/g16/l302.exe)
 NPDir=0 NMtPBC=     1 NCelOv=     1 NCel=       1 NClECP=     1 NCelD=      1
         NCelK=      1 NCelE2=     1 NClLst=     1 CellRange=     0.0.
 One-electron integrals computed using PRISM.
 One-electron integral symmetry used in STVInt
 NBasis=   116 RedAO= T EigKep=  2.77D-04  NBF=   116
 NBsUse=   116 1.00D-06 EigRej= -1.00D+00 NBFU=   116
 Precomputing XC quadrature grid using
 IXCGrd= 4 IRadAn=           5 IRanWt=          -1 IRanGd=           0 AccXCQ= 0.00D+00.
 Generated NRdTot=       0 NPtTot=           0 NUsed=           0 NTot=          32
 NSgBfM=   122   122   122   122   122 MxSgAt=    10 MxSgA2=    10.
 Leave Link  302 at Sat Feb 12 22:22:42 2022, MaxMem=  8589934592 cpu:               1.2 elap:               0.2
 (Enter /home/rr/g16/l303.exe)
 DipDrv:  MaxL=1.
 Leave Link  303 at Sat Feb 12 22:22:42 2022, MaxMem=  8589934592 cpu:               0.2 elap:               0.1
 (Enter /home/rr/g16/l308.exe)
 Leave Link  308 at Sat Feb 12 22:22:42 2022, MaxMem=  8589934592 cpu:               0.2 elap:               0.1
 (Enter /home/rr/g16/l401.exe)
 ExpMin= 6.71D-02 ExpMax= 1.71D+03 ExpMxC= 2.58D+02 IAcc=3 IRadAn=         5 AccDes= 0.00D+00
 Harris functional with IExCor= 4639 and IRadAn=       5 diagonalized for initial guess.
 HarFok:  IExCor= 4639 AccDes= 0.00D+00 IRadAn=         5 IDoV= 1 UseB2=F ITyADJ=14
 ICtDFT=  3500011 ScaDFX=  1.000000  1.000000  1.000000  1.000000
 FoFCou: FMM=F IPFlag=           0 FMFlag=      100000 FMFlg1=           0
         NFxFlg=           0 DoJE=T BraDBF=F KetDBF=T FulRan=T
         wScrn=  0.000000 ICntrl=       500 IOpCl=  0 I1Cent=   200000004 NGrid=           0
         NMat0=    1 NMatS0=      1 NMatT0=    0 NMatD0=    1 NMtDS0=    0 NMtDT0=    0
 Petite list used in FoFCou.
 Harris En= -128.618921184866    
 JPrj=0 DoOrth=F DoCkMO=F.
 Leave Link  401 at Sat Feb 12 22:22:43 2022, MaxMem=  8589934592 cpu:               4.5 elap:               0.6
 (Enter /home/rr/g16/l502.exe)
 Keep R1 ints in memory in canonical form, NReq=54438630.
 FoFCou: FMM=F IPFlag=           0 FMFlag=           0 FMFlg1=           0
         NFxFlg=           0 DoJE=F BraDBF=F KetDBF=F FulRan=T
         wScrn=  0.000000 ICntrl=       600 IOpCl=  0 I1Cent=           0 NGrid=           0
         NMat0=    1 NMatS0=   6786 NMatT0=    0 NMatD0=    1 NMtDS0=    0 NMtDT0=    0
 Symmetry not used in FoFCou.
 Two-electron integral symmetry not used.
 Closed shell SCF:
 Using DIIS extrapolation, IDIIS=  1040.
 NGot=  8589934592 LenX=  8543845660 LenY=  8543830335
 Requested convergence on RMS density matrix=1.00D-08 within 100 cycles.
 Requested convergence on MAX density matrix=1.00D-06.
 Requested convergence on             energy=1.00D-06.
 No special actions if energy rises.
 Integral accuracy reduced to 1.0D-05 until final iterations.

 Cycle   1  Pass 0  IDiag  1:
 E= -135.022235767849    
 DIIS: error= 2.68D-02 at cycle   1 NSaved=   1.
 NSaved= 1 IEnMin= 1 EnMin= -135.022235767849     IErMin= 1 ErrMin= 2.68D-02
 ErrMax= 2.68D-02  0.00D+00 EMaxC= 1.00D-01 BMatC= 6.04D-02 BMatP= 6.04D-02
 IDIUse=3 WtCom= 7.32D-01 WtEn= 2.68D-01
 Coeff-Com:  0.100D+01
 Coeff-En:   0.100D+01
 Coeff:      0.100D+01
 Gap=     0.425 Goal=   None    Shift=    0.000
 GapD=    0.425 DampG=2.000 DampE=0.500 DampFc=1.0000 IDamp=-1.
 RMSDP=3.86D-03 MaxDP=1.29D-01              OVMax= 4.62D-02

 Cycle   2  Pass 0  IDiag  1:
 E= -135.039983366681     Delta-E=       -0.017747598832 Rises=F Damp=F
 DIIS: error= 5.90D-03 at cycle   2 NSaved=   2.
 NSaved= 2 IEnMin= 2 EnMin= -135.039983366681     IErMin= 2 ErrMin= 5.90D-03
 ErrMax= 5.90D-03  0.00D+00 EMaxC= 1.00D-01 BMatC= 6.04D-03 BMatP= 6.04D-02
 IDIUse=3 WtCom= 9.41D-01 WtEn= 5.90D-02
 Coeff-Com:  0.149D+00 0.851D+00
 Coeff-En:   0.000D+00 0.100D+01
 Coeff:      0.140D+00 0.860D+00
 Gap=     0.414 Goal=   None    Shift=    0.000
 RMSDP=1.33D-03 MaxDP=4.33D-02 DE=-1.77D-02 OVMax= 2.69D-02

 Cycle   3  Pass 0  IDiag  1:
 E= -135.043991400776     Delta-E=       -0.004008034095 Rises=F Damp=F
 DIIS: error= 3.33D-03 at cycle   3 NSaved=   3.
 NSaved= 3 IEnMin= 3 EnMin= -135.043991400776     IErMin= 3 ErrMin= 3.33D-03
 ErrMax= 3.33D-03  0.00D+00 EMaxC= 1.00D-01 BMatC= 2.04D-03 BMatP= 6.04D-03
 IDIUse=3 WtCom= 9.67D-01 WtEn= 3.33D-02
 Coeff-Com: -0.218D-02 0.365D+00 0.638D+00
 Coeff-En:   0.000D+00 0.187D+00 0.813D+00
 Coeff:     -0.211D-02 0.359D+00 0.643D+00
 Gap=     0.418 Goal=   None    Shift=    0.000
 RMSDP=6.22D-04 MaxDP=2.97D-02 DE=-4.01D-03 OVMax= 1.01D-02

 Cycle   4  Pass 0  IDiag  1:
 E= -135.045916778845     Delta-E=       -0.001925378069 Rises=F Damp=F
 DIIS: error= 2.76D-04 at cycle   4 NSaved=   4.
 NSaved= 4 IEnMin= 4 EnMin= -135.045916778845     IErMin= 4 ErrMin= 2.76D-04
 ErrMax= 2.76D-04  0.00D+00 EMaxC= 1.00D-01 BMatC= 2.41D-05 BMatP= 2.04D-03
 IDIUse=3 WtCom= 9.97D-01 WtEn= 2.76D-03
 Coeff-Com: -0.137D-02 0.110D+00 0.219D+00 0.673D+00
 Coeff-En:   0.000D+00 0.000D+00 0.000D+00 0.100D+01
 Coeff:     -0.137D-02 0.109D+00 0.218D+00 0.674D+00
 Gap=     0.416 Goal=   None    Shift=    0.000
 RMSDP=7.97D-05 MaxDP=3.16D-03 DE=-1.93D-03 OVMax= 1.33D-03

 Cycle   5  Pass 0  IDiag  1:
 E= -135.045936908003     Delta-E=       -0.000020129158 Rises=F Damp=F
 DIIS: error= 9.44D-05 at cycle   5 NSaved=   5.
 NSaved= 5 IEnMin= 5 EnMin= -135.045936908003     IErMin= 5 ErrMin= 9.44D-05
 ErrMax= 9.44D-05  0.00D+00 EMaxC= 1.00D-01 BMatC= 2.46D-06 BMatP= 2.41D-05
 IDIUse=1 WtCom= 1.00D+00 WtEn= 0.00D+00
 Coeff-Com: -0.456D-03-0.282D-01-0.388D-01 0.190D+00 0.878D+00
 Coeff:     -0.456D-03-0.282D-01-0.388D-01 0.190D+00 0.878D+00
 Gap=     0.416 Goal=   None    Shift=    0.000
 RMSDP=7.85D-05 MaxDP=5.14D-03 DE=-2.01D-05 OVMax= 8.09D-04

 Cycle   6  Pass 0  IDiag  1:
 E= -135.045940076940     Delta-E=       -0.000003168937 Rises=F Damp=F
 DIIS: error= 2.76D-05 at cycle   6 NSaved=   6.
 NSaved= 6 IEnMin= 6 EnMin= -135.045940076940     IErMin= 6 ErrMin= 2.76D-05
 ErrMax= 2.76D-05  0.00D+00 EMaxC= 1.00D-01 BMatC= 1.15D-07 BMatP= 2.46D-06
 IDIUse=1 WtCom= 1.00D+00 WtEn= 0.00D+00
 Coeff-Com:  0.620D-04-0.135D-01-0.226D-01-0.888D-02 0.198D+00 0.847D+00
 Coeff:      0.620D-04-0.135D-01-0.226D-01-0.888D-02 0.198D+00 0.847D+00
 Gap=     0.416 Goal=   None    Shift=    0.000
 RMSDP=2.00D-05 MaxDP=1.35D-03 DE=-3.17D-06 OVMax= 2.02D-04

 Cycle   7  Pass 0  IDiag  1:
 E= -135.045940252194     Delta-E=       -0.000000175253 Rises=F Damp=F
 DIIS: error= 3.30D-06 at cycle   7 NSaved=   7.
 NSaved= 7 IEnMin= 7 EnMin= -135.045940252194     IErMin= 7 ErrMin= 3.30D-06
 ErrMax= 3.30D-06  0.00D+00 EMaxC= 1.00D-01 BMatC= 4.20D-09 BMatP= 1.15D-07
 IDIUse=1 WtCom= 1.00D+00 WtEn= 0.00D+00
 Coeff-Com:  0.796D-05 0.230D-03 0.234D-03-0.961D-02-0.235D-01 0.740D-01
 Coeff-Com:  0.959D+00
 Coeff:      0.796D-05 0.230D-03 0.234D-03-0.961D-02-0.235D-01 0.740D-01
 Coeff:      0.959D+00
 Gap=     0.416 Goal=   None    Shift=    0.000
 RMSDP=8.04D-06 MaxDP=5.65D-04 DE=-1.75D-07 OVMax= 7.98D-05

 Initial convergence to 1.0D-05 achieved.  Increase integral accuracy.
 Cycle   8  Pass 1  IDiag  1:
 E= -135.045943889660     Delta-E=       -0.000003637467 Rises=F Damp=F
 DIIS: error= 9.25D-06 at cycle   1 NSaved=   1.
 NSaved= 1 IEnMin= 1 EnMin= -135.045943889660     IErMin= 1 ErrMin= 9.25D-06
 ErrMax= 9.25D-06  0.00D+00 EMaxC= 1.00D-01 BMatC= 4.59D-08 BMatP= 4.59D-08
 IDIUse=1 WtCom= 1.00D+00 WtEn= 0.00D+00
 Coeff-Com:  0.100D+01
 Coeff:      0.100D+01
 Gap=     0.416 Goal=   None    Shift=    0.000
 RMSDP=8.04D-06 MaxDP=5.65D-04 DE=-3.64D-06 OVMax= 3.72D-05

 Cycle   9  Pass 1  IDiag  1:
 E= -135.045943931491     Delta-E=       -0.000000041830 Rises=F Damp=F
 DIIS: error= 1.89D-06 at cycle   2 NSaved=   2.
 NSaved= 2 IEnMin= 2 EnMin= -135.045943931491     IErMin= 2 ErrMin= 1.89D-06
 ErrMax= 1.89D-06  0.00D+00 EMaxC= 1.00D-01 BMatC= 9.69D-10 BMatP= 4.59D-08
 IDIUse=1 WtCom= 1.00D+00 WtEn= 0.00D+00
 Coeff-Com: -0.668D-01 0.107D+01
 Coeff:     -0.668D-01 0.107D+01
 Gap=     0.416 Goal=   None    Shift=    0.000
 RMSDP=1.43D-06 MaxDP=7.57D-05 DE=-4.18D-08 OVMax= 1.44D-05

 Cycle  10  Pass 1  IDiag  1:
 E= -135.045943932553     Delta-E=       -0.000000001062 Rises=F Damp=F
 DIIS: error= 1.44D-06 at cycle   3 NSaved=   3.
 NSaved= 3 IEnMin= 3 EnMin= -135.045943932553     IErMin= 3 ErrMin= 1.44D-06
 ErrMax= 1.44D-06  0.00D+00 EMaxC= 1.00D-01 BMatC= 3.45D-10 BMatP= 9.69D-10
 IDIUse=1 WtCom= 1.00D+00 WtEn= 0.00D+00
 Coeff-Com: -0.416D-01 0.411D+00 0.631D+00
 Coeff:     -0.416D-01 0.411D+00 0.631D+00
 Gap=     0.416 Goal=   None    Shift=    0.000
 RMSDP=2.69D-07 MaxDP=7.98D-06 DE=-1.06D-09 OVMax= 5.09D-06

 Cycle  11  Pass 1  IDiag  1:
 E= -135.045943932894     Delta-E=       -0.000000000341 Rises=F Damp=F
 DIIS: error= 2.21D-07 at cycle   4 NSaved=   4.
 NSaved= 4 IEnMin= 4 EnMin= -135.045943932894     IErMin= 4 ErrMin= 2.21D-07
 ErrMax= 2.21D-07  0.00D+00 EMaxC= 1.00D-01 BMatC= 1.33D-11 BMatP= 3.45D-10
 IDIUse=1 WtCom= 1.00D+00 WtEn= 0.00D+00
 Coeff-Com: -0.178D-02-0.199D-01 0.110D+00 0.912D+00
 Coeff:     -0.178D-02-0.199D-01 0.110D+00 0.912D+00
 Gap=     0.416 Goal=   None    Shift=    0.000
 RMSDP=2.89D-07 MaxDP=2.00D-05 DE=-3.41D-10 OVMax= 3.06D-06

 Cycle  12  Pass 1  IDiag  1:
 E= -135.045943932918     Delta-E=       -0.000000000024 Rises=F Damp=F
 DIIS: error= 1.02D-07 at cycle   5 NSaved=   5.
 NSaved= 5 IEnMin= 5 EnMin= -135.045943932918     IErMin= 5 ErrMin= 1.02D-07
 ErrMax= 1.02D-07  0.00D+00 EMaxC= 1.00D-01 BMatC= 2.36D-12 BMatP= 1.33D-11
 IDIUse=1 WtCom= 1.00D+00 WtEn= 0.00D+00
 Coeff-Com:  0.326D-02-0.439D-01-0.206D-01 0.300D+00 0.761D+00
 Coeff:      0.326D-02-0.439D-01-0.206D-01 0.300D+00 0.761D+00
 Gap=     0.416 Goal=   None    Shift=    0.000
 RMSDP=6.72D-08 MaxDP=4.36D-06 DE=-2.43D-11 OVMax= 1.23D-06

 Cycle  13  Pass 1  IDiag  1:
 E= -135.045943932920     Delta-E=       -0.000000000001 Rises=F Damp=F
 DIIS: error= 2.56D-08 at cycle   6 NSaved=   6.
 NSaved= 6 IEnMin= 6 EnMin= -135.045943932920     IErMin= 6 ErrMin= 2.56D-08
 ErrMax= 2.56D-08  0.00D+00 EMaxC= 1.00D-01 BMatC= 2.82D-13 BMatP= 2.36D-12
 IDIUse=1 WtCom= 1.00D+00 WtEn= 0.00D+00
 Coeff-Com:  0.136D-02-0.111D-01-0.233D-01-0.476D-01 0.226D+00 0.855D+00
 Coeff:      0.136D-02-0.111D-01-0.233D-01-0.476D-01 0.226D+00 0.855D+00
 Gap=     0.416 Goal=   None    Shift=    0.000
 RMSDP=5.15D-08 MaxDP=3.62D-06 DE=-1.25D-12 OVMax= 6.36D-07

 Cycle  14  Pass 1  IDiag  1:
 E= -135.045943932920     Delta-E=       -0.000000000000 Rises=F Damp=F
 DIIS: error= 7.56D-09 at cycle   7 NSaved=   7.
 NSaved= 7 IEnMin= 7 EnMin= -135.045943932920     IErMin= 7 ErrMin= 7.56D-09
 ErrMax= 7.56D-09  0.00D+00 EMaxC= 1.00D-01 BMatC= 1.04D-14 BMatP= 2.82D-13
 IDIUse=1 WtCom= 1.00D+00 WtEn= 0.00D+00
 Coeff-Com: -0.205D-03 0.297D-02 0.187D-02-0.226D-01-0.608D-01-0.168D-01
 Coeff-Com:  0.110D+01
 Coeff:     -0.205D-03 0.297D-02 0.187D-02-0.226D-01-0.608D-01-0.168D-01
 Coeff:      0.110D+01
 Gap=     0.416 Goal=   None    Shift=    0.000
 RMSDP=1.61D-08 MaxDP=1.11D-06 DE=-4.55D-13 OVMax= 2.46D-07

 Cycle  15  Pass 1  IDiag  1:
 E= -135.045943932920     Delta-E=       -0.000000000000 Rises=F Damp=F
 DIIS: error= 1.84D-09 at cycle   8 NSaved=   8.
 NSaved= 8 IEnMin= 8 EnMin= -135.045943932920     IErMin= 8 ErrMin= 1.84D-09
 ErrMax= 1.84D-09  0.00D+00 EMaxC= 1.00D-01 BMatC= 6.70D-16 BMatP= 1.04D-14
 IDIUse=1 WtCom= 1.00D+00 WtEn= 0.00D+00
 Coeff-Com: -0.951D-04 0.754D-03 0.176D-02 0.360D-02-0.131D-01-0.660D-01
 Coeff-Com: -0.207D-01 0.109D+01
 Coeff:     -0.951D-04 0.754D-03 0.176D-02 0.360D-02-0.131D-01-0.660D-01
 Coeff:     -0.207D-01 0.109D+01
 Gap=     0.416 Goal=   None    Shift=    0.000
 RMSDP=3.27D-09 MaxDP=2.15D-07 DE=-5.68D-14 OVMax= 5.87D-08

 SCF Done:  E(RwB97XD) =  -135.045943933     A.U. after   15 cycles
            NFock= 15  Conv=0.33D-08     -V/T= 2.0126
 KE= 1.333642047504D+02 PE=-4.783243869630D+02 EE= 1.270228815657D+02
 Leave Link  502 at Sat Feb 12 22:22:50 2022, MaxMem=  8589934592 cpu:              48.9 elap:               6.7
 (Enter /home/rr/g16/l801.exe)
 DoSCS=F DFT=T ScalE2(SS,OS)=  1.000000  1.000000
 ExpMin= 6.71D-02 ExpMax= 1.71D+03 ExpMxC= 2.58D+02 IAcc=3 IRadAn=         5 AccDes= 0.00D+00
 HarFok:  IExCor=  205 AccDes= 0.00D+00 IRadAn=         5 IDoV=-2 UseB2=F ITyADJ=14
 ICtDFT= 12500011 ScaDFX=  1.000000  1.000000  1.000000  1.000000
 Largest valence mixing into a core orbital is  7.23D-05
 Largest core mixing into a valence orbital is  2.12D-05
 Range of M.O.s used for correlation:     4   116
 NBasis=   116 NAE=    13 NBE=    13 NFC=     3 NFV=     0
 NROrb=    113 NOA=    10 NOB=    10 NVA=   103 NVB=   103

 **** Warning!!: The largest alpha MO coefficient is  0.20881753D+02

 Leave Link  801 at Sat Feb 12 22:22:50 2022, MaxMem=  8589934592 cpu:               0.7 elap:               0.1
 (Enter /home/rr/g16/l914.exe)
 RHF ground state
 Keep R1, R2, and R3 ints in memory in canonical form, NReq=1352232286.
 FoFCou: FMM=F IPFlag=           0 FMFlag=           0 FMFlg1=           0
         NFxFlg=           0 DoJE=F BraDBF=F KetDBF=F FulRan=T
         wScrn=  0.000000 ICntrl=       600 IOpCl=  0 I1Cent=           0 NGrid=           0
         NMat0=    1 NMatS0=   6786 NMatT0=    0 NMatD0=    1 NMtDS0=    0 NMtDT0=    0
 Symmetry not used in FoFCou.
 Two-electron integral symmetry not used.
 MDV=  8589934592 DFT=T DoStab=F Mixed=T DoRPA=T DoScal=F NonHer=T
 Making orbital integer symmetry assigments:
 Orbital symmetries:
       Occupied  (A) (A) (A) (A) (A) (A) (A) (A) (A) (A) (A) (A)
                 (A)
       Virtual   (A) (A) (A) (A) (A) (A) (A) (A) (A) (A) (A) (A)
                 (A) (A) (A) (A) (A) (A) (A) (A) (A) (A) (A) (A)
                 (A) (A) (A) (A) (A) (A) (A) (A) (A) (A) (A) (A)
                 (A) (A) (A) (A) (A) (A) (A) (A) (A) (A) (A) (A)
                 (A) (A) (A) (A) (A) (A) (A) (A) (A) (A) (A) (A)
                 (A) (A) (A) (A) (A) (A) (A) (A) (A) (A) (A) (A)
                 (A) (A) (A) (A) (A) (A) (A) (A) (A) (A) (A) (A)
                 (A) (A) (A) (A) (A) (A) (A) (A) (A) (A) (A) (A)
                 (A) (A) (A) (A) (A) (A) (A)
  1030 initial guesses have been made.
 Convergence on wavefunction:    0.001000000000000
 Davidson Disk Diagonalization:  ConvIn= 1.00D-03 SkipCon=T Conv= 1.00D-03.
 Max sub-space:  6180 roots to seek:  2060 dimension of matrix:         2060
 *** WARNING: Number of orthogonal guesses is         1030
 Iteration     1 Dimension  1030 NMult     0 NNew   1030
 CISAX will form  1030 AO SS matrices at one time.
 NMat=  1030 NSing=  1030 JSym2X= 0.
 New state     13 was old state     16
 New state     15 was old state     13
 New state     16 was old state     15
 New state     17 was old state     18
 New state     18 was old state     17
 New state     19 was old state     22
 New state     21 was old state     19
 New state     22 was old state     21
 New state     23 was old state     24
 New state     24 was old state     23
 New state     25 was old state     26
 New state     26 was old state     27
 New state     27 was old state     28
 New state     28 was old state     25
 New state     29 was old state     30
 New state     30 was old state     29
 New state     31 was old state     33
 New state     32 was old state     31
 New state     33 was old state     35
 New state     35 was old state     36
 New state     36 was old state     39
 New state     37 was old state     40
 New state     38 was old state     32
 New state     39 was old state     41
 New state     40 was old state     37
 New state     41 was old state     44
 New state     42 was old state     38
 New state     43 was old state     45
 New state     44 was old state     43
 New state     45 was old state     42
 New state     46 was old state     48
 New state     47 was old state     50
 New state     48 was old state     47
 New state     49 was old state     53
 New state     50 was old state     54
 New state     53 was old state     55
 New state     54 was old state     59
 New state     55 was old state     46
 New state     57 was old state     49
 New state     58 was old state     62
 New state     59 was old state     57
 New state     60 was old state     58
 New state     61 was old state     64
 New state     62 was old state     60
 New state     63 was old state     65
 New state     64 was old state     63
 New state     65 was old state     66
 New state     66 was old state     67
 New state     67 was old state     69
 New state     68 was old state     61
 New state     69 was old state     74
 New state     70 was old state     73
 New state     71 was old state     68
 New state     72 was old state     71
 New state     73 was old state     77
 New state     74 was old state     70
 New state     75 was old state     76
 New state     76 was old state     75
 New state     77 was old state     82
 New state     78 was old state     81
 New state     81 was old state     78
 New state     82 was old state     93
 New state     83 was old state     84
 New state     84 was old state     87
 New state     85 was old state     86
 New state     86 was old state     85
 New state     87 was old state     90
 New state     88 was old state     91
 New state     90 was old state     88
 New state     91 was old state     96
 New state     92 was old state     83
 New state     93 was old state     92
 New state     95 was old state     98
 New state     96 was old state     97
 New state     97 was old state    100
 New state     98 was old state    103
 New state     99 was old state     95
 New state    100 was old state    107
 New state    101 was old state    105
 New state    102 was old state     99
 New state    103 was old state    101
 New state    104 was old state    102
 New state    105 was old state    109
 New state    106 was old state    104
 New state    107 was old state    106
 New state    108 was old state    111
 New state    109 was old state    112
 New state    110 was old state    118
 New state    111 was old state    113
 New state    112 was old state    110
 New state    113 was old state    114
 New state    114 was old state    115
 New state    115 was old state    108
 New state    116 was old state    122
 New state    118 was old state    121
 New state    119 was old state    116
 New state    120 was old state    125
 New state    121 was old state    123
 New state    122 was old state    124
 New state    123 was old state    119
 New state    124 was old state    127
 New state    125 was old state    120
 New state    126 was old state    129
 New state    127 was old state    132
 New state    128 was old state    130
 New state    129 was old state    131
 New state    130 was old state    128
 New state    131 was old state    133
 New state    132 was old state    135
 New state    133 was old state    137
 New state    134 was old state    126
 New state    135 was old state    141
 New state    136 was old state    134
 New state    137 was old state    139
 New state    138 was old state    140
 New state    139 was old state    136
 New state    140 was old state    138
 New state    141 was old state    145
 New state    142 was old state    143
 New state    143 was old state    142
 New state    144 was old state    149
 New state    145 was old state    154
 New state    146 was old state    147
 New state    147 was old state    151
 New state    148 was old state    144
 New state    149 was old state    146
 New state    150 was old state    148
 New state    151 was old state    156
 New state    152 was old state    160
 New state    154 was old state    157
 New state    155 was old state    152
 New state    156 was old state    150
 New state    157 was old state    161
 New state    158 was old state    155
 New state    159 was old state    172
 New state    160 was old state    164
 New state    161 was old state    159
 New state    162 was old state    163
 New state    163 was old state    165
 New state    164 was old state    162
 New state    165 was old state    171
 New state    167 was old state    168
 New state    168 was old state    169
 New state    169 was old state    167
 New state    170 was old state    182
 New state    171 was old state    174
 New state    172 was old state    170
 New state    174 was old state    180
 New state    175 was old state    177
 New state    177 was old state    179
 New state    178 was old state    183
 New state    179 was old state    181
 New state    180 was old state    178
 New state    181 was old state    185
 New state    182 was old state    187
 New state    183 was old state    175
 New state    184 was old state    188
 New state    185 was old state    184
 New state    186 was old state    200
 New state    187 was old state    193
 New state    188 was old state    196
 New state    189 was old state    191
 New state    190 was old state    186
 New state    191 was old state    197
 New state    192 was old state    190
 New state    193 was old state    194
 New state    194 was old state    189
 New state    195 was old state    201
 New state    196 was old state    206
 New state    197 was old state    199
 New state    198 was old state    195
 New state    199 was old state    198
 New state    200 was old state    203
 New state    201 was old state    202
 New state    202 was old state    209
 New state    203 was old state    207
 New state    204 was old state    192
 New state    205 was old state    204
 New state    206 was old state    212
 New state    207 was old state    213
 New state    208 was old state    222
 New state    209 was old state    208
 New state    211 was old state    205
 New state    212 was old state    211
 New state    213 was old state    219
 New state    214 was old state    218
 New state    215 was old state    221
 New state    216 was old state    217
 New state    217 was old state    220
 New state    218 was old state    215
 New state    219 was old state    216
 New state    220 was old state    225
 New state    221 was old state    229
 New state    222 was old state    214
 New state    224 was old state    232
 New state    225 was old state    228
 New state    226 was old state    227
 New state    227 was old state    226
 New state    228 was old state    230
 New state    229 was old state    231
 New state    230 was old state    236
 New state    231 was old state    235
 New state    232 was old state    224
 New state    233 was old state    240
 New state    234 was old state    237
 New state    235 was old state    233
 New state    236 was old state    239
 New state    237 was old state    242
 New state    238 was old state    245
 New state    239 was old state    250
 New state    240 was old state    247
 New state    241 was old state    246
 New state    242 was old state    243
 New state    243 was old state    238
 New state    244 was old state    255
 New state    245 was old state    244
 New state    246 was old state    256
 New state    247 was old state    248
 New state    248 was old state    234
 New state    249 was old state    251
 New state    250 was old state    241
 New state    251 was old state    249
 New state    252 was old state    254
 New state    253 was old state    257
 New state    254 was old state    262
 New state    255 was old state    252
 New state    256 was old state    272
 New state    257 was old state    260
 New state    258 was old state    274
 New state    259 was old state    258
 New state    260 was old state    259
 New state    261 was old state    263
 New state    262 was old state    271
 New state    263 was old state    264
 New state    264 was old state    266
 New state    265 was old state    261
 New state    266 was old state    267
 New state    267 was old state    270
 New state    269 was old state    278
 New state    270 was old state    292
 New state    271 was old state    265
 New state    272 was old state    273
 New state    273 was old state    285
 New state    274 was old state    269
 New state    277 was old state    253
 New state    278 was old state    277
 New state    279 was old state    288
 New state    281 was old state    284
 New state    282 was old state    289
 New state    284 was old state    282
 New state    285 was old state    279
 New state    287 was old state    281
 New state    288 was old state    295
 New state    289 was old state    287
 New state    290 was old state    291
 New state    291 was old state    294
 New state    292 was old state    293
 New state    293 was old state    296
 New state    294 was old state    304
 New state    295 was old state    300
 New state    296 was old state    290
 New state    298 was old state    301
 New state    299 was old state    298
 New state    300 was old state    305
 New state    301 was old state    302
 New state    302 was old state    309
 New state    303 was old state    318
 New state    304 was old state    303
 New state    305 was old state    299
 New state    306 was old state    307
 New state    307 was old state    311
 New state    309 was old state    320
 New state    310 was old state    314
 New state    311 was old state    315
 New state    312 was old state    319
 New state    313 was old state    310
 New state    314 was old state    317
 New state    315 was old state    313
 New state    317 was old state    324
 New state    318 was old state    326
 New state    319 was old state    312
 New state    320 was old state    321
 New state    321 was old state    325
 New state    322 was old state    341
 New state    323 was old state    322
 New state    324 was old state    323
 New state    325 was old state    329
 New state    326 was old state    331
 New state    329 was old state    338
 New state    331 was old state    333
 New state    333 was old state    337
 New state    334 was old state    336
 New state    335 was old state    340
 New state    336 was old state    334
 New state    337 was old state    344
 New state    338 was old state    335
 New state    339 was old state    342
 New state    340 was old state    351
 New state    341 was old state    339
 New state    342 was old state    343
 New state    343 was old state    357
 New state    344 was old state    345
 New state    345 was old state    346
 New state    346 was old state    350
 New state    347 was old state    354
 New state    349 was old state    347
 New state    350 was old state    353
 New state    351 was old state    349
 No map to state    352
 New state    353 was old state    352
 New state    354 was old state    363
 New state    355 was old state    358
 New state    356 was old state    361
 New state    357 was old state    362
 New state    358 was old state    356
 New state    359 was old state    369
 New state    360 was old state    367
 New state    361 was old state    366
 New state    362 was old state    364
 New state    363 was old state    359
 New state    364 was old state    365
 New state    365 was old state    360
 New state    366 was old state    383
 New state    367 was old state    368
 New state    368 was old state    355
 New state    369 was old state    370
 New state    370 was old state    373
 New state    371 was old state    377
 New state    372 was old state    375
 New state    373 was old state    371
 New state    374 was old state    372
 New state    375 was old state    378
 New state    376 was old state    379
 New state    377 was old state    374
 New state    378 was old state    376
 New state    379 was old state    380
 New state    380 was old state    387
 New state    381 was old state    384
 New state    382 was old state    381
 New state    383 was old state    382
 New state    384 was old state    391
 New state    385 was old state    388
 New state    387 was old state    390
 New state    388 was old state    393
 New state    390 was old state    392
 New state    391 was old state    385
 New state    392 was old state    395
 New state    393 was old state    399
 New state    395 was old state    396
 New state    396 was old state    397
 New state    397 was old state    398
 New state    398 was old state    405
 New state    399 was old state    402
 New state    402 was old state    404
 New state    404 was old state    408
 New state    405 was old state    410
 New state    407 was old state    411
 New state    408 was old state    412
 New state    410 was old state    413
 New state    411 was old state    416
 New state    412 was old state    433
 New state    413 was old state    407
 New state    414 was old state    417
 New state    416 was old state    414
 New state    417 was old state    419
 New state    419 was old state    426
 New state    422 was old state    425
 New state    424 was old state    422
 New state    425 was old state    428
 New state    426 was old state    431
 New state    427 was old state    442
 New state    428 was old state    424
 New state    430 was old state    427
 New state    431 was old state    441
 New state    432 was old state    443
 New state    433 was old state    439
 New state    434 was old state    447
 New state    435 was old state    432
 New state    436 was old state    430
 New state    437 was old state    434
 New state    438 was old state    440
 New state    439 was old state    437
 New state    440 was old state    438
 New state    441 was old state    435
 New state    442 was old state    436
 New state    443 was old state    464
 New state    444 was old state    449
 New state    445 was old state    444
 New state    446 was old state    445
 New state    447 was old state    446
 New state    449 was old state    455
 New state    450 was old state    457
 New state    451 was old state    450
 New state    452 was old state    454
 New state    453 was old state    451
 New state    454 was old state    453
 New state    455 was old state    452
 New state    456 was old state    463
 New state    457 was old state    458
 New state    458 was old state    469
 New state    459 was old state    462
 New state    460 was old state    466
 New state    462 was old state    460
 New state    463 was old state    456
 New state    464 was old state    473
 New state    466 was old state    459
 New state    467 was old state    468
 New state    468 was old state    467
 New state    469 was old state    477
 New state    470 was old state    471
 New state    471 was old state    470
 New state    472 was old state    476
 New state    473 was old state    478
 New state    474 was old state    472
 New state    475 was old state    479
 New state    476 was old state    480
 New state    477 was old state    484
 New state    478 was old state    475
 New state    479 was old state    483
 New state    480 was old state    474
 New state    481 was old state    488
 New state    483 was old state    499
 New state    484 was old state    494
 New state    486 was old state    492
 New state    487 was old state    481
 New state    488 was old state    486
 New state    489 was old state    503
 New state    490 was old state    487
 New state    492 was old state    489
 New state    493 was old state    497
 New state    494 was old state    495
 New state    495 was old state    507
 New state    496 was old state    493
 New state    497 was old state    505
 New state    498 was old state    500
 New state    499 was old state    490
 New state    500 was old state    498
 New state    501 was old state    516
 New state    502 was old state    496
 New state    503 was old state    504
 New state    504 was old state    501
 New state    505 was old state    514
 New state    506 was old state    509
 New state    507 was old state    518
 New state    509 was old state    502
 New state    510 was old state    512
 New state    512 was old state    519
 New state    513 was old state    506
 New state    514 was old state    513
 New state    516 was old state    527
 New state    517 was old state    523
 New state    518 was old state    520
 New state    519 was old state    534
 New state    520 was old state    521
 New state    521 was old state    522
 New state    522 was old state    526
 New state    523 was old state    531
 New state    524 was old state    532
 New state    525 was old state    517
 New state    526 was old state    533
 New state    527 was old state    525
 New state    528 was old state    536
 New state    529 was old state    524
 New state    531 was old state    537
 New state    532 was old state    538
 New state    533 was old state    535
 New state    534 was old state    539
 New state    535 was old state    529
 New state    536 was old state    540
 New state    537 was old state    528
 New state    538 was old state    544
 New state    539 was old state    548
 New state    540 was old state    542
 New state    541 was old state    551
 New state    542 was old state    541
 New state    543 was old state    549
 New state    544 was old state    546
 New state    545 was old state    547
 New state    546 was old state    545
 New state    547 was old state    543
 New state    548 was old state    556
 New state    549 was old state    555
 New state    551 was old state    552
 New state    552 was old state    554
 New state    553 was old state    561
 New state    554 was old state    553
 New state    555 was old state    557
 New state    556 was old state    559
 New state    557 was old state    558
 New state    558 was old state    564
 New state    559 was old state    566
 New state    561 was old state    562
 New state    562 was old state    563
 New state    563 was old state    565
 New state    564 was old state    568
 New state    565 was old state    572
 New state    566 was old state    567
 New state    567 was old state    569
 New state    568 was old state    570
 New state    569 was old state    573
 New state    570 was old state    571
 New state    571 was old state    574
 New state    572 was old state    579
 New state    573 was old state    577
 New state    574 was old state    575
 New state    575 was old state    582
 New state    576 was old state    578
 New state    577 was old state    576
 New state    578 was old state    584
 New state    579 was old state    580
 New state    580 was old state    587
 New state    582 was old state    583
 New state    583 was old state    586
 New state    584 was old state    585
 New state    585 was old state    591
 New state    586 was old state    592
 New state    587 was old state    588
 New state    588 was old state    589
 New state    589 was old state    590
 New state    590 was old state    593
 New state    591 was old state    596
 New state    592 was old state    597
 New state    593 was old state    598
 New state    594 was old state    595
 New state    595 was old state    594
 New state    596 was old state    602
 New state    597 was old state    599
 New state    598 was old state    601
 New state    599 was old state    600
 New state    600 was old state    614
 New state    601 was old state    608
 New state    602 was old state    604
 New state    603 was old state    607
 New state    604 was old state    606
 New state    605 was old state    603
 New state    606 was old state    605
 New state    607 was old state    610
 New state    608 was old state    611
 New state    609 was old state    619
 New state    610 was old state    613
 New state    611 was old state    612
 New state    612 was old state    609
 New state    613 was old state    616
 New state    614 was old state    618
 No map to state    615
 New state    616 was old state    617
 New state    617 was old state    615
 No map to state    618
 New state    619 was old state    620
 New state    620 was old state    621
 New state    621 was old state    623
 New state    623 was old state    627
 New state    624 was old state    625
 New state    625 was old state    624
 New state    626 was old state    632
 New state    627 was old state    626
 New state    628 was old state    631
 New state    629 was old state    630
 New state    630 was old state    629
 New state    631 was old state    633
 New state    632 was old state    628
 New state    633 was old state    637
 New state    635 was old state    636
 New state    636 was old state    640
 New state    637 was old state    638
 New state    638 was old state    635
 New state    639 was old state    646
 New state    640 was old state    645
 New state    641 was old state    639
 New state    642 was old state    643
 New state    643 was old state    641
 New state    644 was old state    642
 New state    645 was old state    648
 New state    646 was old state    650
 New state    648 was old state    652
 New state    649 was old state    651
 New state    650 was old state    649
 New state    651 was old state    653
 New state    652 was old state    656
 New state    653 was old state    644
 New state    654 was old state    655
 New state    655 was old state    658
 New state    656 was old state    654
 New state    658 was old state    661
 New state    659 was old state    662
 New state    660 was old state    663
 New state    661 was old state    659
 New state    662 was old state    660
 New state    663 was old state    666
 New state    666 was old state    667
 New state    667 was old state    669
 New state    669 was old state    670
 New state    670 was old state    674
 New state    671 was old state    678
 New state    672 was old state    677
 New state    673 was old state    671
 New state    674 was old state    673
 New state    677 was old state    672
 No map to state    678
 New state    680 was old state    681
 New state    681 was old state    682
 New state    682 was old state    680
 New state    684 was old state    686
 New state    685 was old state    684
 New state    686 was old state    687
 New state    687 was old state    685
 New state    688 was old state    689
 New state    689 was old state    692
 New state    691 was old state    693
 New state    692 was old state    688
 New state    693 was old state    691
 New state    695 was old state    696
 New state    696 was old state    697
 New state    697 was old state    695
 New state    698 was old state    699
 New state    699 was old state    701
 New state    700 was old state    698
 New state    701 was old state    703
 New state    703 was old state    705
 New state    705 was old state    706
 New state    706 was old state    707
 New state    707 was old state    700
 New state    710 was old state    712
 New state    711 was old state    710
 New state    712 was old state    714
 New state    713 was old state    711
 New state    714 was old state    715
 New state    715 was old state    713
 New state    716 was old state    718
 New state    718 was old state    721
 New state    720 was old state    723
 New state    721 was old state    716
 New state    722 was old state    720
 New state    723 was old state    722
 New state    726 was old state    727
 New state    727 was old state    726
 New state    729 was old state    731
 New state    731 was old state    734
 New state    732 was old state    729
 New state    733 was old state    732
 New state    734 was old state    733
 New state    735 was old state    738
 New state    736 was old state    735
 New state    737 was old state    740
 New state    738 was old state    736
 New state    739 was old state    737
 New state    740 was old state    741
 New state    741 was old state    745
 New state    744 was old state    746
 New state    745 was old state    748
 New state    746 was old state    739
 New state    748 was old state    750
 New state    750 was old state    754
 New state    752 was old state    753
 New state    753 was old state    752
 New state    754 was old state    755
 New state    755 was old state    758
 New state    757 was old state    760
 New state    758 was old state    767
 New state    759 was old state    757
 New state    760 was old state    761
 New state    761 was old state    762
 New state    762 was old state    763
 New state    763 was old state    759
 New state    765 was old state    766
 New state    766 was old state    765
 New state    767 was old state    772
 New state    769 was old state    770
 New state    770 was old state    769
 New state    771 was old state    773
 New state    772 was old state    771
 New state    773 was old state    774
 New state    774 was old state    784
 New state    775 was old state    776
 New state    776 was old state    781
 New state    778 was old state    779
 New state    779 was old state    785
 New state    780 was old state    775
 New state    781 was old state    778
 New state    782 was old state    783
 New state    783 was old state    780
 New state    784 was old state    782
 New state    785 was old state    799
 New state    787 was old state    788
 New state    788 was old state    789
 New state    789 was old state    790
 New state    790 was old state    792
 New state    792 was old state    794
 New state    793 was old state    795
 New state    794 was old state    793
 New state    795 was old state    787
 New state    797 was old state    798
 New state    798 was old state    800
 New state    799 was old state    797
 New state    800 was old state    802
 New state    802 was old state    803
 New state    803 was old state    805
 New state    804 was old state    806
 New state    805 was old state    804
 New state    806 was old state    811
 New state    807 was old state    810
 New state    810 was old state    817
 New state    811 was old state    812
 New state    812 was old state    814
 New state    813 was old state    815
 New state    814 was old state    816
 New state    815 was old state    813
 New state    816 was old state    818
 New state    817 was old state    807
 New state    818 was old state    819
 New state    819 was old state    831
 New state    820 was old state    821
 New state    821 was old state    820
 New state    825 was old state    827
 New state    827 was old state    825
 New state    828 was old state    832
 New state    829 was old state    828
 New state    831 was old state    829
 New state    832 was old state    833
 New state    833 was old state    834
 New state    834 was old state    835
 New state    835 was old state    841
 New state    836 was old state    837
 New state    837 was old state    836
 New state    839 was old state    840
 New state    840 was old state    839
 New state    841 was old state    842
 New state    842 was old state    846
 New state    843 was old state    844
 New state    844 was old state    845
 New state    845 was old state    850
 New state    846 was old state    843
 New state    847 was old state    848
 New state    848 was old state    849
 New state    849 was old state    847
 New state    850 was old state    857
 New state    851 was old state    855
 New state    852 was old state    853
 New state    853 was old state    851
 New state    854 was old state    852
 New state    855 was old state    856
 New state    856 was old state    859
 New state    857 was old state    854
 New state    858 was old state    860
 New state    859 was old state    858
 New state    860 was old state    863
 New state    863 was old state    864
 New state    864 was old state    865
 New state    865 was old state    866
 New state    866 was old state    867
 New state    867 was old state    869
 New state    868 was old state    870
 New state    869 was old state    872
 New state    870 was old state    875
 New state    871 was old state    868
 New state    872 was old state    873
 New state    873 was old state    874
 New state    874 was old state    871
 New state    875 was old state    879
 New state    878 was old state    880
 New state    879 was old state    878
 New state    880 was old state    884
 New state    882 was old state    883
 New state    883 was old state    882
 New state    884 was old state    887
 New state    885 was old state    889
 New state    886 was old state    885
 New state    887 was old state    886
 New state    888 was old state    890
 New state    889 was old state    888
 New state    890 was old state    891
 New state    891 was old state    893
 New state    893 was old state    894
 New state    894 was old state    898
 New state    898 was old state    899
 New state    899 was old state    909
 New state    901 was old state    902
 New state    902 was old state    903
 New state    903 was old state    904
 New state    904 was old state    901
 New state    907 was old state    911
 New state    908 was old state    907
 New state    909 was old state    908
 New state    910 was old state    914
 New state    911 was old state    912
 New state    912 was old state    910
 New state    913 was old state    919
 New state    914 was old state    913
 New state    915 was old state    916
 New state    916 was old state    915
 New state    917 was old state    918
 New state    918 was old state    920
 New state    919 was old state    921
 New state    920 was old state    917
 No map to state    921
 New state    925 was old state    927
 New state    927 was old state    925
 New state    931 was old state    932
 New state    932 was old state    931
 New state    933 was old state    935
 New state    935 was old state    933
 New state    937 was old state    940
 New state    938 was old state    939
 New state    939 was old state    937
 New state    940 was old state    938
 New state    947 was old state    949
 New state    948 was old state    947
 New state    949 was old state    951
 New state    950 was old state    948
 New state    951 was old state    950
 New state    953 was old state    956
 New state    955 was old state    957
 New state    956 was old state    958
 New state    957 was old state    955
 New state    958 was old state    959
 New state    959 was old state    961
 New state    960 was old state    953
 New state    961 was old state    960
 New state    962 was old state    964
 New state    963 was old state    962
 New state    964 was old state    965
 New state    965 was old state    963
 New state    968 was old state    969
 New state    969 was old state    971
 New state    970 was old state    968
 New state    971 was old state    970
 New state    972 was old state    973
 New state    973 was old state    972
 New state    974 was old state    977
 New state    977 was old state    974
 New state    979 was old state    980
 New state    980 was old state    979
 New state    981 was old state    982
 New state    982 was old state    981
 New state    983 was old state    984
 New state    984 was old state    983
 New state    985 was old state    986
 New state    986 was old state    985
 New state    987 was old state    990
 New state    988 was old state    987
 New state    989 was old state    988
 New state    990 was old state    989
 New state    992 was old state    993
 New state    993 was old state    995
 New state    994 was old state    992
 New state    995 was old state    994
 New state    998 was old state    999
 New state    999 was old state    998
 New state   1000 was old state   1004
 New state   1001 was old state   1000
 New state   1002 was old state   1001
 New state   1004 was old state   1002
 New state   1006 was old state   1009
 New state   1007 was old state   1006
 New state   1008 was old state   1007
 New state   1009 was old state   1008
 New state   1012 was old state   1013
 New state   1013 was old state   1012
 New state   1015 was old state   1016
 New state   1016 was old state   1015
 New state   1017 was old state   1018
 New state   1018 was old state   1019
 New state   1019 was old state   1017
 New state   1024 was old state   1025
 New state   1025 was old state   1024
 Excitation Energies [eV] at current iteration:
 Root      1 :     6.597470239725139
 Root      2 :     7.883361487619619
 Root      3 :     7.902337808372496
 Root      4 :     8.631722671547552
 Root      5 :     9.151266832293837
 Root      6 :     9.556653733073428
 Root      7 :     9.587684824925709
 Root      8 :     9.992254099807639
 Root      9 :    10.118128547878050
 Root     10 :    10.193271947394570
 Root     11 :    10.300702143230100
 Root     12 :    10.454876498184620
 Root     13 :    10.725724602981200
 Root     14 :    10.839813022595270
 Root     15 :    10.887078752774910
 Root     16 :    11.018876370364750
 Root     17 :    11.173424566984670
 Root     18 :    11.211663402140610
 Root     19 :    11.278030650435910
 Root     20 :    11.375921573400440
 Root     21 :    11.474645634354750
 Root     22 :    11.624995268993210
 Root     23 :    11.716414389568330
 Root     24 :    11.912546929789640
 Root     25 :    11.933817290831220
 Root     26 :    12.020473919159310
 Root     27 :    12.111045565624310
 Root     28 :    12.190451908796150
 Root     29 :    12.278034611813970
 Root     30 :    12.301764634358260
 Root     31 :    12.364837982934210
 Root     32 :    12.512336810373470
 Root     33 :    12.544772977974710
 Root     34 :    12.635977095902850
 Root     35 :    12.777154362026250
 Root     36 :    12.878173419416670
 Root     37 :    12.942265076531960
 Root     38 :    12.986623525398790
 Root     39 :    13.058766427473410
 Root     40 :    13.127759909341110
 Root     41 :    13.205596438236470
 Root     42 :    13.214494445060980
 Root     43 :    13.243485647267640
 Root     44 :    13.305012210949750
 Root     45 :    13.360463504594580
 Root     46 :    13.499884787655880
 Root     47 :    13.639575335230670
 Root     48 :    13.761490473599340
 Root     49 :    13.823352662343080
 Root     50 :    13.849500720228250
 Root     51 :    13.913118556577650
 Root     52 :    13.946116544035760
 Root     53 :    13.984758126004250
 Root     54 :    14.039500516631720
 Root     55 :    14.140812020143640
 Root     56 :    14.201329622467830
 Root     57 :    14.233965970278630
 Root     58 :    14.300930084661000
 Root     59 :    14.374800688402220
 Root     60 :    14.417079106301710
 Root     61 :    14.487776844008660
 Root     62 :    14.554481801061190
 Root     63 :    14.639281352498140
 Root     64 :    14.743273727342800
 Root     65 :    14.762654951864880
 Root     66 :    14.845362595592580
 Root     67 :    14.869464234315200
 Root     68 :    14.912509369284490
 Root     69 :    14.944264264096160
 Root     70 :    14.970294246299050
 Root     71 :    15.028050999730810
 Root     72 :    15.079371856612640
 Root     73 :    15.114443160980670
 Root     74 :    15.151485824412430
 Root     75 :    15.244591109135770
 Root     76 :    15.329043452793330
 Root     77 :    15.400290506667980
 Root     78 :    15.433516118313410
 Root     79 :    15.462078217176120
 Root     80 :    15.518464328273720
 Root     81 :    15.629521173240270
 Root     82 :    15.732460375791870
 Root     83 :    15.743854442146160
 Root     84 :    15.844138604255450
 Root     85 :    15.869047626404100
 Root     86 :    15.898806919595660
 Root     87 :    15.934929920652070
 Root     88 :    15.940483598027490
 Root     89 :    16.004839537834510
 Root     90 :    16.055532335628860
 Root     91 :    16.130289067200180
 Root     92 :    16.185727759419680
 Root     93 :    16.235507299190060
 Root     94 :    16.335853378651650
 Root     95 :    16.368169487019720
 Root     96 :    16.421762420300350
 Root     97 :    16.451043414489800
 Root     98 :    16.511931037438140
 Root     99 :    16.548760571322190
 Root    100 :    16.612043993122430
 Root    101 :    16.690868954334480
 Root    102 :    16.714311018274230
 Root    103 :    16.801505756936980
 Root    104 :    16.867254365864660
 Root    105 :    16.877596594013950
 Root    106 :    16.893334702036920
 Root    107 :    16.976013705338880
 Root    108 :    17.008604818649100
 Root    109 :    17.020059355133250
 Root    110 :    17.093387019759650
 Root    111 :    17.114748320827080
 Root    112 :    17.144711134751140
 Root    113 :    17.200856327320230
 Root    114 :    17.249365573799990
 Root    115 :    17.305795472457810
 Root    116 :    17.313283025288770
 Root    117 :    17.378043270154310
 Root    118 :    17.551482226230010
 Root    119 :    17.583465509175780
 Root    120 :    17.614773502187230
 Root    121 :    17.632631506870090
 Root    122 :    17.693759926577360
 Root    123 :    17.749437558589670
 Root    124 :    17.777948238580170
 Root    125 :    17.830362870636080
 Root    126 :    17.853153118005850
 Root    127 :    17.934759942190560
 Root    128 :    17.954079366783460
 Root    129 :    18.030996329538660
 Root    130 :    18.055327265116530
 Root    131 :    18.096809493165370
 Root    132 :    18.138022302939170
 Root    133 :    18.183684563729250
 Root    134 :    18.192577704982110
 Root    135 :    18.235751051332690
 Root    136 :    18.297885211041350
 Root    137 :    18.316079028918590
 Root    138 :    18.371839630980120
 Root    139 :    18.382754490999030
 Root    140 :    18.434816799741500
 Root    141 :    18.486654037124090
 Root    142 :    18.547708841753170
 Root    143 :    18.602146076972930
 Root    144 :    18.635704622180800
 Root    145 :    18.690887058021150
 Root    146 :    18.756078118244660
 Root    147 :    18.811870071278400
 Root    148 :    18.848151393021510
 Root    149 :    18.882235503019890
 Root    150 :    18.891258849115160
 Root    151 :    18.932533118208950
 Root    152 :    18.974141648428820
 Root    153 :    19.022846033950940
 Root    154 :    19.029659104618900
 Root    155 :    19.069606871065640
 Root    156 :    19.093524970685720
 Root    157 :    19.133416295936250
 Root    158 :    19.183956923347430
 Root    159 :    19.226280190453450
 Root    160 :    19.274127599778820
 Root    161 :    19.321033904598970
 Root    162 :    19.348417456154980
 Root    163 :    19.397538768101220
 Root    164 :    19.405402771953540
 Root    165 :    19.445261766487940
 Root    166 :    19.486920555675160
 Root    167 :    19.497850140017930
 Root    168 :    19.575543311722420
 Root    169 :    19.620082828151040
 Root    170 :    19.654635665515160
 Root    171 :    19.692373959811760
 Root    172 :    19.707791312315030
 Root    173 :    19.772501604945910
 Root    174 :    19.821956443999270
 Root    175 :    19.827982901462360
 Root    176 :    19.892192800724350
 Root    177 :    19.900868083094790
 Root    178 :    19.941424570477470
 Root    179 :    19.970143651090910
 Root    180 :    20.000892783578880
 Root    181 :    20.072135495116960
 Root    182 :    20.088779264216540
 Root    183 :    20.129572681526050
 Root    184 :    20.222959296489000
 Root    185 :    20.293569878473980
 Root    186 :    20.331395089667940
 Root    187 :    20.428200156449600
 Root    188 :    20.462008308272580
 Root    189 :    20.472480661766930
 Root    190 :    20.512112250874500
 Root    191 :    20.611405928495470
 Root    192 :    20.628444970453520
 Root    193 :    20.664073892015610
 Root    194 :    20.674422691430980
 Root    195 :    20.757952310521770
 Root    196 :    20.788937700801070
 Root    197 :    20.820241993578120
 Root    198 :    20.834938263765840
 Root    199 :    20.854431189959630
 Root    200 :    20.916194376837420
 Root    201 :    20.925840098032290
 Root    202 :    20.962389221032740
 Root    203 :    20.974253291320520
 Root    204 :    21.010269734031620
 Root    205 :    21.039962345252000
 Root    206 :    21.065087489695240
 Root    207 :    21.109866903409460
 Root    208 :    21.153790553472920
 Root    209 :    21.219823176301550
 Root    210 :    21.231375562689440
 Root    211 :    21.294285113118360
 Root    212 :    21.372749147911000
 Root    213 :    21.448514826005720
 Root    214 :    21.461376068059480
 Root    215 :    21.497692416302990
 Root    216 :    21.521759962345290
 Root    217 :    21.544283175839060
 Root    218 :    21.566651699275850
 Root    219 :    21.570996678879880
 Root    220 :    21.608342823297670
 Root    221 :    21.652094772839600
 Root    222 :    21.667079175873300
 Root    223 :    21.689888220680140
 Root    224 :    21.786367722877830
 Root    225 :    21.822390879571720
 Root    226 :    21.854554414653950
 Root    227 :    21.868340794972070
 Root    228 :    21.932344197250130
 Root    229 :    22.023792048489000
 Root    230 :    22.089758978893980
 Root    231 :    22.134347052364660
 Root    232 :    22.160153514511740
 Root    233 :    22.184973371911050
 Root    234 :    22.219401217691570
 Root    235 :    22.255828733270060
 Root    236 :    22.279998517369520
 Root    237 :    22.287805913243040
 Root    238 :    22.351678899807760
 Root    239 :    22.382362877208710
 Root    240 :    22.430243229317790
 Root    241 :    22.441893785416400
 Root    242 :    22.477414313696040
 Root    243 :    22.513220225439040
 Root    244 :    22.553980649530020
 Root    245 :    22.591653483510870
 Root    246 :    22.641136379259990
 Root    247 :    22.652914426372060
 Root    248 :    22.728639750050520
 Root    249 :    22.781826928561160
 Root    250 :    22.794097366518010
 Root    251 :    22.842566058411520
 Root    252 :    22.883095245973650
 Root    253 :    22.932975649885370
 Root    254 :    22.947747857278430
 Root    255 :    22.961121329047390
 Root    256 :    23.003924326973700
 Root    257 :    23.042937641232470
 Root    258 :    23.092011742157550
 Root    259 :    23.142629185300840
 Root    260 :    23.161918437489680
 Root    261 :    23.209925780207860
 Root    262 :    23.278729038031280
 Root    263 :    23.308708643939770
 Root    264 :    23.319992086145700
 Root    265 :    23.338802754418470
 Root    266 :    23.383000902514090
 Root    267 :    23.443431125167550
 Root    268 :    23.481233678044130
 Root    269 :    23.530601549990460
 Root    270 :    23.535590809740580
 Root    271 :    23.581906906324920
 Root    272 :    23.624690519388350
 Root    273 :    23.677668817014330
 Root    274 :    23.704596905382840
 Root    275 :    23.721907249957490
 Root    276 :    23.804966199556520
 Root    277 :    23.824895021404910
 Root    278 :    23.851221591482760
 Root    279 :    23.893054765013190
 Root    280 :    24.003608163312450
 Root    281 :    24.041661919563210
 Root    282 :    24.059802658214970
 Root    283 :    24.089561747441990
 Root    284 :    24.105290519223420
 Root    285 :    24.151729760614590
 Root    286 :    24.179947697593390
 Root    287 :    24.211437562145120
 Root    288 :    24.279236023273100
 Root    289 :    24.319088542370780
 Root    290 :    24.329116178196390
 Root    291 :    24.342822865300450
 Root    292 :    24.419779247104560
 Root    293 :    24.452251106585610
 Root    294 :    24.500351286677780
 Root    295 :    24.516904370811250
 Root    296 :    24.574038313174790
 Root    297 :    24.608475397086600
 Root    298 :    24.623754934928310
 Root    299 :    24.643277863610140
 Root    300 :    24.704891398072580
 Root    301 :    24.739080744027750
 Root    302 :    24.771903834947930
 Root    303 :    24.812504693527080
 Root    304 :    24.892497782711520
 Root    305 :    24.897673600560010
 Root    306 :    24.934319024406450
 Root    307 :    25.017725186911850
 Root    308 :    25.099618244621730
 Root    309 :    25.148721826364540
 Root    310 :    25.193933384534620
 Root    311 :    25.228551600165850
 Root    312 :    25.288867893415980
 Root    313 :    25.311077204380580
 Root    314 :    25.371517138039030
 Root    315 :    25.383358783330100
 Root    316 :    25.451508925025890
 Root    317 :    25.503471956719300
 Root    318 :    25.563776502814290
 Root    319 :    25.629586362484410
 Root    320 :    25.672264602355770
 Root    321 :    25.701235950129060
 Root    322 :    25.724622640335480
 Root    323 :    25.750428398566900
 Root    324 :    25.788925007812760
 Root    325 :    25.851358437577190
 Root    326 :    25.936379401277000
 Root    327 :    25.938020623580650
 Root    328 :    25.989386152909520
 Root    329 :    26.035915999568540
 Root    330 :    26.063301459748280
 Root    331 :    26.090396496198410
 Root    332 :    26.161353515039740
 Root    333 :    26.196539400334730
 Root    334 :    26.227216608348300
 Root    335 :    26.266135892649070
 Root    336 :    26.288875586950490
 Root    337 :    26.344463381820770
 Root    338 :    26.361709113308450
 Root    339 :    26.394885356434350
 Root    340 :    26.444021860793610
 Root    341 :    26.490004940864000
 Root    342 :    26.535930117690470
 Root    343 :    26.585634244871050
 Root    344 :    26.669917655476670
 Root    345 :    26.756086919120430
 Root    346 :    26.790605135049220
 Root    347 :    26.842735629500690
 Root    348 :    26.896752769760330
 Root    349 :    26.963308503494220
 Root    350 :    26.996836439241080
 Root    351 :    27.019672173519120
 Root    352 :    27.043257035932870
 Root    353 :    27.172035657130150
 Root    354 :    27.268751621580510
 Root    355 :    27.303537539621160
 Root    356 :    27.348380544064290
 Root    357 :    27.364610010423100
 Root    358 :    27.406823979663390
 Root    359 :    27.441816895902200
 Root    360 :    27.493766044542710
 Root    361 :    27.531018255938500
 Root    362 :    27.558974416552830
 Root    363 :    27.618335683015940
 Root    364 :    27.688530553743550
 Root    365 :    27.722091041399800
 Root    366 :    27.783170927753500
 Root    367 :    27.849607038416710
 Root    368 :    27.895452969525920
 Root    369 :    27.922039785016540
 Root    370 :    27.944199047990790
 Root    371 :    28.084377154970620
 Root    372 :    28.133623342100590
 Root    373 :    28.186587233484970
 Root    374 :    28.276691904832180
 Root    375 :    28.380134891987640
 Root    376 :    28.458081872025910
 Root    377 :    28.513322306227690
 Root    378 :    28.526098984579360
 Root    379 :    28.589444587523460
 Root    380 :    28.626052124655040
 Root    381 :    28.682701436303730
 Root    382 :    28.713470632687050
 Root    383 :    28.809358942549160
 Root    384 :    28.862169613636120
 Root    385 :    28.919236316614770
 Root    386 :    28.987859108293280
 Root    387 :    29.031103255041420
 Root    388 :    29.074870514759550
 Root    389 :    29.095799878144230
 Root    390 :    29.137456986957840
 Root    391 :    29.195429683150260
 Root    392 :    29.252715126303880
 Root    393 :    29.319350812635370
 Root    394 :    29.432321783163770
 Root    395 :    29.495551621030830
 Root    396 :    29.540078319141090
 Root    397 :    29.559539393989630
 Root    398 :    29.596417617791030
 Root    399 :    29.673468990066630
 Root    400 :    29.684718244117280
 Root    401 :    29.752204603902260
 Root    402 :    29.786121785308870
 Root    403 :    29.867163952312930
 Root    404 :    29.911843615411660
 Root    405 :    29.966629085855100
 Root    406 :    30.038421222239390
 Root    407 :    30.155659272026090
 Root    408 :    30.191452687417420
 Root    409 :    30.238759292054220
 Root    410 :    30.275780728508320
 Root    411 :    30.309968311630480
 Root    412 :    30.399310278939670
 Root    413 :    30.510674135837950
 Root    414 :    30.531471503627760
 Root    415 :    30.657821608296570
 Root    416 :    30.734036960960080
 Root    417 :    30.825569435625070
 Root    418 :    30.916465196995720
 Root    419 :    30.942555303341940
 Root    420 :    31.134375088400190
 Root    421 :    31.191015401824740
 Root    422 :    31.257211860815940
 Root    423 :    31.324350066393970
 Root    424 :    31.388172139502510
 Root    425 :    31.463508229144170
 Root    426 :    31.528524061945610
 Root    427 :    31.556592610375060
 Root    428 :    31.662705154850410
 Root    429 :    31.731156169160720
 Root    430 :    31.832919952433250
 Root    431 :    31.935094864369360
 Root    432 :    31.979800353244110
 Root    433 :    32.010520594068150
 Root    434 :    32.128344901771970
 Root    435 :    32.217084209488770
 Root    436 :    32.314728898270080
 Root    437 :    32.412414998992500
 Root    438 :    32.446188624606640
 Root    439 :    32.518540697066960
 Root    440 :    32.580218183101860
 Root    441 :    32.632577977821940
 Root    442 :    32.740158471142460
 Root    443 :    32.800876933377770
 Root    444 :    32.945259891985480
 Root    445 :    32.973624165158450
 Root    446 :    33.038040639491780
 Root    447 :    33.072688520618300
 Root    448 :    33.274077220235730
 Root    449 :    33.309041981291140
 Root    450 :    33.354652615081650
 Root    451 :    33.388681432516880
 Root    452 :    33.478306486234300
 Root    453 :    33.549052960515270
 Root    454 :    33.566412912583140
 Root    455 :    33.660862817181700
 Root    456 :    33.686043834493720
 Root    457 :    33.723183940739770
 Root    458 :    33.769222763378840
 Root    459 :    33.786048549667900
 Root    460 :    33.908269138297360
 Root    461 :    33.994698094495040
 Root    462 :    34.104892832448650
 Root    463 :    34.192934029695880
 Root    464 :    34.230844017897680
 Root    465 :    34.258515122680020
 Root    466 :    34.324486094194720
 Root    467 :    34.446235769578120
 Root    468 :    34.526171867770400
 Root    469 :    34.572622336484090
 Root    470 :    34.726467599606380
 Root    471 :    34.743751122009360
 Root    472 :    34.796530735904400
 Root    473 :    34.826632920297140
 Root    474 :    34.870654270604450
 Root    475 :    34.935600534007830
 Root    476 :    35.092554791579510
 Root    477 :    35.156763758636440
 Root    478 :    35.217315858313360
 Root    479 :    35.304703315853420
[...]
     15  -0.543624D+00  0.118123D+00 -0.224240D-01 -0.618336D+00  0.633469D-01
     16  -0.140760D+00  0.815071D-01 -0.294498D-01  0.133330D+00 -0.893392D-02
               961           962           963           964           965 
      1  -0.131677D+03 -0.131661D+03 -0.131654D+03 -0.131650D+03 -0.131647D+03
      2  -0.468771D-01 -0.525164D-01  0.660660D-02 -0.129332D-01 -0.334859D-01
      3  -0.101654D-01 -0.240901D-01  0.194653D-03  0.225400D-01 -0.170457D-02
      4  -0.245519D-01  0.165113D-01  0.833827D-02  0.207717D-03 -0.137085D-01
      5   0.148251D+00  0.159553D+00 -0.791213D-02  0.271256D-01  0.111159D+00
      6   0.389055D-01  0.773192D-01 -0.647548D-02 -0.725517D-01  0.340794D-02
      7   0.637276D-01 -0.431993D-01 -0.281733D-01 -0.351828D-02  0.360872D-01
      8   0.141748D-02 -0.162073D+00  0.392455D-01  0.293623D-01  0.528917D-01
      9  -0.200086D+00  0.461539D-01  0.775821D-01 -0.359922D-01  0.206516D+00
     10  -0.567031D-01 -0.586600D+00  0.598556D-01 -0.286567D+00  0.332811D-01
     11   0.267655D+00 -0.664936D+00  0.515915D-01  0.105533D+00  0.582502D+00
     12  -0.329494D+00 -0.468109D-01  0.699010D-01  0.253663D+00  0.210608D+00
     13   0.104645D-01 -0.652958D-01  0.585976D-01  0.137335D+00  0.629704D-01
     14  -0.226157D-01 -0.349050D+00 -0.120893D+00 -0.251700D+00 -0.109740D+00
     15   0.185622D+00 -0.125633D-01 -0.127065D+00 -0.588572D-01 -0.317608D+00
     16  -0.106850D+00 -0.119547D+00  0.599480D-01  0.135607D+00  0.103005D+00
               966           967           968           969           970 
      1  -0.131642D+03 -0.131638D+03 -0.131632D+03 -0.131628D+03 -0.131621D+03
      2  -0.925157D-01 -0.590109D-01  0.573883D-01 -0.500538D-01  0.357227D-01
      3  -0.292992D-02  0.258437D-01 -0.752422D-01 -0.738567D-01 -0.366682D-01
      4  -0.246651D-01 -0.287982D-01 -0.102056D-01  0.839386D-02  0.307184D-01
      5   0.283030D+00  0.187905D+00 -0.160682D+00  0.143297D+00 -0.110160D+00
      6  -0.749886D-03 -0.755205D-01  0.222458D+00  0.212875D+00  0.114461D+00
      7   0.772021D-01  0.801196D-01  0.300220D-01 -0.136459D-01 -0.930584D-01
      8  -0.914564D-01 -0.126667D+00 -0.148391D-01 -0.595390D-01 -0.415232D-01
      9  -0.104935D+00  0.131189D+00 -0.106134D+00 -0.327785D+00  0.378085D+00
     10   0.185797D+00 -0.287176D+00 -0.244120D+00  0.281134D-01 -0.499250D-01
     11   0.581397D+00 -0.516642D-01  0.607800D+00 -0.495069D+00 -0.416712D+00
     12  -0.501596D-01  0.331459D-01  0.180123D+00  0.256468D+00  0.143813D+00
     13  -0.102440D+00  0.398009D-01 -0.540871D-01 -0.171157D+00  0.552172D-01
     14   0.191038D+00 -0.227472D+00  0.163974D+00 -0.138033D+00 -0.952094D-01
     15   0.431911D-01 -0.195564D+00  0.855738D-01  0.400756D+00 -0.353563D+00
     16  -0.857154D-01 -0.311000D-01 -0.562052D-01 -0.739583D-01  0.891384D-01
               971           972           973           974           975 
      1  -0.131612D+03 -0.131600D+03 -0.131593D+03 -0.131586D+03 -0.131583D+03
      2   0.225147D-01 -0.318918D-01  0.510571D-01  0.168690D-01 -0.346145D-01
      3   0.292358D-01  0.753291D-01 -0.378832D-01  0.503004D-01  0.102352D-03
      4  -0.215777D-01  0.181160D-01  0.408798D-01  0.336386D-02  0.961324D-02
      5  -0.714467D-01  0.101409D+00 -0.151203D+00 -0.521942D-01  0.106772D+00
      6  -0.773921D-01 -0.211897D+00  0.115315D+00 -0.154308D+00  0.117377D-01
      7   0.662088D-01 -0.537463D-01 -0.124437D+00 -0.732469D-02 -0.353486D-01
      8   0.582803D-01 -0.738222D-01  0.284079D-01 -0.680721D-01  0.533003D-01
      9   0.973542D-01 -0.294414D+00 -0.299632D+00 -0.947394D-01 -0.243615D+00
     10   0.259400D+00  0.320848D+00 -0.415288D-01 -0.126612D+00  0.209501D+00
     11   0.257340D+00 -0.122241D+00  0.747191D+00  0.136904D+00 -0.613569D+00
     12   0.249588D-01  0.145635D+00 -0.125544D+00  0.102878D+00 -0.712279D-01
     13   0.233735D-01 -0.934450D-01  0.117794D-01 -0.193819D-01  0.673181D-02
     14   0.124283D+00  0.320075D+00  0.472347D-02 -0.219704D-01  0.487546D-01
     15  -0.344119D-03  0.186777D+00  0.349904D+00  0.193007D+00  0.314380D+00
     16   0.540795D-01 -0.699797D-01 -0.377721D-01  0.100001D-02  0.547001D-01
               976           977           978           979           980 
      1  -0.131575D+03 -0.131566D+03 -0.131563D+03 -0.131557D+03 -0.131547D+03
      2   0.195073D-03  0.246796D-02 -0.196513D-02  0.146919D-02  0.888842D-02
      3  -0.247517D-01  0.462658D-02  0.303655D-01  0.429011D-01 -0.450281D-01
      4  -0.141351D-02 -0.129429D-01 -0.819366D-01  0.293418D-01  0.155430D-01
      5  -0.135274D-02 -0.104823D-01  0.146584D-01 -0.170797D-02 -0.383390D-01
      6   0.770590D-01 -0.805100D-02 -0.996266D-01 -0.128350D+00  0.139749D+00
      7  -0.149400D-02  0.432900D-01  0.241894D+00 -0.808241D-01 -0.363284D-01
      8   0.266299D-01  0.140492D-01  0.629506D-01 -0.803953D-01 -0.120696D+00
      9   0.251113D+00  0.690309D-01  0.930527D-01 -0.101328D+00 -0.227554D+00
     10  -0.232336D+00  0.119510D+00  0.912775D-01  0.295957D+00  0.757592D-01
     11   0.159034D+00 -0.951617D-01 -0.718483D-01  0.888972D-01 -0.713430D-01
     12  -0.634954D-01 -0.714831D-02 -0.124401D+00 -0.379553D+00  0.230695D-01
     13   0.167816D+00 -0.842021D-01 -0.124077D-02 -0.168152D-01 -0.855114D-01
     14  -0.150063D+00  0.195896D+00  0.269261D-01  0.161012D+00 -0.500931D-02
     15  -0.235657D+00 -0.100980D-01 -0.519204D-01  0.369422D-01  0.226784D+00
     16   0.280488D-01 -0.162746D-01  0.114507D-01 -0.182066D+00 -0.195429D+00
               981           982           983           984           985 
      1  -0.131538D+03 -0.131529D+03 -0.131527D+03 -0.131524D+03 -0.131520D+03
      2   0.194572D-01 -0.965488D-02  0.889044D-03 -0.851872D-03 -0.481500D-01
      3  -0.246432D-02  0.120391D-01 -0.796029D-02  0.149307D-01 -0.377385D-02
      4   0.394783D-01 -0.283953D-01 -0.316300D-01  0.168716D-01  0.351719D-01
      5  -0.570988D-01  0.320092D-01  0.176045D-02  0.169974D-01  0.137058D+00
      6   0.594996D-02 -0.270335D-01  0.167155D-01 -0.461997D-01 -0.232868D-02
      7  -0.112343D+00  0.832042D-01  0.855470D-01 -0.647638D-01 -0.969634D-01
      8  -0.101617D-01  0.798340D-01 -0.316060D-01  0.288426D-01  0.434565D-01
      9   0.541947D-01  0.661702D-01 -0.114229D+00 -0.134874D+00 -0.861554D-01
     10   0.190961D+00 -0.380902D-01  0.417534D-01 -0.695039D-01 -0.450344D-01
     11   0.305362D+00  0.210744D+00 -0.375763D-01 -0.205887D+00 -0.620315D+00
     12   0.422291D-01  0.246149D-01 -0.976551D-01  0.705218D-01  0.597114D-01
     13  -0.483390D-01  0.394627D-01 -0.542509D-01  0.480140D-01  0.133061D+00
     14   0.197541D+00 -0.411957D-01  0.626178D-01  0.315995D-02 -0.131051D+00
     15  -0.512247D-01 -0.692677D-01  0.106508D+00  0.131546D+00  0.482843D-01
     16  -0.313148D-01  0.133999D+00 -0.112749D+00  0.985045D-01  0.525756D-01
               986           987           988           989           990 
      1  -0.131513D+03 -0.131508D+03 -0.131492D+03 -0.131486D+03 -0.131476D+03
      2   0.214215D-01 -0.123845D+00  0.318629D-01  0.167618D-01 -0.797148D-03
      3   0.814634D-02  0.788713D-01 -0.811707D-02  0.290828D-03 -0.871351D-02
      4   0.125471D-01 -0.283138D-02  0.318791D-01  0.374278D-01  0.239663D-01
      5  -0.543818D-01  0.377280D+00 -0.118802D+00 -0.453465D-01 -0.800305D-03
      6  -0.291142D-01 -0.254075D+00  0.396432D-01 -0.546543D-02  0.314687D-01
      7  -0.298620D-01  0.543342D-02 -0.904863D-01 -0.113179D+00 -0.759059D-01
      8  -0.341738D-01 -0.144402D-01 -0.109427D-02  0.524450D-01 -0.326314D-01
      9   0.135417D+00 -0.686053D-01  0.209357D+00 -0.653713D-01  0.815159D-01
     10  -0.262739D+00 -0.342045D+00  0.305687D+00  0.300906D-01  0.358078D-01
     11   0.286928D-01  0.123146D+01 -0.978334D+00  0.235983D+00 -0.539462D+00
     12   0.258772D-01  0.236496D+00 -0.102944D+00  0.148360D+00  0.123746D-01
     13   0.441995D-01  0.373894D-01 -0.542366D-01 -0.315952D-01 -0.279307D-01
     14  -0.128020D+00 -0.704867D+00  0.655579D+00 -0.122359D+00 -0.121201D+00
     15  -0.904843D-01  0.551890D-01 -0.163509D+00  0.275759D-01 -0.113189D+00
     16   0.479540D-01  0.132151D+00  0.166075D-01  0.742529D-01 -0.133039D+00
               991           992           993           994           995 
      1  -0.131474D+03 -0.131445D+03 -0.131440D+03 -0.131436D+03 -0.131434D+03
      2   0.793727D-02  0.120890D-02  0.204356D-01  0.154001D-01  0.133512D-01
      3  -0.691206D-02  0.267273D-02  0.494059D-02 -0.602502D-02 -0.377481D-01
      4  -0.274905D-02 -0.367218D-01  0.231997D-01  0.458506D-02 -0.753021D-02
      5  -0.190764D-01 -0.170097D-02 -0.490258D-01 -0.609317D-01 -0.610798D-01
      6   0.211887D-01 -0.530446D-02 -0.128576D-01  0.226655D-01  0.121006D+00
      7   0.256890D-02  0.104614D+00 -0.595988D-01 -0.383675D-02  0.169110D-01
      8   0.134205D+00 -0.758840D-02  0.174169D-01 -0.240913D-01  0.173763D+00
      9  -0.344374D-01  0.276470D+00 -0.466655D-01 -0.191968D+00  0.443718D-01
     10  -0.287606D+00  0.399444D-01  0.823336D-01 -0.386827D-01  0.156701D+00
     11  -0.237777D+00 -0.360244D+00  0.570210D-02 -0.508969D+00 -0.319765D+00
     12  -0.296230D+00 -0.574138D-01 -0.875009D-02  0.797972D-01  0.194725D+00
     13   0.254445D-01  0.116571D+00  0.140568D+00  0.201700D-01  0.249359D-01
     14  -0.406286D+00 -0.247657D+00  0.104301D-01  0.166645D+00  0.262098D+00
     15   0.147417D-01 -0.276457D+00  0.576821D-01  0.219806D+00 -0.125190D-01
     16   0.134221D+00  0.990771D-02  0.754485D-01  0.244261D-01  0.157814D+00
               996           997           998           999          1000 
      1  -0.131413D+03 -0.131395D+03 -0.131375D+03 -0.131371D+03 -0.131368D+03
      2   0.193913D-01 -0.134495D-02 -0.302305D-02 -0.387551D-01 -0.199920D-01
      3   0.740921D-03  0.920037D-02 -0.407115D-01 -0.273491D-01 -0.240481D-01
      4  -0.303456D-01 -0.124064D-01  0.370371D-01  0.322868D-01  0.167061D-01
      5  -0.595142D-01  0.865500D-02  0.274864D-02  0.131450D+00  0.746546D-01
      6  -0.123500D-01 -0.268410D-01  0.110416D+00  0.892777D-01  0.599157D-01
      7   0.814961D-01  0.297744D-01 -0.113043D+00 -0.110297D+00 -0.458918D-01
      8  -0.461548D-03  0.133080D+00  0.760665D-02 -0.166116D-01 -0.559800D-01
      9   0.147495D+00 -0.163215D-01 -0.157610D-01  0.213249D+00 -0.583090D-01
     10  -0.437247D-01 -0.109314D+00 -0.353068D+00  0.306256D+00 -0.344456D-01
     11   0.326577D+00  0.352344D-01  0.144787D+00  0.407448D+00  0.232852D+00
     12   0.279298D+00 -0.209691D+00 -0.164284D+00  0.108445D+00 -0.513248D-01
     13  -0.616554D-01  0.709153D-01  0.155273D+00  0.546815D-01  0.401944D-01
     14   0.120368D+00 -0.704463D-01 -0.122351D+00  0.114151D+00 -0.360919D-01
     15  -0.630236D-01 -0.507129D-01  0.449422D-01 -0.245912D+00  0.460520D-01
     16   0.865631D-01  0.147400D+00 -0.669480D-01  0.115921D-01  0.859600D-02
              1001          1002          1003          1004          1005 
      1  -0.131353D+03 -0.131346D+03 -0.131344D+03 -0.131330D+03 -0.131325D+03
      2  -0.274198D-02  0.438972D-01  0.128718D-01  0.672367D-01  0.347327D-01
      3  -0.128198D-02 -0.797184D-01 -0.298117D-01 -0.857136D-01  0.812682D-02
      4  -0.934606D-02 -0.394134D-01  0.616556D-02 -0.551678D-01  0.132695D-01
      5  -0.525610D-02 -0.155945D+00 -0.439718D-01 -0.254240D+00 -0.969890D-01
      6   0.610084D-02  0.261110D+00  0.102357D+00  0.293959D+00 -0.630395D-02
      7   0.212733D-01  0.130283D+00 -0.133625D-01  0.172070D+00 -0.406909D-01
      8   0.663794D-01 -0.581773D-02  0.132828D+00 -0.100435D+00  0.131878D+00
      9  -0.508535D-01  0.715747D-01 -0.349783D+00 -0.362610D+00 -0.250202D+00
     10   0.184445D+00  0.276608D+00  0.252822D+00  0.455153D+00  0.751481D-01
     11  -0.228253D+00 -0.659279D+00 -0.297419D+00 -0.754474D+00  0.693093D-01
     12   0.230770D-02 -0.154027D+00 -0.386142D-01 -0.380961D+00 -0.164448D-01
     13  -0.343801D-01 -0.120413D-01 -0.986230D-02 -0.456346D-01 -0.183182D-02
     14   0.948362D-01  0.455202D+00  0.215101D+00  0.450423D+00  0.185133D+00
     15   0.458286D-01 -0.803997D-01  0.345899D+00  0.497423D+00  0.296255D+00
     16   0.649538D-02 -0.887388D-01 -0.455482D-01 -0.173220D+00 -0.252486D-01
              1006          1007          1008          1009          1010 
      1  -0.131306D+03 -0.131293D+03 -0.131285D+03 -0.131280D+03 -0.131247D+03
      2   0.351409D-01 -0.148771D-01 -0.911949D-01 -0.864788D-02 -0.314104D-01
      3   0.921138D-01  0.151029D-01 -0.369834D-01 -0.637281D-02  0.435027D-01
      4  -0.341269D-01  0.176366D-01  0.736608D-01  0.266166D-01 -0.417717D-02
      5  -0.112497D+00  0.717030D-01  0.304041D+00  0.140675D-01  0.125358D+00
      6  -0.301432D+00 -0.376935D-01  0.113581D+00  0.871786D-02 -0.152006D+00
      7   0.114019D+00 -0.465305D-01 -0.239601D+00 -0.797249D-01  0.882608D-02
      8  -0.963857D-01 -0.828877D-01  0.152475D+00  0.342270D-01  0.333947D-01
      9  -0.223455D+00 -0.308911D-01  0.455425D+00 -0.137194D+00  0.212186D-01
     10  -0.675394D+00  0.127501D+00  0.420892D+00 -0.314808D-01 -0.108051D+00
     11  -0.344438D+00  0.577915D+00  0.113595D+01 -0.239135D+00  0.219325D+00
     12   0.427813D-01 -0.787901D-01 -0.224706D+00  0.119864D+00  0.181635D+00
     13  -0.185065D-02  0.116805D-01  0.177712D+00 -0.522882D-01 -0.120049D-01
     14  -0.478445D+00  0.118807D+00  0.116165D+00 -0.205760D+00 -0.119707D+00
     15   0.165911D+00  0.614950D-01 -0.594603D+00  0.193065D+00 -0.115087D+00
     16   0.227208D-01 -0.287152D-01  0.505454D-01  0.204277D-01  0.131244D+00
              1011          1012          1013          1014          1015 
      1  -0.131240D+03 -0.131236D+03 -0.131220D+03 -0.131172D+03 -0.131150D+03
      2   0.560020D-02  0.687889D-02  0.193509D-01  0.584641D-02  0.839217D-02
      3   0.410187D-01  0.435939D-01 -0.480590D-01 -0.100209D-01  0.314569D-01
      4  -0.399368D-01  0.298746D-01 -0.432925D-01  0.571669D-01 -0.180542D-01
      5  -0.741790D-02 -0.181726D-01 -0.441549D-01 -0.114053D-01 -0.112438D-01
      6  -0.129391D+00 -0.148539D+00  0.137655D+00  0.261677D-01 -0.888604D-01
      7   0.131267D+00 -0.988052D-01  0.129203D+00 -0.168994D+00  0.617987D-01
      8  -0.165513D+00 -0.258517D-01  0.250793D-03 -0.301023D-01  0.470154D-01
      9  -0.363909D+00  0.191955D+00 -0.251083D-01 -0.300103D+00 -0.424014D-01
     10  -0.339555D-01 -0.762653D+00 -0.173831D+00 -0.997840D-01  0.283334D-01
     11  -0.365512D+00  0.889069D-01  0.412505D+00  0.164287D+00  0.405451D-01
     12   0.250908D+00  0.368629D+00 -0.826007D-01  0.165772D-01 -0.163355D+00
     13  -0.134211D+00 -0.603300D-01  0.110113D+00 -0.672935D-02  0.399993D-01
     14  -0.104456D+00 -0.588761D+00 -0.221646D+00 -0.126021D+00 -0.306898D-01
     15   0.430605D+00 -0.173434D+00  0.461584D-01  0.274057D+00  0.187157D-01
     16  -0.191439D-01  0.341913D-01  0.228070D-01 -0.538451D-01 -0.188674D-01
              1016          1017          1018          1019          1020 
      1  -0.131147D+03 -0.131132D+03 -0.131129D+03 -0.131109D+03 -0.131104D+03
      2   0.552038D-01  0.556004D-01 -0.310113D-01 -0.251740D-01  0.393084D-02
      3  -0.108290D-01  0.480005D-01 -0.328950D-01 -0.643875D-01 -0.382156D-03
      4   0.532686D-01 -0.131357D-01 -0.323985D-01  0.451568D-01 -0.187978D-01
      5  -0.193725D+00 -0.199257D+00  0.111892D+00  0.826793D-01 -0.359712D-01
      6   0.379364D-01 -0.168454D+00  0.963726D-01  0.215381D+00  0.148188D-01
      7  -0.193919D+00  0.430526D-01  0.106934D+00 -0.155763D+00  0.609034D-01
      8   0.126418D+00 -0.274591D-01  0.623902D-01  0.119772D+00 -0.255645D-01
      9   0.452643D+00  0.959621D-02 -0.157804D+00  0.376689D+00 -0.124822D+00
     10   0.442243D-01 -0.479914D+00  0.144613D+00  0.538533D+00 -0.488536D-01
     11  -0.693266D+00 -0.773669D+00  0.321560D+00  0.379058D+00 -0.656196D+00
     12  -0.135560D+00  0.283197D+00  0.408154D-01 -0.357269D+00 -0.230033D+00
     13   0.133268D+00 -0.137160D+00  0.589902D-02  0.161364D+00 -0.289436D-01
     14   0.237393D+00 -0.200895D+00  0.656743D-01  0.425270D+00  0.465533D+00
     15  -0.343266D+00  0.147564D+00  0.995614D-01 -0.407742D+00  0.283110D+00
     16  -0.125363D-01  0.766503D-01 -0.498908D-02 -0.266323D-01 -0.107981D+00
              1021          1022          1023          1024          1025 
      1  -0.131068D+03 -0.131042D+03 -0.131022D+03 -0.131016D+03 -0.131006D+03
      2   0.526815D-01  0.286079D-02 -0.482044D-01 -0.453205D-01  0.734392D-02
      3  -0.192556D-01 -0.213784D-01 -0.378427D-01  0.888840D-02 -0.117354D-01
      4   0.634445D-01 -0.307204D-01  0.463749D-02 -0.526347D-01  0.300763D-01
      5  -0.192245D+00  0.368314D-02  0.165412D+00  0.161201D+00 -0.231057D-01
      6   0.790564D-01  0.664081D-01  0.135821D+00 -0.290066D-01  0.350424D-01
      7  -0.228391D+00  0.102046D+00 -0.173964D-01  0.176982D+00 -0.902437D-01
      8   0.149924D+00 -0.351583D-02  0.235334D-01 -0.115589D+00 -0.100326D+00
      9   0.555982D+00 -0.133273D+00 -0.224760D-01 -0.416021D+00 -0.106102D+00
     10   0.435677D-01  0.108494D-01  0.439810D+00  0.324977D-02 -0.506348D-02
     11  -0.926191D+00  0.243251D+00  0.860828D+00  0.757533D+00 -0.630460D-01
     12  -0.116494D+00 -0.812567D-01 -0.216099D+00  0.752737D-01 -0.825603D-03
     13   0.172662D+00  0.130045D-01  0.236093D-01 -0.133546D+00 -0.555579D-02
     14   0.310857D+00 -0.172222D-02  0.186377D+00 -0.230387D+00  0.130028D-01
     15  -0.431808D+00  0.118386D+00 -0.919161D-01  0.302880D+00  0.140920D+00
     16   0.695430D-01  0.440792D-02 -0.449004D-01 -0.100326D+00 -0.442372D-01
              1026          1027          1028          1029          1030 
      1  -0.130968D+03 -0.130884D+03 -0.130863D+03 -0.130749D+03 -0.130649D+03
      2  -0.116596D-04 -0.140814D-02 -0.389451D-01 -0.799310D-02  0.292622D-01
      3   0.398515D-02  0.539768D-02  0.194136D-01 -0.175614D-01  0.418771D-01
      4   0.116545D-01 -0.875030D-02 -0.272541D-01  0.127295D-01 -0.252349D-01
      5  -0.742206D-03  0.151009D-02  0.869260D-01  0.274768D-01 -0.935710D-01
      6  -0.166567D-01 -0.293215D-01 -0.329078D-01  0.574534D-01 -0.143462D+00
      7  -0.432566D-01  0.317951D-01  0.981470D-01 -0.420878D-01  0.849650D-01
      8   0.336381D-01 -0.137231D-01 -0.386312D-01  0.411006D-01 -0.555009D-01
      9   0.733358D-01 -0.697187D-01 -0.225347D+00  0.982464D-01 -0.162700D+00
     10   0.267359D-01 -0.195130D-01  0.241911D-01  0.161985D+00 -0.337981D+00
     11  -0.354642D+00  0.285902D-02  0.228000D+00  0.693911D-01 -0.328859D+00
     12  -0.234526D+00  0.413746D-01 -0.683486D-01 -0.479059D-01  0.158107D+00
     13   0.486357D-01 -0.200160D-01 -0.223051D-02  0.910527D-01 -0.138798D+00
     14   0.292703D+00 -0.109897D+00 -0.373227D-01  0.875557D-01 -0.176836D+00
     15   0.732544D-02  0.727581D-01  0.176677D+00 -0.109095D+00  0.209258D+00
     16  -0.595848D-01 -0.261146D-01  0.212219D-01 -0.276172D-01  0.697169D-01
 Unable to Open any file for archive entry.
 1\1\GINC-HEL02\SP\RwB97XD TD-FC\Gen\C2H7N1\RR\12-Feb-2022\0\\#P TD(Nst
 ates=10000) wB97XD/Gen SCF(maxcycles=100) Int(Grid=ultrafine)\\xGDB7_0
 0001_tier4.com\\0,1\C,0,-1.244141,-0.235754,-0.027915\C,0,0.05307,0.55
 4353,0.054597\N,0,1.20258,-0.320195,-0.118513\H,0,-2.119845,0.425044,0
 .054983\H,0,-1.30763,-0.976111,0.786441\H,0,-1.300428,-0.780687,-0.981
 677\H,0,0.06348,1.13096,1.004377\H,0,0.070274,1.303101,-0.754854\H,0,1
 .254541,-0.98676,0.650372\H,0,2.067972,0.214222,-0.090146\\Version=EM6
 4L-G16RevC.01\State=1-A\HF=-135.0459439\RMSD=3.273e-09\PG=C01 [X(C2H7N
 1)]\\@
 The archive entry for this job was punched.


 A SLIP OF THE FOOT YOU MAY SOON RECOVER, BUT A SLIP OF THE TONGUE
 YOU MAY NEVER GET OVER. -- BEN FRANKLIN
 Job cpu time:       0 days  0 hours 39 minutes 17.8 seconds.
 Elapsed time:       0 days  0 hours  4 minutes 55.4 seconds.
 File lengths (MBytes):  RWF=   1370 Int=      0 D2E=      0 Chk=    332 Scr=      1
 Normal termination of Gaussian 16 at Sat Feb 12 22:27:38 2022.
