 Entering Gaussian System, Link 0=g16
 Input=bigQM7w_TDwB97XD_def2SVPD_000018.com
 Output=bigQM7w_TDwB97XD_def2SVPD_000018.log
 Initial command:
 /home/rr/g16/l1.exe "/scratch/rr/PBS_7839463.helios/Gau-63920.inp" -scrdir="/scratch/rr/PBS_7839463.helios/"
 Entering Link 1 = /home/rr/g16/l1.exe PID=     63927.
  
 Copyright (c) 1988-2019, Gaussian, Inc.  All Rights Reserved.
  
 This is part of the Gaussian(R) 16 program.  It is based on
 the Gaussian(R) 09 system (copyright 2009, Gaussian, Inc.),
 the Gaussian(R) 03 system (copyright 2003, Gaussian, Inc.),
 the Gaussian(R) 98 system (copyright 1998, Gaussian, Inc.),
 the Gaussian(R) 94 system (copyright 1995, Gaussian, Inc.),
 the Gaussian 92(TM) system (copyright 1992, Gaussian, Inc.),
 the Gaussian 90(TM) system (copyright 1990, Gaussian, Inc.),
 the Gaussian 88(TM) system (copyright 1988, Gaussian, Inc.),
 the Gaussian 86(TM) system (copyright 1986, Carnegie Mellon
 University), and the Gaussian 82(TM) system (copyright 1983,
 Carnegie Mellon University). Gaussian is a federally registered
 trademark of Gaussian, Inc.
  
 This software contains proprietary and confidential information,
 including trade secrets, belonging to Gaussian, Inc.
  
 This software is provided under written license and may be
 used, copied, transmitted, or stored only in accord with that
 written license.
  
 The following legend is applicable only to US Government
 contracts under FAR:
  
                    RESTRICTED RIGHTS LEGEND
  
 Use, reproduction and disclosure by the US Government is
 subject to restrictions as set forth in subparagraphs (a)
 and (c) of the Commercial Computer Software - Restricted
 Rights clause in FAR 52.227-19.
  
 Gaussian, Inc.
 340 Quinnipiac St., Bldg. 40, Wallingford CT 06492
  
  
 ---------------------------------------------------------------
 Warning -- This program may not be used in any manner that
 competes with the business of Gaussian, Inc. or will provide
 assistance to any competitor of Gaussian, Inc.  The licensee
 of this program is prohibited from giving any competitor of
 Gaussian, Inc. access to this program.  By using this program,
 the user acknowledges that Gaussian, Inc. is engaged in the
 business of creating and licensing software in the field of
 computational chemistry and represents and warrants to the
 licensee that it is not a competitor of Gaussian, Inc. and that
 it will not use this program in any manner prohibited above.
 ---------------------------------------------------------------
  

 Cite this work as:
 Gaussian 16, Revision C.01,
 M. J. Frisch, G. W. Trucks, H. B. Schlegel, G. E. Scuseria, 
 M. A. Robb, J. R. Cheeseman, G. Scalmani, V. Barone, 
 G. A. Petersson, H. Nakatsuji, X. Li, M. Caricato, A. V. Marenich, 
 J. Bloino, B. G. Janesko, R. Gomperts, B. Mennucci, H. P. Hratchian, 
 J. V. Ortiz, A. F. Izmaylov, J. L. Sonnenberg, D. Williams-Young, 
 F. Ding, F. Lipparini, F. Egidi, J. Goings, B. Peng, A. Petrone, 
 T. Henderson, D. Ranasinghe, V. G. Zakrzewski, J. Gao, N. Rega, 
 G. Zheng, W. Liang, M. Hada, M. Ehara, K. Toyota, R. Fukuda, 
 J. Hasegawa, M. Ishida, T. Nakajima, Y. Honda, O. Kitao, H. Nakai, 
 T. Vreven, K. Throssell, J. A. Montgomery, Jr., J. E. Peralta, 
 F. Ogliaro, M. J. Bearpark, J. J. Heyd, E. N. Brothers, K. N. Kudin, 
 V. N. Staroverov, T. A. Keith, R. Kobayashi, J. Normand, 
 K. Raghavachari, A. P. Rendell, J. C. Burant, S. S. Iyengar, 
 J. Tomasi, M. Cossi, J. M. Millam, M. Klene, C. Adamo, R. Cammi, 
 J. W. Ochterski, R. L. Martin, K. Morokuma, O. Farkas, 
 J. B. Foresman, and D. J. Fox, Gaussian, Inc., Wallingford CT, 2019.
 
 ******************************************
 Gaussian 16:  EM64L-G16RevC.01  3-Jul-2019
                12-Feb-2022 
 ******************************************
 %mem=64gb
 %nproc=8
 Will use up to    8 processors via shared memory.
 ----------------------------------------------------------------------
 #P TD(Nstates=10000) wB97XD/Gen SCF(maxcycles=100) Int(Grid=ultrafine)
 ----------------------------------------------------------------------
 1/38=1,172=1/1;
 2/12=2,17=6,18=5,40=1/2;
 3/5=7,11=9,25=1,30=1,74=-58,75=-5/1,2,3,8;
 4//1;
 5/5=2,7=100,38=5/2;
 8/6=1,10=1,108=10000/1;
 9/41=10000,42=1,70=2/14;
 6/7=2,8=2,9=2,10=2/1;
 99/5=1,9=1/99;
 Leave Link    1 at Sat Feb 12 22:22:42 2022, MaxMem=  8589934592 cpu:               0.4 elap:               0.1
 (Enter /home/rr/g16/l101.exe)
 ---------------------
 xGDB7_00001_tier4.com
 ---------------------
 Symbolic Z-matrix:
 Charge =  0 Multiplicity = 1
 9                     0.        1.09653  -0.2875 
 6                     0.        0.        0.49227 
 9                     0.       -1.09653  -0.2875 
 1                    -0.91338   0.        1.11071 
 1                     0.91338   0.        1.11071 
 
 ITRead=  0  0  0  0  0
 MicOpt= -1 -1 -1 -1 -1
 NAtoms=      5 NQM=        5 NQMF=       0 NMMI=      0 NMMIF=      0
                NMic=       0 NMicF=      0.
                    Isotopes and Nuclear Properties:
 (Nuclear quadrupole moments (NQMom) in fm**2, nuclear magnetic moments (NMagM)
  in nuclear magnetons)

  Atom         1           2           3           4           5
 IAtWgt=          19          12          19           1           1
 AtmWgt=  18.9984033  12.0000000  18.9984033   1.0078250   1.0078250
 NucSpn=           1           0           1           1           1
 AtZEff=  -0.0000000  -0.0000000  -0.0000000  -0.0000000  -0.0000000
 NQMom=    0.0000000   0.0000000   0.0000000   0.0000000   0.0000000
 NMagM=    2.6288670   0.0000000   2.6288670   2.7928460   2.7928460
 AtZNuc=   9.0000000   6.0000000   9.0000000   1.0000000   1.0000000
 Leave Link  101 at Sat Feb 12 22:22:42 2022, MaxMem=  8589934592 cpu:               0.7 elap:               0.1
 (Enter /home/rr/g16/l202.exe)
                          Input orientation:                          
 ---------------------------------------------------------------------
 Center     Atomic      Atomic             Coordinates (Angstroms)
 Number     Number       Type             X           Y           Z
 ---------------------------------------------------------------------
      1          9           0        0.000000    1.096529   -0.287503
      2          6           0        0.000000    0.000000    0.492273
      3          9           0        0.000000   -1.096529   -0.287503
      4          1           0       -0.913384    0.000000    1.110708
      5          1           0        0.913384    0.000000    1.110708
 ---------------------------------------------------------------------
                    Distance matrix (angstroms):
                    1          2          3          4          5
     1  F    0.000000
     2  C    1.345521   0.000000
     3  F    2.193058   1.345521   0.000000
     4  H    1.997909   1.103056   1.997909   0.000000
     5  H    1.997909   1.103056   1.997909   1.826768   0.000000
 Stoichiometry    CH2F2
 Framework group  C2V[C2(C),SGV(F2),SGV'(H2)]
 Deg. of freedom     4
 Full point group                 C2V     NOp   4
 Largest Abelian subgroup         C2V     NOp   4
 Largest concise Abelian subgroup C2V     NOp   4
                         Standard orientation:                         
 ---------------------------------------------------------------------
 Center     Atomic      Atomic             Coordinates (Angstroms)
 Number     Number       Type             X           Y           Z
 ---------------------------------------------------------------------
      1          9           0        0.000000    1.096529   -0.287503
      2          6           0       -0.000000   -0.000000    0.492273
      3          9           0       -0.000000   -1.096529   -0.287503
      4          1           0       -0.913384    0.000000    1.110708
      5          1           0        0.913384   -0.000000    1.110708
 ---------------------------------------------------------------------
 Rotational constants (GHZ):          50.1936055          10.6691984           9.3461600
 Leave Link  202 at Sat Feb 12 22:22:42 2022, MaxMem=  8589934592 cpu:               0.1 elap:               0.0
 (Enter /home/rr/g16/l301.exe)
 General basis read from cards:  (5D, 7F)
 Centers:       4      5
 S 3 1.00
     Exponent=  1.3010701000D+01 Coefficients=  1.9682158000D-02
     Exponent=  1.9622572000D+00 Coefficients=  1.3796524000D-01
     Exponent=  4.4453796000D-01 Coefficients=  4.7831935000D-01
 S 1 1.00
     Exponent=  1.2194962000D-01 Coefficients=  1.0000000000D+00
 P 1 1.00
     Exponent=  8.0000000000D-01 Coefficients=  1.0000000000D+00
 P 1 1.00
     Exponent=  1.1704099050D-01 Coefficients=  1.0000000000D+00
 ****
 Centers:       2
 S 5 1.00
     Exponent=  1.2384016938D+03 Coefficients=  5.4568832082D-03
     Exponent=  1.8629004992D+02 Coefficients=  4.0638409211D-02
     Exponent=  4.2251176346D+01 Coefficients=  1.8025593888D-01
     Exponent=  1.1676557932D+01 Coefficients=  4.6315121755D-01
     Exponent=  3.5930506482D+00 Coefficients=  4.4087173314D-01
 S 1 1.00
     Exponent=  4.0245147363D-01 Coefficients=  1.0000000000D+00
 S 1 1.00
     Exponent=  1.3090182668D-01 Coefficients=  1.0000000000D+00
 S 1 1.00
     Exponent=  6.7053540256D-02 Coefficients=  1.0000000000D+00
 P 3 1.00
     Exponent=  9.4680970621D+00 Coefficients=  3.8387871728D-02
     Exponent=  2.0103545142D+00 Coefficients=  2.1117025112D-01
     Exponent=  5.4771004707D-01 Coefficients=  5.1328172114D-01
 P 1 1.00
     Exponent=  1.5268613795D-01 Coefficients=  1.0000000000D+00
 D 1 1.00
     Exponent=  8.0000000000D-01 Coefficients=  1.0000000000D+00
 D 1 1.00
     Exponent=  1.1713185140D-01 Coefficients=  1.0000000000D+00
 ****
 Centers:       1      3
 S 5 1.00
     Exponent=  2.8948325990D+03 Coefficients= -5.3408255515D-03
     Exponent=  4.3541939120D+02 Coefficients= -3.9904258866D-02
     Exponent=  9.8843328866D+01 Coefficients= -1.7912768038D-01
     Exponent=  2.7485198001D+01 Coefficients= -4.6758090825D-01
     Exponent=  8.5405498171D+00 Coefficients= -4.4653131020D-01
 S 1 1.00
     Exponent=  1.0654578038D+00 Coefficients=  1.0000000000D+00
 S 1 1.00
     Exponent=  3.3247346748D-01 Coefficients=  1.0000000000D+00
 S 1 1.00
     Exponent=  9.8097752264D-02 Coefficients=  1.0000000000D+00
 P 3 1.00
     Exponent=  2.2696633924D+01 Coefficients= -4.5212874436D-02
     Exponent=  4.9872339257D+00 Coefficients= -2.3754317067D-01
     Exponent=  1.3491613954D+00 Coefficients= -5.1287353587D-01
 P 1 1.00
     Exponent=  3.4829881977D-01 Coefficients=  1.0000000000D+00
 P 1 1.00
     Exponent=  8.3372148304D-02 Coefficients=  1.0000000000D+00
 D 1 1.00
     Exponent=  1.4000000000D+00 Coefficients=  1.0000000000D+00
 D 1 1.00
     Exponent=  2.2301361948D-01 Coefficients=  1.0000000000D+00
 ****
 Ernie: Thresh=  0.10000D-02 Tol=  0.10000D-05 Strict=F.
 There are    36 symmetry adapted cartesian basis functions of A1  symmetry.
 There are    11 symmetry adapted cartesian basis functions of A2  symmetry.
 There are    17 symmetry adapted cartesian basis functions of B1  symmetry.
 There are    24 symmetry adapted cartesian basis functions of B2  symmetry.
 There are    32 symmetry adapted basis functions of A1  symmetry.
 There are    11 symmetry adapted basis functions of A2  symmetry.
 There are    17 symmetry adapted basis functions of B1  symmetry.
 There are    22 symmetry adapted basis functions of B2  symmetry.
    82 basis functions,   122 primitive gaussians,    88 cartesian basis functions
    13 alpha electrons       13 beta electrons
       nuclear repulsion energy        77.6018076461 Hartrees.
 IExCor= 4639 DFT=T Ex+Corr=wB97XD ExCW=0 ScaHFX=  1.000000
 ScaDFX=  1.000000  1.000000  1.000000  1.000000 ScalE2=  1.000000  1.000000
 IRadAn=      5 IRanWt=     -1 IRanGd=            0 ICorTp=0 IEmpDi=121
 HFx  wShort=  0.000000 wLong=  0.200000 cFull=  0.222036 cShort=  0.000000 cLong=  0.777964
 DFx  wShort=  0.000000 wLong=  0.200000 cFull=  0.000000 cShort=  0.000000 cLong=  1.000000
 NAtoms=    5 NActive=    5 NUniq=    3 SFac= 2.78D+00 NAtFMM=   60 NAOKFM=F Big=F
 Integral buffers will be    131072 words long.
 Raffenetti 1 integral format.
 Two-electron integral symmetry is turned on.
 R6Disp:  Grimme-D2 Dispersion energy=       -0.0003900252 Hartrees.
 Nuclear repulsion after empirical dispersion term =       77.6014176209 Hartrees.
 Leave Link  301 at Sat Feb 12 22:22:42 2022, MaxMem=  8589934592 cpu:               0.6 elap:               0.1
 (Enter /home/rr/g16/l302.exe)
 NPDir=0 NMtPBC=     1 NCelOv=     1 NCel=       1 NClECP=     1 NCelD=      1
         NCelK=      1 NCelE2=     1 NClLst=     1 CellRange=     0.0.
 One-electron integrals computed using PRISM.
 One-electron integral symmetry used in STVInt
 NBasis=    82 RedAO= T EigKep=  6.63D-04  NBF=    32    11    17    22
 NBsUse=    82 1.00D-06 EigRej= -1.00D+00 NBFU=    32    11    17    22
 Precomputing XC quadrature grid using
 IXCGrd= 4 IRadAn=           5 IRanWt=          -1 IRanGd=           0 AccXCQ= 0.00D+00.
 Generated NRdTot=       0 NPtTot=           0 NUsed=           0 NTot=          32
 NSgBfM=    88    88    88    88    88 MxSgAt=     5 MxSgA2=     5.
 Leave Link  302 at Sat Feb 12 22:22:42 2022, MaxMem=  8589934592 cpu:               1.0 elap:               0.1
 (Enter /home/rr/g16/l303.exe)
 DipDrv:  MaxL=1.
 Leave Link  303 at Sat Feb 12 22:22:42 2022, MaxMem=  8589934592 cpu:               0.2 elap:               0.1
 (Enter /home/rr/g16/l308.exe)
 Leave Link  308 at Sat Feb 12 22:22:42 2022, MaxMem=  8589934592 cpu:               0.2 elap:               0.1
 (Enter /home/rr/g16/l401.exe)
 ExpMin= 6.71D-02 ExpMax= 2.89D+03 ExpMxC= 4.35D+02 IAcc=3 IRadAn=         5 AccDes= 0.00D+00
 Harris functional with IExCor= 4639 and IRadAn=       5 diagonalized for initial guess.
 HarFok:  IExCor= 4639 AccDes= 0.00D+00 IRadAn=         5 IDoV= 1 UseB2=F ITyADJ=14
 ICtDFT=  3500011 ScaDFX=  1.000000  1.000000  1.000000  1.000000
 FoFCou: FMM=F IPFlag=           0 FMFlag=      100000 FMFlg1=           0
         NFxFlg=           0 DoJE=T BraDBF=F KetDBF=T FulRan=T
         wScrn=  0.000000 ICntrl=       500 IOpCl=  0 I1Cent=   200000004 NGrid=           0
         NMat0=    1 NMatS0=      1 NMatT0=    0 NMatD0=    1 NMtDS0=    0 NMtDT0=    0
 Petite list used in FoFCou.
 Harris En= -230.843729130150    
 JPrj=0 DoOrth=F DoCkMO=F.
 Initial guess orbital symmetries:
       Occupied  (A1) (B2) (A1) (A1) (B2) (A1) (B1) (A1) (B2) (A1)
                 (A2) (B2) (B1)
       Virtual   (A1) (B2) (A1) (B1) (A1) (B2) (A2) (A1) (B1) (B2)
                 (A1) (A2) (A1) (B1) (B2) (A1) (B1) (B1) (A1) (B2)
                 (A1) (B2) (A2) (A1) (B1) (A1) (B2) (A1) (B1) (A2)
                 (B2) (A1) (A2) (B2) (A1) (B1) (B2) (A1) (B1) (A1)
                 (A2) (A1) (B1) (B2) (A2) (B2) (A1) (B1) (A1) (B1)
                 (B2) (A1) (B2) (A1) (B2) (A2) (A1) (A1) (B1) (B2)
                 (A2) (B2) (B1) (A1) (B1) (A2) (A1) (A1) (B2)
 The electronic state of the initial guess is 1-A1.
 Leave Link  401 at Sat Feb 12 22:22:43 2022, MaxMem=  8589934592 cpu:               1.4 elap:               0.2
 (Enter /home/rr/g16/l502.exe)
 Keep R1 ints in memory in symmetry-blocked form, NReq=19192340.
 FoFCou: FMM=F IPFlag=           0 FMFlag=           0 FMFlg1=           0
         NFxFlg=           0 DoJE=F BraDBF=F KetDBF=F FulRan=T
         wScrn=  0.000000 ICntrl=       600 IOpCl=  0 I1Cent=           0 NGrid=           0
         NMat0=    1 NMatS0=   3403 NMatT0=    0 NMatD0=    1 NMtDS0=    0 NMtDT0=    0
 Petite list used in FoFCou.
 Closed shell SCF:
 Using DIIS extrapolation, IDIIS=  1040.
 NGot=  8589934592 LenX=  8588436934 LenY=  8588428749
 Requested convergence on RMS density matrix=1.00D-08 within 100 cycles.
 Requested convergence on MAX density matrix=1.00D-06.
 Requested convergence on             energy=1.00D-06.
 No special actions if energy rises.
 Integral accuracy reduced to 1.0D-05 until final iterations.

 Cycle   1  Pass 0  IDiag  1:
 E= -238.558379360527    
 DIIS: error= 5.50D-02 at cycle   1 NSaved=   1.
 NSaved= 1 IEnMin= 1 EnMin= -238.558379360527     IErMin= 1 ErrMin= 5.50D-02
 ErrMax= 5.50D-02  0.00D+00 EMaxC= 1.00D-01 BMatC= 3.44D-01 BMatP= 3.44D-01
 IDIUse=3 WtCom= 4.50D-01 WtEn= 5.50D-01
 Coeff-Com:  0.100D+01
 Coeff-En:   0.100D+01
 Coeff:      0.100D+01
 Gap=     0.668 Goal=   None    Shift=    0.000
 GapD=    0.668 DampG=2.000 DampE=0.500 DampFc=1.0000 IDamp=-1.
 RMSDP=8.22D-03 MaxDP=1.39D-01              OVMax= 1.44D-01

 Cycle   2  Pass 0  IDiag  1:
 E= -238.587045106297     Delta-E=       -0.028665745770 Rises=F Damp=F
 DIIS: error= 5.40D-02 at cycle   2 NSaved=   2.
 NSaved= 2 IEnMin= 2 EnMin= -238.587045106297     IErMin= 2 ErrMin= 5.40D-02
 ErrMax= 5.40D-02  0.00D+00 EMaxC= 1.00D-01 BMatC= 2.83D-01 BMatP= 3.44D-01
 IDIUse=3 WtCom= 4.60D-01 WtEn= 5.40D-01
 Coeff-Com:  0.474D+00 0.526D+00
 Coeff-En:   0.458D+00 0.542D+00
 Coeff:      0.465D+00 0.535D+00
 Gap=     0.611 Goal=   None    Shift=    0.000
 RMSDP=3.62D-03 MaxDP=7.79D-02 DE=-2.87D-02 OVMax= 7.77D-02

 Cycle   3  Pass 0  IDiag  1:
 E= -238.750334671041     Delta-E=       -0.163289564743 Rises=F Damp=F
 DIIS: error= 5.22D-03 at cycle   3 NSaved=   3.
 NSaved= 3 IEnMin= 3 EnMin= -238.750334671041     IErMin= 3 ErrMin= 5.22D-03
 ErrMax= 5.22D-03  0.00D+00 EMaxC= 1.00D-01 BMatC= 3.26D-03 BMatP= 2.83D-01
 IDIUse=3 WtCom= 9.48D-01 WtEn= 5.22D-02
 Coeff-Com:  0.648D-01 0.122D+00 0.814D+00
 Coeff-En:   0.000D+00 0.000D+00 0.100D+01
 Coeff:      0.615D-01 0.115D+00 0.823D+00
 Gap=     0.528 Goal=   None    Shift=    0.000
 RMSDP=9.40D-04 MaxDP=2.29D-02 DE=-1.63D-01 OVMax= 1.58D-02

 Cycle   4  Pass 0  IDiag  1:
 E= -238.752419141979     Delta-E=       -0.002084470939 Rises=F Damp=F
 DIIS: error= 2.38D-03 at cycle   4 NSaved=   4.
 NSaved= 4 IEnMin= 4 EnMin= -238.752419141979     IErMin= 4 ErrMin= 2.38D-03
 ErrMax= 2.38D-03  0.00D+00 EMaxC= 1.00D-01 BMatC= 5.85D-04 BMatP= 3.26D-03
 IDIUse=3 WtCom= 9.76D-01 WtEn= 2.38D-02
 Coeff-Com: -0.121D-01-0.650D-02 0.306D+00 0.712D+00
 Coeff-En:   0.000D+00 0.000D+00 0.385D-01 0.962D+00
 Coeff:     -0.118D-01-0.635D-02 0.300D+00 0.718D+00
 Gap=     0.529 Goal=   None    Shift=    0.000
 RMSDP=2.99D-04 MaxDP=8.53D-03 DE=-2.08D-03 OVMax= 4.67D-03

 Cycle   5  Pass 0  IDiag  1:
 E= -238.752860979638     Delta-E=       -0.000441837658 Rises=F Damp=F
 DIIS: error= 1.06D-04 at cycle   5 NSaved=   5.
 NSaved= 5 IEnMin= 5 EnMin= -238.752860979638     IErMin= 5 ErrMin= 1.06D-04
 ErrMax= 1.06D-04  0.00D+00 EMaxC= 1.00D-01 BMatC= 1.59D-06 BMatP= 5.85D-04
 IDIUse=3 WtCom= 9.99D-01 WtEn= 1.06D-03
 Coeff-Com:  0.900D-03-0.280D-02-0.613D-01-0.113D+00 0.118D+01
 Coeff-En:   0.000D+00 0.000D+00 0.000D+00 0.000D+00 0.100D+01
 Coeff:      0.899D-03-0.280D-02-0.613D-01-0.112D+00 0.118D+01
 Gap=     0.529 Goal=   None    Shift=    0.000
 RMSDP=5.09D-05 MaxDP=8.40D-04 DE=-4.42D-04 OVMax= 7.98D-04

 Cycle   6  Pass 0  IDiag  1:
 E= -238.752863675408     Delta-E=       -0.000002695771 Rises=F Damp=F
 DIIS: error= 1.49D-05 at cycle   6 NSaved=   6.
 NSaved= 6 IEnMin= 6 EnMin= -238.752863675408     IErMin= 6 ErrMin= 1.49D-05
 ErrMax= 1.49D-05  0.00D+00 EMaxC= 1.00D-01 BMatC= 1.51D-08 BMatP= 1.59D-06
 IDIUse=1 WtCom= 1.00D+00 WtEn= 0.00D+00
 Coeff-Com:  0.942D-04 0.191D-03-0.509D-03-0.310D-02-0.790D-01 0.108D+01
 Coeff:      0.942D-04 0.191D-03-0.509D-03-0.310D-02-0.790D-01 0.108D+01
 Gap=     0.529 Goal=   None    Shift=    0.000
 RMSDP=5.33D-06 MaxDP=7.36D-05 DE=-2.70D-06 OVMax= 1.18D-04

 Initial convergence to 1.0D-05 achieved.  Increase integral accuracy.
 Cycle   7  Pass 1  IDiag  1:
 E= -238.752896558395     Delta-E=       -0.000032882987 Rises=F Damp=F
 DIIS: error= 1.49D-05 at cycle   1 NSaved=   1.
 NSaved= 1 IEnMin= 1 EnMin= -238.752896558395     IErMin= 1 ErrMin= 1.49D-05
 ErrMax= 1.49D-05  0.00D+00 EMaxC= 1.00D-01 BMatC= 1.86D-08 BMatP= 1.86D-08
 IDIUse=1 WtCom= 1.00D+00 WtEn= 0.00D+00
 Coeff-Com:  0.100D+01
 Coeff:      0.100D+01
 Gap=     0.529 Goal=   None    Shift=    0.000
 RMSDP=5.33D-06 MaxDP=7.36D-05 DE=-3.29D-05 OVMax= 3.29D-05

 Cycle   8  Pass 1  IDiag  1:
 E= -238.752896574892     Delta-E=       -0.000000016497 Rises=F Damp=F
 DIIS: error= 3.62D-06 at cycle   2 NSaved=   2.
 NSaved= 2 IEnMin= 2 EnMin= -238.752896574892     IErMin= 2 ErrMin= 3.62D-06
 ErrMax= 3.62D-06  0.00D+00 EMaxC= 1.00D-01 BMatC= 7.69D-10 BMatP= 1.86D-08
 IDIUse=1 WtCom= 1.00D+00 WtEn= 0.00D+00
 Coeff-Com: -0.345D-01 0.103D+01
 Coeff:     -0.345D-01 0.103D+01
 Gap=     0.529 Goal=   None    Shift=    0.000
 RMSDP=7.72D-07 MaxDP=1.11D-05 DE=-1.65D-08 OVMax= 8.81D-06

 Cycle   9  Pass 1  IDiag  1:
 E= -238.752896575348     Delta-E=       -0.000000000456 Rises=F Damp=F
 DIIS: error= 2.38D-06 at cycle   3 NSaved=   3.
 NSaved= 3 IEnMin= 3 EnMin= -238.752896575348     IErMin= 3 ErrMin= 2.38D-06
 ErrMax= 2.38D-06  0.00D+00 EMaxC= 1.00D-01 BMatC= 5.68D-10 BMatP= 7.69D-10
 IDIUse=1 WtCom= 1.00D+00 WtEn= 0.00D+00
 Coeff-Com: -0.519D-01 0.496D+00 0.556D+00
 Coeff:     -0.519D-01 0.496D+00 0.556D+00
 Gap=     0.529 Goal=   None    Shift=    0.000
 RMSDP=1.78D-07 MaxDP=3.65D-06 DE=-4.56D-10 OVMax= 4.24D-06

 Cycle  10  Pass 1  IDiag  1:
 E= -238.752896575710     Delta-E=       -0.000000000362 Rises=F Damp=F
 DIIS: error= 3.67D-07 at cycle   4 NSaved=   4.
 NSaved= 4 IEnMin= 4 EnMin= -238.752896575710     IErMin= 4 ErrMin= 3.67D-07
 ErrMax= 3.67D-07  0.00D+00 EMaxC= 1.00D-01 BMatC= 1.09D-11 BMatP= 5.68D-10
 IDIUse=1 WtCom= 1.00D+00 WtEn= 0.00D+00
 Coeff-Com:  0.304D-02-0.832D-01 0.433D-01 0.104D+01
 Coeff:      0.304D-02-0.832D-01 0.433D-01 0.104D+01
 Gap=     0.529 Goal=   None    Shift=    0.000
 RMSDP=5.96D-08 MaxDP=6.91D-07 DE=-3.62D-10 OVMax= 1.35D-06

 Cycle  11  Pass 1  IDiag  1:
 E= -238.752896575723     Delta-E=       -0.000000000013 Rises=F Damp=F
 DIIS: error= 5.51D-08 at cycle   5 NSaved=   5.
 NSaved= 5 IEnMin= 5 EnMin= -238.752896575723     IErMin= 5 ErrMin= 5.51D-08
 ErrMax= 5.51D-08  0.00D+00 EMaxC= 1.00D-01 BMatC= 2.13D-13 BMatP= 1.09D-11
 IDIUse=1 WtCom= 1.00D+00 WtEn= 0.00D+00
 Coeff-Com:  0.238D-02-0.319D-01-0.185D-01 0.136D+00 0.912D+00
 Coeff:      0.238D-02-0.319D-01-0.185D-01 0.136D+00 0.912D+00
 Gap=     0.529 Goal=   None    Shift=    0.000
 RMSDP=8.85D-09 MaxDP=1.03D-07 DE=-1.28D-11 OVMax= 2.89D-07

 SCF Done:  E(RwB97XD) =  -238.752896576     A.U. after   11 cycles
            NFock= 11  Conv=0.89D-08     -V/T= 2.0070
 KE= 2.370988999145D+02 PE=-7.216992616472D+02 EE= 1.682460475361D+02
 Leave Link  502 at Sat Feb 12 22:22:43 2022, MaxMem=  8589934592 cpu:               6.1 elap:               0.8
 (Enter /home/rr/g16/l801.exe)
 DoSCS=F DFT=T ScalE2(SS,OS)=  1.000000  1.000000
 ExpMin= 6.71D-02 ExpMax= 2.89D+03 ExpMxC= 4.35D+02 IAcc=3 IRadAn=         5 AccDes= 0.00D+00
 HarFok:  IExCor=  205 AccDes= 0.00D+00 IRadAn=         5 IDoV=-2 UseB2=F ITyADJ=14
 ICtDFT= 12500011 ScaDFX=  1.000000  1.000000  1.000000  1.000000
 Largest valence mixing into a core orbital is  7.90D-05
 Largest core mixing into a valence orbital is  2.65D-05
 Range of M.O.s used for correlation:     4    82
 NBasis=    82 NAE=    13 NBE=    13 NFC=     3 NFV=     0
 NROrb=     79 NOA=    10 NOB=    10 NVA=    69 NVB=    69

 **** Warning!!: The largest alpha MO coefficient is  0.15571995D+02

 Leave Link  801 at Sat Feb 12 22:22:43 2022, MaxMem=  8589934592 cpu:               0.5 elap:               0.1
 (Enter /home/rr/g16/l914.exe)
 RHF ground state
 Keep R1, R2, and R3 ints in memory in symmetry-blocked form, NReq=468916192.
 FoFCou: FMM=F IPFlag=           0 FMFlag=           0 FMFlg1=           0
         NFxFlg=           0 DoJE=F BraDBF=F KetDBF=F FulRan=T
         wScrn=  0.000000 ICntrl=       600 IOpCl=  0 I1Cent=           0 NGrid=           0
         NMat0=    1 NMatS0=   3403 NMatT0=    0 NMatD0=    1 NMtDS0=    0 NMtDT0=    0
 Petite list used in FoFCou.
 MDV=  8589934592 DFT=T DoStab=F Mixed=T DoRPA=T DoScal=F NonHer=T
 Making orbital integer symmetry assigments:
 Orbital symmetries:
       Occupied  (A1) (B2) (A1) (A1) (B2) (A1) (B1) (A1) (B2) (A2)
                 (A1) (B2) (B1)
       Virtual   (A1) (B2) (B1) (A1) (A1) (B2) (A2) (A1) (B1) (B2)
                 (A1) (A1) (A2) (B1) (A1) (B2) (B1) (B1) (A1) (A1)
                 (B2) (B2) (A2) (A1) (A1) (B1) (B2) (A1) (B1) (A2)
                 (A1) (B2) (B2) (A2) (A1) (B1) (B2) (A1) (B1) (A1)
                 (A2) (A1) (B1) (B2) (A2) (B2) (A1) (B1) (A1) (B1)
                 (B2) (A1) (B2) (A1) (B2) (A2) (A1) (A1) (B1) (B2)
                 (A2) (B2) (B1) (A1) (B1) (A2) (A1) (A1) (B2)
   690 initial guesses have been made.
 Convergence on wavefunction:    0.001000000000000
 Davidson Disk Diagonalization:  ConvIn= 1.00D-03 SkipCon=T Conv= 1.00D-03.
 Max sub-space:  4140 roots to seek:  1380 dimension of matrix:         1380
 *** WARNING: Number of orthogonal guesses is          690
 Iteration     1 Dimension   690 NMult     0 NNew    690
 CISAX will form   690 AO SS matrices at one time.
 NMat=   690 NSing=   690 JSym2X=-1.
 New state      3 was old state      4
 New state      4 was old state      3
 New state      8 was old state      9
 New state      9 was old state      8
 New state     11 was old state     18
 New state     12 was old state     16
 New state     13 was old state     12
 New state     14 was old state     11
 New state     15 was old state     14
 New state     16 was old state     15
 New state     17 was old state     21
 New state     18 was old state     20
 New state     19 was old state     17
 New state     20 was old state     19
 New state     21 was old state     13
 New state     25 was old state     26
 New state     26 was old state     38
 New state     27 was old state     25
 New state     28 was old state     29
 New state     29 was old state     34
 New state     30 was old state     28
 New state     31 was old state     33
 New state     32 was old state     31
 New state     33 was old state     35
 New state     34 was old state     36
 New state     35 was old state     27
 New state     36 was old state     30
 New state     38 was old state     32
 New state     39 was old state     40
 New state     40 was old state     41
 New state     41 was old state     39
 New state     42 was old state     44
 New state     43 was old state     42
 New state     44 was old state     43
 New state     45 was old state     47
 New state     47 was old state     45
 New state     48 was old state     54
 New state     49 was old state     51
 New state     50 was old state     49
 New state     51 was old state     50
 New state     52 was old state     55
 New state     53 was old state     48
 New state     54 was old state     52
 New state     55 was old state     53
 New state     56 was old state     57
 New state     57 was old state     56
 New state     58 was old state     60
 New state     59 was old state     58
 New state     60 was old state     59
 New state     61 was old state     62
 New state     62 was old state     61
 New state     64 was old state     67
 New state     65 was old state     68
 New state     67 was old state     65
 New state     68 was old state     64
 New state     69 was old state     72
 New state     70 was old state     77
 New state     71 was old state     70
 New state     72 was old state     81
 New state     74 was old state     89
 New state     75 was old state     71
 New state     76 was old state     84
 New state     77 was old state     79
 New state     78 was old state     82
 New state     79 was old state     69
 New state     81 was old state     75
 New state     82 was old state     83
 New state     83 was old state     86
 New state     84 was old state     76
 New state     85 was old state     74
 New state     86 was old state     85
 New state     87 was old state     93
 New state     89 was old state     78
 New state     90 was old state     94
 New state     91 was old state     92
 New state     92 was old state     90
 New state     93 was old state     87
 New state     94 was old state     91
 New state     95 was old state    102
 New state     96 was old state     98
 New state     97 was old state     95
 New state     98 was old state     99
 New state     99 was old state    100
 New state    100 was old state     96
 New state    101 was old state     97
 New state    102 was old state    101
 New state    105 was old state    110
 New state    106 was old state    105
 New state    109 was old state    106
 New state    110 was old state    111
 New state    111 was old state    109
 New state    112 was old state    115
 New state    113 was old state    116
 New state    114 was old state    112
 New state    115 was old state    113
 New state    116 was old state    114
 New state    119 was old state    120
 New state    120 was old state    121
 New state    121 was old state    122
 New state    122 was old state    119
 New state    123 was old state    142
 New state    124 was old state    126
 New state    125 was old state    124
 New state    126 was old state    128
 New state    128 was old state    125
 New state    129 was old state    123
 New state    130 was old state    138
 New state    131 was old state    129
 New state    132 was old state    133
 New state    133 was old state    137
 New state    134 was old state    131
 New state    135 was old state    140
 New state    136 was old state    132
 New state    137 was old state    136
 New state    138 was old state    147
 New state    139 was old state    146
 New state    140 was old state    139
 New state    141 was old state    135
 New state    142 was old state    143
 New state    143 was old state    144
 New state    144 was old state    141
 New state    145 was old state    134
 New state    146 was old state    130
 New state    147 was old state    145
 New state    148 was old state    149
 New state    149 was old state    148
 New state    154 was old state    155
 New state    155 was old state    161
 New state    156 was old state    159
 New state    159 was old state    160
 New state    160 was old state    162
 New state    161 was old state    164
 New state    162 was old state    154
 New state    164 was old state    166
 New state    165 was old state    156
 New state    166 was old state    165
 New state    167 was old state    173
 New state    168 was old state    172
 New state    169 was old state    177
 New state    171 was old state    167
 New state    172 was old state    171
 New state    173 was old state    169
 New state    174 was old state    168
 New state    175 was old state    176
 New state    176 was old state    175
 New state    177 was old state    178
 New state    178 was old state    174
 New state    180 was old state    183
 New state    181 was old state    182
 New state    182 was old state    184
 New state    183 was old state    181
 New state    184 was old state    186
 New state    185 was old state    180
 New state    186 was old state    187
 New state    187 was old state    189
 New state    188 was old state    185
 New state    189 was old state    190
 New state    190 was old state    188
 New state    191 was old state    194
 New state    193 was old state    191
 New state    194 was old state    196
 New state    196 was old state    198
 New state    197 was old state    193
 New state    198 was old state    199
 New state    199 was old state    201
 New state    200 was old state    197
 New state    201 was old state    207
 New state    202 was old state    200
 New state    203 was old state    202
 New state    204 was old state    203
 New state    207 was old state    204
 New state    208 was old state    210
 New state    210 was old state    214
 New state    211 was old state    212
 New state    212 was old state    216
 New state    213 was old state    208
 New state    214 was old state    213
 New state    215 was old state    218
 New state    216 was old state    227
 New state    217 was old state    211
 New state    218 was old state    217
 New state    219 was old state    223
 New state    220 was old state    222
 New state    221 was old state    219
 New state    222 was old state    215
 New state    223 was old state    221
 New state    226 was old state    229
 New state    227 was old state    226
 New state    229 was old state    220
 New state    230 was old state    233
 New state    231 was old state    232
 New state    232 was old state    236
 New state    233 was old state    231
 New state    234 was old state    230
 New state    235 was old state    239
 New state    236 was old state    235
 New state    237 was old state    238
 New state    238 was old state    237
 New state    239 was old state    242
 New state    242 was old state    243
 New state    243 was old state    234
 New state    244 was old state    246
 New state    246 was old state    244
 New state    248 was old state    251
 New state    249 was old state    252
 New state    250 was old state    249
 New state    251 was old state    248
 New state    252 was old state    253
 New state    253 was old state    254
 New state    254 was old state    250
 New state    255 was old state    259
 New state    256 was old state    255
 New state    257 was old state    265
 New state    258 was old state    256
 New state    259 was old state    257
 New state    260 was old state    262
 New state    261 was old state    268
 New state    262 was old state    260
 New state    263 was old state    261
 New state    264 was old state    274
 New state    265 was old state    266
 New state    266 was old state    263
 New state    268 was old state    271
 New state    269 was old state    258
 New state    270 was old state    273
 New state    271 was old state    272
 New state    272 was old state    280
 New state    273 was old state    270
 New state    274 was old state    285
 New state    275 was old state    269
 New state    276 was old state    278
 New state    277 was old state    284
 New state    278 was old state    279
 New state    279 was old state    282
 New state    280 was old state    283
 New state    281 was old state    295
 New state    282 was old state    275
 New state    283 was old state    277
 New state    284 was old state    281
 New state    285 was old state    276
 New state    286 was old state    292
 New state    287 was old state    291
 New state    289 was old state    287
 New state    290 was old state    294
 New state    291 was old state    300
 New state    292 was old state    286
 New state    293 was old state    299
 New state    294 was old state    289
 No map to state    295
 New state    296 was old state    290
 New state    297 was old state    303
 New state    298 was old state    302
 New state    299 was old state    298
 New state    300 was old state    293
 New state    302 was old state    296
 New state    303 was old state    304
 New state    304 was old state    305
 New state    305 was old state    297
 New state    306 was old state    309
 New state    307 was old state    306
 New state    308 was old state    312
 New state    309 was old state    308
 New state    310 was old state    311
 New state    311 was old state    310
 New state    312 was old state    313
 New state    313 was old state    314
 New state    314 was old state    315
 New state    315 was old state    316
 New state    316 was old state    317
 New state    317 was old state    319
 New state    318 was old state    323
 New state    319 was old state    307
 New state    321 was old state    318
 New state    322 was old state    325
 New state    323 was old state    329
 New state    324 was old state    331
 New state    325 was old state    321
 New state    326 was old state    324
 New state    327 was old state    322
 New state    329 was old state    326
 New state    330 was old state    327
 New state    331 was old state    338
 New state    332 was old state    333
 New state    333 was old state    334
 New state    334 was old state    337
 New state    336 was old state    330
 New state    337 was old state    336
 New state    338 was old state    340
 New state    340 was old state    341
 New state    341 was old state    346
 New state    342 was old state    345
 New state    343 was old state    342
 New state    344 was old state    347
 New state    345 was old state    348
 New state    346 was old state    344
 New state    347 was old state    354
 New state    348 was old state    343
 New state    349 was old state    351
 New state    350 was old state    352
 New state    351 was old state    350
 New state    352 was old state    349
 New state    353 was old state    356
 New state    354 was old state    353
 New state    356 was old state    359
 New state    357 was old state    368
 New state    358 was old state    361
 New state    359 was old state    362
 New state    360 was old state    358
 New state    361 was old state    357
 New state    362 was old state    360
 No map to state    368
 New state    372 was old state    373
 New state    373 was old state    372
 New state    375 was old state    376
 New state    376 was old state    375
 New state    377 was old state    378
 New state    378 was old state    379
 New state    379 was old state    377
 New state    380 was old state    381
 New state    381 was old state    387
 New state    382 was old state    380
 New state    383 was old state    382
 New state    384 was old state    385
 New state    385 was old state    383
 New state    386 was old state    384
 New state    387 was old state    386
 New state    389 was old state    390
 New state    390 was old state    389
 New state    392 was old state    395
 New state    393 was old state    398
 New state    394 was old state    405
 New state    395 was old state    392
 New state    396 was old state    394
 New state    397 was old state    393
 New state    398 was old state    409
 New state    399 was old state    397
 New state    401 was old state    403
 New state    402 was old state    399
 New state    403 was old state    401
 New state    405 was old state    402
 New state    406 was old state    408
 New state    407 was old state    410
 New state    408 was old state    414
 New state    409 was old state    407
 New state    410 was old state    406
 New state    411 was old state    412
 New state    412 was old state    411
 New state    413 was old state    416
 New state    414 was old state    413
 New state    415 was old state    420
 New state    416 was old state    418
 New state    417 was old state    415
 New state    418 was old state    419
 New state    419 was old state    431
 New state    420 was old state    423
 New state    421 was old state    424
 New state    422 was old state    425
 New state    423 was old state    422
 New state    424 was old state    427
 New state    425 was old state    426
 New state    426 was old state    432
 New state    427 was old state    421
 New state    428 was old state    433
 New state    429 was old state    428
 New state    430 was old state    438
 New state    431 was old state    429
 New state    432 was old state    430
 New state    433 was old state    434
 New state    434 was old state    417
 New state    435 was old state    436
 New state    436 was old state    437
 New state    437 was old state    435
 New state    438 was old state    439
 New state    439 was old state    448
 New state    441 was old state    443
 New state    442 was old state    441
 New state    443 was old state    442
 New state    445 was old state    447
 New state    446 was old state    451
 New state    447 was old state    446
 New state    448 was old state    445
 New state    449 was old state    453
 New state    451 was old state    449
 New state    452 was old state    457
 New state    453 was old state    452
 New state    455 was old state    456
 New state    456 was old state    455
 New state    457 was old state    458
 New state    458 was old state    459
 New state    459 was old state    460
 New state    460 was old state    462
 New state    461 was old state    473
 New state    462 was old state    463
 New state    463 was old state    464
 New state    464 was old state    461
 New state    467 was old state    468
 New state    468 was old state    467
 New state    469 was old state    472
 New state    471 was old state    476
 New state    472 was old state    478
 New state    473 was old state    469
 New state    474 was old state    475
 New state    475 was old state    477
 New state    476 was old state    474
 New state    477 was old state    479
 New state    478 was old state    481
 New state    479 was old state    480
 New state    480 was old state    482
 New state    481 was old state    483
 New state    482 was old state    489
 New state    483 was old state    491
 New state    484 was old state    485
 New state    485 was old state    486
 New state    486 was old state    484
 New state    487 was old state    490
 New state    488 was old state    487
 New state    489 was old state    488
 New state    490 was old state    492
 New state    491 was old state    494
 New state    492 was old state    497
 New state    493 was old state    495
 New state    494 was old state    496
 New state    495 was old state    493
 New state    496 was old state    498
 New state    497 was old state    504
 New state    498 was old state    500
 New state    500 was old state    503
 New state    501 was old state    505
 New state    503 was old state    501
 New state    504 was old state    519
 New state    505 was old state    507
 New state    507 was old state    508
 New state    508 was old state    509
 New state    509 was old state    513
 New state    510 was old state    512
 New state    511 was old state    510
 New state    512 was old state    537
 New state    513 was old state    511
 New state    515 was old state    516
 New state    516 was old state    515
 New state    517 was old state    518
 New state    518 was old state    517
 New state    519 was old state    520
 New state    520 was old state    525
 New state    523 was old state    526
 New state    524 was old state    523
 New state    525 was old state    524
 New state    526 was old state    530
 New state    527 was old state    529
 New state    529 was old state    531
 New state    530 was old state    527
 New state    531 was old state    539
 New state    534 was old state    536
 New state    535 was old state    538
 New state    536 was old state    534
 New state    537 was old state    535
 New state    538 was old state    544
 New state    539 was old state    542
 New state    540 was old state    543
 New state    541 was old state    540
 New state    542 was old state    541
 New state    543 was old state    545
 New state    544 was old state    546
 New state    545 was old state    547
 New state    546 was old state    548
 New state    547 was old state    553
 New state    548 was old state    559
 No map to state    553
 New state    555 was old state    557
 New state    556 was old state    555
 New state    557 was old state    556
 No map to state    559
 New state    566 was old state    569
 New state    567 was old state    568
 New state    568 was old state    570
 New state    569 was old state    567
 New state    570 was old state    566
 New state    576 was old state    577
 New state    577 was old state    578
 New state    578 was old state    576
 New state    579 was old state    580
 New state    580 was old state    579
 New state    581 was old state    582
 New state    582 was old state    581
 New state    585 was old state    587
 New state    587 was old state    585
 New state    590 was old state    594
 New state    591 was old state    590
 New state    592 was old state    595
 New state    593 was old state    591
 New state    594 was old state    593
 New state    595 was old state    596
 New state    596 was old state    599
 New state    598 was old state    592
 New state    599 was old state    602
 New state    600 was old state    603
 New state    601 was old state    605
 New state    602 was old state    604
 New state    603 was old state    610
 New state    604 was old state    608
 New state    605 was old state    609
 New state    606 was old state    611
 New state    607 was old state    600
 New state    608 was old state    607
 New state    609 was old state    601
 New state    610 was old state    612
 New state    611 was old state    615
 New state    612 was old state    606
 New state    613 was old state    618
 New state    614 was old state    616
 New state    615 was old state    619
 New state    616 was old state    614
 New state    617 was old state    623
 New state    618 was old state    617
 New state    619 was old state    620
 New state    620 was old state    622
 New state    621 was old state    624
 New state    622 was old state    621
 New state    623 was old state    625
 New state    624 was old state    626
 New state    625 was old state    635
 New state    626 was old state    629
 New state    628 was old state    630
 New state    629 was old state    628
 New state    630 was old state    633
 New state    631 was old state    638
 New state    632 was old state    634
 New state    633 was old state    632
 New state    634 was old state    640
 New state    635 was old state    636
 New state    636 was old state    637
 New state    637 was old state    631
 New state    638 was old state    646
 New state    639 was old state    641
 New state    640 was old state    639
 New state    641 was old state    660
 New state    644 was old state    645
 New state    645 was old state    663
 New state    646 was old state    644
 New state    647 was old state    648
 New state    648 was old state    647
 New state    649 was old state    652
 New state    652 was old state    653
 New state    653 was old state    649
 New state    654 was old state    655
 New state    655 was old state    656
 New state    656 was old state    654
 New state    657 was old state    658
 New state    658 was old state    657
 New state    660 was old state    662
 No map to state    662
 New state    663 was old state    665
 New state    665 was old state    667
 New state    666 was old state    668
 No map to state    667
 New state    668 was old state    669
 New state    669 was old state    670
 New state    670 was old state    666
 New state    671 was old state    672
 New state    672 was old state    674
 New state    673 was old state    675
 New state    674 was old state    671
 New state    675 was old state    673
 Excitation Energies [eV] at current iteration:
 Root      1 :     9.627330782244652
 Root      2 :    10.405761175982390
 Root      3 :    10.976006575176950
 Root      4 :    11.276518607676420
 Root      5 :    11.650571592000490
 Root      6 :    11.864096484121020
 Root      7 :    12.231251503420600
 Root      8 :    12.546102398106690
 Root      9 :    12.550023099720760
 Root     10 :    12.766093428512960
 Root     11 :    12.951046054010380
 Root     12 :    13.095408745661640
 Root     13 :    13.179715966955070
 Root     14 :    13.220884509265510
 Root     15 :    13.259158792051300
 Root     16 :    13.282879662737760
 Root     17 :    13.488946973746220
 Root     18 :    13.528079703833570
 Root     19 :    13.723198801184420
 Root     20 :    13.821755817532220
 Root     21 :    14.031438494316840
 Root     22 :    14.202639548686510
 Root     23 :    14.340120366549520
 Root     24 :    14.397459643954010
 Root     25 :    14.864631859046910
 Root     26 :    14.890981481478860
 Root     27 :    15.013874354206430
 Root     28 :    15.073833872401290
 Root     29 :    15.126602166175760
 Root     30 :    15.143065401002820
 Root     31 :    15.367569610285430
 Root     32 :    15.398172311031840
 Root     33 :    15.612025644434000
 Root     34 :    15.627202482109870
 Root     35 :    15.669857146787570
 Root     36 :    15.692857677017760
 Root     37 :    15.728884243939490
 Root     38 :    15.729551178833080
 Root     39 :    15.802745143185600
 Root     40 :    16.087276287569160
 Root     41 :    16.087644041590370
 Root     42 :    16.237044294210830
 Root     43 :    16.254450423795630
 Root     44 :    16.304519450948350
 Root     45 :    16.408005832601320
 Root     46 :    16.475855517273610
 Root     47 :    16.583802403612150
 Root     48 :    16.749033531279830
 Root     49 :    16.873846130208160
 Root     50 :    16.930199866609650
 Root     51 :    16.993869695390370
 Root     52 :    17.038955687778320
 Root     53 :    17.054012575060460
 Root     54 :    17.079801723432560
 Root     55 :    17.167344268188600
 Root     56 :    17.343332432563920
 Root     57 :    17.405280998285820
 Root     58 :    17.481587229582590
 Root     59 :    17.514747692877830
 Root     60 :    17.529585892225360
 Root     61 :    17.678568725835850
 Root     62 :    17.954510248563140
 Root     63 :    18.036518853235480
 Root     64 :    18.371595409201410
 Root     65 :    18.381757304798040
 Root     66 :    18.410231893237140
 Root     67 :    18.447892333244780
 Root     68 :    18.524221952631180
 Root     69 :    18.920795840654030
 Root     70 :    18.954202616787390
 Root     71 :    18.987475682680650
 Root     72 :    19.030804602404420
 Root     73 :    19.121652359785870
 Root     74 :    19.158387132735670
 Root     75 :    19.204963187968640
 Root     76 :    19.226232341584720
 Root     77 :    19.328852093351200
 Root     78 :    19.329119767415320
 Root     79 :    19.379488761676450
 Root     80 :    19.397594869232600
 Root     81 :    19.417234747624090
 Root     82 :    19.441970013079030
 Root     83 :    19.452466548812260
 Root     84 :    19.460656984183690
 Root     85 :    19.614231792869770
 Root     86 :    19.619935766615070
 Root     87 :    19.671703161531660
 Root     88 :    19.732434969331090
 Root     89 :    19.787108694460460
 Root     90 :    19.799654056939980
 Root     91 :    19.833767160422350
 Root     92 :    19.869130904313590
 Root     93 :    19.952937291505550
 Root     94 :    20.029973742320190
 Root     95 :    20.167623087820950
 Root     96 :    20.220136357594990
 Root     97 :    20.220348576058270
 Root     98 :    20.260585705165290
 Root     99 :    20.349843297300830
 Root    100 :    20.361359580271980
 Root    101 :    20.489293842004960
 Root    102 :    20.569685917616230
 Root    103 :    20.779865871168030
 Root    104 :    20.902360118321280
 Root    105 :    20.902902004115110
 Root    106 :    20.949379431670980
 Root    107 :    21.175692474846060
 Root    108 :    21.249455670883990
 Root    109 :    21.311604727844460
 Root    110 :    21.470368104550020
 Root    111 :    21.558525488642080
 Root    112 :    21.592232255282780
 Root    113 :    21.698201199474240
 Root    114 :    21.715412501819040
 Root    115 :    21.744657991929160
 Root    116 :    21.888437125239330
 Root    117 :    21.982516628187780
 Root    118 :    22.144105336079470
 Root    119 :    22.229904236501220
 Root    120 :    22.278684637762160
 Root    121 :    22.421095828737470
 Root    122 :    22.595958312014200
 Root    123 :    22.625338821239780
 Root    124 :    22.627138993792300
 Root    125 :    22.666065586212400
 Root    126 :    22.716972338697720
 Root    127 :    22.729656243525480
 Root    128 :    22.847542445064570
 Root    129 :    22.937320745768010
 Root    130 :    22.962015595593500
 Root    131 :    23.009010504374930
 Root    132 :    23.068634546707190
 Root    133 :    23.095680201175030
 Root    134 :    23.103060145071240
 Root    135 :    23.119004447472070
 Root    136 :    23.140557476809120
 Root    137 :    23.246324417007630
 Root    138 :    23.353912881983110
 Root    139 :    23.372358896640280
 Root    140 :    23.384021817437340
 Root    141 :    23.474283286103450
 Root    142 :    23.560029550999340
 Root    143 :    23.630796700236680
 Root    144 :    23.642710812891220
 Root    145 :    23.702859572476130
 Root    146 :    23.706199197394200
 Root    147 :    23.855693056897780
 Root    148 :    24.078588556905320
 Root    149 :    24.143726244479440
 Root    150 :    24.447253224918630
 Root    151 :    24.576144983878890
 Root    152 :    24.630478270207590
 Root    153 :    24.760783689386070
 Root    154 :    24.879711759148950
 Root    155 :    25.282049788911530
 Root    156 :    25.344926298563260
 Root    157 :    25.353286756709200
 Root    158 :    25.386137025188620
 Root    159 :    25.388308829587680
 Root    160 :    25.589413743049650
 Root    161 :    25.634720080972830
 Root    162 :    25.659240955038220
 Root    163 :    25.683615652388220
 Root    164 :    25.690696253914340
 Root    165 :    25.770986675346570
 Root    166 :    25.921182185101800
 Root    167 :    26.058650104783750
 Root    168 :    26.065491372048320
 Root    169 :    26.160384522244470
 Root    170 :    26.227764495909060
 Root    171 :    26.336951457931640
 Root    172 :    26.393697767128670
 Root    173 :    26.599855444671470
 Root    174 :    26.659816230401560
 Root    175 :    26.799553537170690
 Root    176 :    26.944473643774920
 Root    177 :    27.021877436866710
 Root    178 :    27.173007848680540
 Root    179 :    27.290356084101290
 Root    180 :    27.382786074847830
 Root    181 :    27.390001344770170
 Root    182 :    27.559634666272420
 Root    183 :    27.617442917697260
 Root    184 :    27.741864179724980
 Root    185 :    27.836457922824170
 Root    186 :    27.847883059923150
 Root    187 :    28.013715314533630
 Root    188 :    28.202505431198890
 Root    189 :    28.269581121397310
 Root    190 :    28.349099732625700
 Root    191 :    28.381753976078780
 Root    192 :    28.489439241490740
 Root    193 :    28.560945214653200
 Root    194 :    28.598234933844680
 Root    195 :    28.688092810622340
 Root    196 :    28.717296131703220
 Root    197 :    28.854570846605670
 Root    198 :    28.963923251320610
 Root    199 :    29.017095777474290
 Root    200 :    29.041644143214350
 Root    201 :    29.357264608612950
 Root    202 :    29.389421932385810
 Root    203 :    29.491502634069880
 Root    204 :    29.626417635325440
 Root    205 :    29.754445668710170
 Root    206 :    29.839344837038580
 Root    207 :    29.902102451524760
 Root    208 :    30.187575386109670
 Root    209 :    30.189868312547460
 Root    210 :    30.308813338433030
 Root    211 :    30.396636628632400
 Root    212 :    30.679543883311090
 Root    213 :    30.752322162104230
 Root    214 :    30.756989453052010
 Root    215 :    30.879303087147370
 Root    216 :    30.914767731649070
 Root    217 :    31.086818853901320
 Root    218 :    31.105729226391770
 Root    219 :    31.298490049394130
 Root    220 :    31.315562222147810
 Root    221 :    31.419349493096810
 Root    222 :    31.501185548950370
 Root    223 :    31.558738516348590
 Root    224 :    31.613284478490800
 Root    225 :    31.690061486940950
 Root    226 :    31.808712723847610
 Root    227 :    31.878925730355930
 Root    228 :    31.996973736746390
 Root    229 :    32.126602201469340
 Root    230 :    32.135444922006080
 Root    231 :    32.234442932116840
 Root    232 :    32.261022233678350
 Root    233 :    32.296991762639270
 Root    234 :    32.312889651797820
 Root    235 :    32.375253074852420
 Root    236 :    32.412019500083030
 Root    237 :    32.531571718560330
 Root    238 :    32.782451144765060
 Root    239 :    32.800734067943910
 Root    240 :    32.951249371036830
 Root    241 :    33.109020201545530
 Root    242 :    33.128467547357520
 Root    243 :    33.174890292727930
 Root    244 :    33.305155614929310
 Root    245 :    33.480793519336840
 Root    246 :    33.661418133370330
 Root    247 :    34.182903924193720
 Root    248 :    34.274400183548910
 Root    249 :    34.488028352694900
 Root    250 :    34.582533912805020
 Root    251 :    34.586429007317040
 Root    252 :    34.717055624910650
 Root    253 :    34.742264725940690
 Root    254 :    34.839959137138910
 Root    255 :    34.902123497842100
 Root    256 :    34.907575949004990
 Root    257 :    35.008470666261810
 Root    258 :    35.072943194725010
 Root    259 :    35.191719821280720
 Root    260 :    35.286949823797880
 Root    261 :    35.294239608359150
 Root    262 :    35.357745144287510
 Root    263 :    35.372739867325170
 Root    264 :    35.427362078903510
 Root    265 :    35.453776796063610
 Root    266 :    35.545831066878800
 Root    267 :    35.556386605679980
 Root    268 :    35.722080874415000
 Root    269 :    35.744099120416650
 Root    270 :    35.909244312091450
 Root    271 :    35.972899719513900
 Root    272 :    36.002056192428300
 Root    273 :    36.067720487483360
 Root    274 :    36.164699021349920
 Root    275 :    36.241076824405580
 Root    276 :    36.257952627379130
 Root    277 :    36.295850431523490
 Root    278 :    36.365415096157920
 Root    279 :    36.509594077491780
 Root    280 :    36.600240383016890
 Root    281 :    36.612125579764970
 Root    282 :    36.814270844521590
 Root    283 :    36.866706162082050
 Root    284 :    36.869579199570690
 Root    285 :    37.058328083783030
 Root    286 :    37.116748870960010
 Root    287 :    37.117988758247460
 Root    288 :    37.132504054671820
 Root    289 :    37.309743066573190
 Root    290 :    37.361714529099520
 Root    291 :    37.401113839779140
 Root    292 :    37.444579642014150
 Root    293 :    37.549615764511400
 Root    294 :    37.614390207553540
 Root    295 :    37.714205293747240
 Root    296 :    37.822005637373620
 Root    297 :    37.964984119131130
 Root    298 :    37.989733980754520
 Root    299 :    38.276904856164070
 Root    300 :    38.386055483429660
 Root    301 :    38.498329334160120
 Root    302 :    38.670235069558780
 Root    303 :    38.671590401487370
 Root    304 :    38.822244283613980
 Root    305 :    38.839382827688670
 Root    306 :    38.953828416363860
 Root    307 :    38.971761127148670
 Root    308 :    38.984691076054280
 Root    309 :    39.076098056795520
 Root    310 :    39.145010696996980
 Root    311 :    39.298996121648900
 Root    312 :    39.309039828702650
 Root    313 :    39.396134095367660
 Root    314 :    39.525144615003530
 Root    315 :    39.564632703030140
 Root    316 :    39.683580312080380
 Root    317 :    39.769089988431320
 Root    318 :    40.070474303642900
 Root    319 :    40.256356573514320
 Root    320 :    40.392716560196110
 Root    321 :    40.499845756392440
 Root    322 :    40.501346551823830
 Root    323 :    40.712357873617530
 Root    324 :    40.740776935699250
 Root    325 :    40.748691153446370
 Root    326 :    40.783881368560170
 Root    327 :    40.820661563086230
 Root    328 :    40.880341703648560
 Root    329 :    41.002960446764090
 Root    330 :    41.083637477032550
 Root    331 :    41.154053220346360
 Root    332 :    41.213447866739560
 Root    333 :    41.250853507659810
 Root    334 :    41.265328450183420
 Root    335 :    41.553274965548820
 Root    336 :    41.708361993753390
 Root    337 :    42.164173798303590
 Root    338 :    42.276429601026860
 Root    339 :    42.395438509342940
 Root    340 :    42.652851363148980
 Root    341 :    42.766629819639960
 Root    342 :    42.781153786970540
 Root    343 :    42.968509408407030
 Root    344 :    43.070130541231740
 Root    345 :    43.148694542379060
 Root    346 :    43.265812543675620
 Root    347 :    43.306891592302110
 Root    348 :    43.387099284540850
 Root    349 :    43.417227356896550
 Root    350 :    43.435018692382650
 Root    351 :    43.631114874660550
 Root    352 :    43.961538660362230
 Root    353 :    44.007903174278080
 Root    354 :    44.359886002312290
 Root    355 :    44.545198667866240
 Root    356 :    44.922467647983180
 Root    357 :    45.130802352083810
 Root    358 :    45.361883367666220
 Root    359 :    45.398257899374000
 Root    360 :    45.512420787869300
 Root    361 :    45.674428209010240
 Root    362 :    45.921799451882180
 Root    363 :    46.206542785909550
 Root    364 :    46.500998089995090
 Root    365 :    47.150743539834030
 Root    366 :    47.744592512149640
 Root    367 :    47.879396119869020
 Root    368 :    48.035880444072060
 Root    369 :    48.977106578816220
 Root    370 :    49.125980181901040
 Root    371 :    49.336272658797750
 Root    372 :    49.564288941627080
 Root    373 :    49.750531475633330
 Root    374 :    50.567735868565440
 Root    375 :    50.669029955369130
 Root    376 :    50.776288872677650
 Root    377 :    50.895739789205020
 Root    378 :    50.994567361895970
 Root    379 :    51.288673306966570
 Root    380 :    51.444025014791780
 Root    381 :    51.605053064453290
 Root    382 :    51.860120617846360
 Root    383 :    51.880673679175470
 Root    384 :    52.010282030325520
 Root    385 :    52.164571065694620
 Root    386 :    52.437432480670370
 Root    387 :    52.468189090521090
 Root    388 :    52.838404459985130
 Root    389 :    52.849323220832620
 Root    390 :    52.953536444491600
 Root    391 :    53.066976884299700
 Root    392 :    53.609616931302820
 Root    393 :    53.789910360452370
 Root    394 :    53.888482655057620
 Root    395 :    54.012338172439830
 Root    396 :    54.038177395691220
 Root    397 :    54.243802346340440
 Root    398 :    54.395334669438640
 Root    399 :    54.481459685961180
 Root    400 :    54.637528750685910
 Root    401 :    54.660666739501390
 Root    402 :    54.667553437812540
 Root    403 :    54.729348275128740
 Root    404 :    54.848332097363090
 Root    405 :    54.910159218296930
 Root    406 :    55.189769078085760
 Root    407 :    55.291920496066980
 Root    408 :    55.415199587826800
 Root    409 :    55.467288359154000
 Root    410 :    55.524307201112850
 Root    411 :    55.538548656340860
 Root    412 :    55.684925218287080
 Root    413 :    55.738289054018740
 Root    414 :    55.786872271165360
 Root    415 :    56.158828697935930
 Root    416 :    56.637289339207160
 Root    417 :    56.688535387034680
 Root    418 :    57.022048791058400
 Root    419 :    57.288083611318430
 Root    420 :    57.635816913450890
 Root    421 :    57.768107506774400
 Root    422 :    57.799634599824170
 Root    423 :    57.912150421491350
 Root    424 :    58.057736687853340
 Root    425 :    58.081071756991690
 Root    426 :    58.133749387452790
 Root    427 :    58.170089541601100
 Root    428 :    58.361725243634600
 Root    429 :    58.411157565779970
 Root    430 :    58.505034327748580
 Root    431 :    58.769613098722690
 Root    432 :    58.794465338611770
 Root    433 :    59.002284884824940
 Root    434 :    59.054114129518680
 Root    435 :    59.252258881926640
 Root    436 :    59.505170086408180
 Root    437 :    59.790356997642840
 Root    438 :    59.952481166491430
 Root    439 :    59.978026545445100
 Root    440 :    60.094605021496560
 Root    441 :    60.236126281704850
 Root    442 :    60.450644525978530
 Root    443 :    60.478613299842900
 Root    444 :    61.212054591804670
 Root    445 :    61.228993397067720
 Root    446 :    61.422239886579040
 Root    447 :    61.422419784810940
 Root    448 :    61.485712612102190
 Root    449 :    61.810773420031380
 Root    450 :    61.888611273004720
 Root    451 :    62.093223091965020
 Root    452 :    62.095613446616370
 Root    453 :    62.121791300255000
 Root    454 :    62.390062600961090
 Root    455 :    62.430881966721410
 Root    456 :    62.691315853364430
 Root    457 :    62.703066919177250
 Root    458 :    63.189039238946840
 Root    459 :    63.352751254970190
 Root    460 :    63.361150683464340
 Root    461 :    63.472906903700390
 Root    462 :    63.673567558840280
 Root    463 :    63.961104028397710
 Root    464 :    64.030948590587760
 Root    465 :    64.153682346523520
 Root    466 :    65.037107598510190
 Root    467 :    65.210963293114600
 Root    468 :    65.436430011138430
 Root    469 :    65.630560227123130
 Root    470 :    65.740144064926070
 Root    471 :    65.745459331434290
 Root    472 :    65.849141184195460
 Root    473 :    65.862228768244070
 Root    474 :    66.071690594137120
 Root    475 :    66.086339834736050
 Root    476 :    66.089700863601180
 Root    477 :    66.372110656321180
 Root    478 :    66.610779422579140
 Root    479 :    66.854390709713060
 Root    480 :    67.137521930903180
 Root    481 :    67.268819628718230
 Root    482 :    67.414377553996290
 Root    483 :    68.210435880811370
 Root    484 :    68.767404093280060
 Root    485 :    68.777750148545410
 Root    486 :    68.860929297919770
 Root    487 :    68.907499287706860
 Root    488 :    68.964209631836240
 Root    489 :    68.988273522623800
 Root    490 :    69.050197666277430
 Root    491 :    69.422803237220420
 Root    492 :    69.621422449116480
 Root    493 :    69.730478044996720
 Root    494 :    69.785156420179320
 Root    495 :    69.891645507260750
 Root    496 :    70.084459269938650
 Root    497 :    70.295458088575860
 Root    498 :    70.613443700394880
 Root    499 :    70.930307567353860
 Root    500 :    71.173187435170720
 Root    501 :    71.496978825057540
 Root    502 :    71.537810171139130
 Root    503 :    71.827693924450810
 Root    504 :    71.950877666201150
 Root    505 :    72.189931684375620
 Root    506 :    72.302872988606280
 Root    507 :    72.525265909767970
 Root    508 :    72.632334168461340
 Root    509 :    72.728322633549810
 Root    510 :    72.886153245642210
 Root    511 :    73.087833775511070
 Root    512 :    73.162569523435340
 Root    513 :    73.210958052286970
 Root    514 :    73.456264565828330
 Root    515 :    73.521879192451150
 Root    516 :    73.876973402236470
 Root    517 :    73.881065333460000
 Root    518 :    73.905401024237350
 Root    519 :    74.441488596817020
 Root    520 :    74.535004065789310
 Root    521 :    74.779509551332670
 Root    522 :    74.948294765208570
 Root    523 :    75.067185147508920
 Root    524 :    75.090108235779400
 Root    525 :    75.243755344427640
 Root    526 :    75.306216651960950
 Root    527 :    75.496130592533500
 Root    528 :    75.603671726478680
 Root    529 :    75.650197907450620
 Root    530 :    75.703747888792140
 Root    531 :    76.082952647992100
 Root    532 :    76.414741243333490
 Root    533 :    76.923344935608990
 Root    534 :    77.107117693046430
 Root    535 :    77.372921591451800
 Root    536 :    77.497617338792750
 Root    537 :    77.603288381009430
 Root    538 :    77.650405750634660
 Root    539 :    78.549800775889210
 Root    540 :    78.700370369329960
 Root    541 :    78.732949274292660
 Root    542 :    78.764749790718890
 Root    543 :    79.382601294661550
 Root    544 :    79.508303383682970
 Root    545 :    79.920840801050370
 Root    546 :    79.991463727171180
 Root    547 :    81.169355114336230
 Root    548 :    81.193925352926570
 Root    549 :    81.383019541283490
 Root    550 :    82.604181084601090
 Root    551 :    83.683235377586480
 Root    552 :    84.146393857463610
 Root    553 :    84.968705634180040
 Root    554 :    85.304912996061380
 Root    555 :    86.328406854744910
 Root    556 :    86.470650309586620
 Root    557 :    86.591409218460920
 Root    558 :    86.681555787459390
 Root    559 :    87.096241088271880
 Root    560 :    87.237520061379270
 Root    561 :    87.308812298977390
 Root    562 :    88.060192075939500
 Root    563 :    88.068705321778270
 Root    564 :    88.523307571876510
 Root    565 :    88.893889677951090
 Root    566 :    89.997212269417770
 Root    567 :    90.086674123662850
 Root    568 :    90.305241295392150
 Root    569 :    90.387268188139120
 Root    570 :    90.417114600007270
 Root    571 :    90.602324409128740
 Root    572 :    90.994990130795090
 Root    573 :    92.092582620030030
 Root    574 :    93.383393303977120
 Root    575 :    93.673721041579610
 Root    576 :    93.854141988324470
 Root    577 :    93.926227949062640
 Root    578 :    93.961992433014340
 Root    579 :    94.186705249824730
 Root    580 :    94.940988053452630
 Root    581 :    94.975276699302170
 Root    582 :    95.263729001646500
 Root    583 :    96.401383918943000
 Root    584 :    96.477918934869020
 Root    585 :    97.781930491466300
 Root    586 :    97.793506552212690
 Root    587 :    98.017048274648890
 Root    588 :    98.380959157582130
 Root    589 :    98.653714243777430
 Root    590 :    98.776403061991220
 Root    591 :    98.776491271799220
 Root    592 :    99.636435154630850
 Root    593 :    99.747245630362390
 Root    594 :    99.843405249245810
 Root    595 :   100.711821796652500
 Root    596 :   100.852485203457300
 Root    597 :   100.950785189849000
 Root    598 :   101.049406612258200
 Root    599 :   101.224722150348800
 Root    600 :   101.506714183338900
 Root    601 :   101.627676947951300
 Root    602 :   101.628631696789600
 Root    603 :   101.910137993348200
 Root    604 :   102.032630333653100
 Root    605 :   102.357142320179600
 Root    606 :   102.760202249197400
 Root    607 :   102.819032208249300
 Root    608 :   103.007003113759000
 Root    609 :   103.221327454384000
 Root    610 :   103.610183881166200
 Root    611 :   104.100077578596400
 Root    612 :   104.290077912062600
 Root    613 :   104.307199484466300
 Root    614 :   104.376143356874200
 Root    615 :   104.538564685941300
 Root    616 :   104.975721465858200
 Root    617 :   105.093838007924000
 Root    618 :   105.147000563938500
 Root    619 :   105.173038405327600
 Root    620 :   105.289750148547800
 Root    621 :   105.552683780091900
 Root    622 :   105.716628560510900
 Root    623 :   105.874949072592500
 Root    624 :   106.032405144888200
 Root    625 :   106.226615551251900
 Root    626 :   106.614837033769100
 Root    627 :   106.778202682777400
 Root    628 :   106.994066555427400
 Root    629 :   107.000262117858000
 Root    630 :   107.565191635899400
 Root    631 :   107.963965808078600
 Root    632 :   107.990976578403800
 Root    633 :   108.004767349030100
 Root    634 :   108.540926219897400
 Root    635 :   108.772125167587900
 Root    636 :   108.991317814731400
 Root    637 :   109.076858634428600
 Root    638 :   109.250097837369800
 Root    639 :   109.514400180525100
 Root    640 :   109.523659044281100
 Root    641 :   109.941478087626000
 Root    642 :   110.081752595801900
 Root    643 :   110.272585973985600
 Root    644 :   110.317555772395700
 Root    645 :   110.524161246108200
 Root    646 :   110.559744226657900
 Root    647 :   111.643946125821400
 Root    648 :   111.738103599787700
 Root    649 :   112.321182737626300
 Root    650 :   112.426875014936000
 Root    651 :   112.531881105297800
 Root    652 :   113.186210032027400
 Root    653 :   113.637023933591500
 Root    654 :   113.982127535219900
 Root    655 :   115.021141848024900
 Root    656 :   115.229262787164800
 Root    657 :   115.732987585728100
 Root    658 :   115.882396130774400
 Root    659 :   116.779958388221500
 Root    660 :   117.616493551851400
 Root    661 :   118.030719147211000
 Root    662 :   118.140147110891000
 Root    663 :   118.553787205523800
 Root    664 :   118.557856832714100
 Root    665 :   119.128891034990700
 Root    666 :   121.037671409186900
 Root    667 :   121.473160382831800
 Root    668 :   121.501798925188700
 Root    669 :   121.809922878554900
 Root    670 :   122.084993138635500
 Root    671 :   122.318302890179400
 Root    672 :   122.557754373310100
 Root    673 :   122.656937172535100
 Root    674 :   122.670923466094700
 Root    675 :   123.267120108112800
 Root    676 :   124.114877619946700
 Root    677 :   124.726438993085200
 Root    678 :   124.897296027918700
 Root    679 :   124.955243219591700
 Root    680 :   125.316670673253600
 Root    681 :   125.556337810401700
 Root    682 :   126.136545939582400
 Root    683 :   128.009088926614600
 Root    684 :   129.346750692858300
 Root    685 :   130.043077848337700
 Root    686 :   131.571675198035000
 Root    687 :   135.404116058715000
 Root    688 :   136.793102379054600
 Root    689 :   138.870882759436100
 Root    690 :   140.211529179923300
 Convergence achieved for final wavefunctions.
 ***********************************************************************
 Excited states from <AA,BB:AA,BB> singles matrix:
 ***********************************************************************
 
 1PDM for each excited state written to RWF  633
 Ground to excited state transition densities written to RWF  633
 Ground to excited state transition electric dipole moments (Au):
       state          X           Y           Z        Dip. S.      Osc.
         1        -0.4045     -0.0000      0.0000      0.1636      0.0386
         2        -0.0000     -0.0000      0.0000      0.0000      0.0000
         3        -0.2777      0.0000     -0.0000      0.0771      0.0207
         4         0.0000     -0.0000     -0.5660      0.3204      0.0885
         5         0.0000      0.3214     -0.0000      0.1033      0.0295
         6        -0.0000     -0.0000      0.1200      0.0144      0.0042
         7        -0.0000     -0.0000     -0.0000      0.0000      0.0000
         8        -0.0000     -0.0000     -0.2769      0.0767      0.0236
         9         0.6121      0.0000     -0.0000      0.3747      0.1152
        10         0.0000      0.3441      0.0000      0.1184      0.0370
        11        -0.3250      0.0000      0.0000      0.1056      0.0335
        12        -0.0000      0.0000     -0.6824      0.4657      0.1494
        13        -0.0000      0.0000      0.0000      0.0000      0.0000
        14        -0.0000     -0.0000     -0.0000      0.0000      0.0000
        15        -0.0000     -0.4405     -0.0000      0.1941      0.0630
        16        -0.4179      0.0000      0.0000      0.1746      0.0568
        17         0.0000     -0.0000     -0.0000      0.0000      0.0000
        18         0.0000     -0.2634     -0.0000      0.0694      0.0230
        19         0.0713      0.0000      0.0000      0.0051      0.0017
        20         0.0000      0.0000      0.4389      0.1926      0.0652
        21        -0.0000      0.4462     -0.0000      0.1991      0.0685
        22         0.0000     -0.1215      0.0000      0.0148      0.0051
        23         0.0000      0.0000      0.0000      0.0000      0.0000
        24         0.0000      0.0000      0.1240      0.0154      0.0054
        25         0.0000      0.0000      0.0000      0.0000      0.0000
        26         0.1510      0.0000     -0.0000      0.0228      0.0083
        27         0.0000     -0.0000      0.2004      0.0402      0.0148
        28         0.0000      0.6274      0.0000      0.3937      0.1454
        29        -0.0000      0.0000     -0.0000      0.0000      0.0000
        30        -0.2096     -0.0000      0.0000      0.0439      0.0163
        31        -0.2788      0.0000      0.0000      0.0777      0.0293
        32         0.0000      0.3320     -0.0000      0.1102      0.0416
        33         0.0000     -0.0000     -0.0853      0.0073      0.0028
        34        -0.6685     -0.0000     -0.0000      0.4469      0.1711
        35         0.0000     -0.1398     -0.0000      0.0195      0.0075
        36        -0.0000      0.0000     -0.0000      0.0000      0.0000
        37         0.0546      0.0000      0.0000      0.0030      0.0011
        38         0.0000     -0.0000     -0.3689      0.1361      0.0525
        39         0.0000     -0.0000      0.0000      0.0000      0.0000
        40        -0.0000      0.3188     -0.0000      0.1016      0.0401
        41         0.0000      0.0000      0.0932      0.0087      0.0034
        42        -0.0000     -0.0931      0.0000      0.0087      0.0034
        43        -0.4564      0.0000      0.0000      0.2083      0.0830
        44         0.0000     -0.0000      0.0288      0.0008      0.0003
        45        -0.0000     -0.0000      0.0000      0.0000      0.0000
        46        -0.0000      0.4770     -0.0000      0.2276      0.0919
        47         0.0000      0.0000      0.5299      0.2808      0.1141
        48         0.2219     -0.0000     -0.0000      0.0492      0.0202
        49         0.0000      0.0000     -0.4556      0.2075      0.0858
        50        -0.0000     -0.4624     -0.0000      0.2138      0.0887
        51        -0.2759     -0.0000      0.0000      0.0761      0.0317
        52        -0.0000      0.4828      0.0000      0.2331      0.0973
        53         0.0000      0.0000     -0.0000      0.0000      0.0000
        54         0.0000     -0.0000      0.0915      0.0084      0.0035
        55         0.2459      0.0000     -0.0000      0.0604      0.0254
        56         0.3169     -0.0000      0.0000      0.1004      0.0427
        57        -0.0000     -0.0000      0.3603      0.1298      0.0554
        58         0.0000      0.0000     -0.1901      0.0361      0.0155
        59        -0.0000     -0.3106     -0.0000      0.0965      0.0414
        60        -0.0000     -0.0000     -0.0000      0.0000      0.0000
        61         0.0000      0.0000     -0.0000      0.0000      0.0000
        62         0.0000     -0.2757     -0.0000      0.0760      0.0334
        63         0.0000      0.0000     -0.2604      0.0678      0.0300
        64         0.3792      0.0000     -0.0000      0.1438      0.0647
        65        -0.0000      0.0000     -0.0000      0.0000      0.0000
        66        -0.0000     -0.0000     -0.0828      0.0069      0.0031
        67        -0.0000     -0.0000     -0.4011      0.1609      0.0727
        68         0.0000     -0.4218     -0.0000      0.1779      0.0808
        69        -0.2798     -0.0000     -0.0000      0.0783      0.0363
        70         0.0000      0.0000      0.0000      0.0000      0.0000
        71        -0.0000      0.4288     -0.0000      0.1839      0.0855
        72         0.0000     -0.0000      0.0000      0.0000      0.0000
        73        -0.0227      0.0000      0.0000      0.0005      0.0002
        74        -0.0000      0.0000     -0.0311      0.0010      0.0005
        75         0.0000      0.0000     -0.0000      0.0000      0.0000
        76         0.0000      0.0000      0.5481      0.3004      0.1415
        77         0.1847     -0.0000     -0.0000      0.0341      0.0161
        78         0.0000      0.1231     -0.0000      0.0152      0.0072
        79        -0.0000      0.0000      0.2276      0.0518      0.0246
        80        -0.0000      0.0000     -0.0000      0.0000      0.0000
        81        -0.0000      0.2667     -0.0000      0.0711      0.0338
        82         0.3383      0.0000     -0.0000      0.1144      0.0545
        83         0.0000      0.0000      0.1600      0.0256      0.0122
        84         0.0000     -0.3701      0.0000      0.1369      0.0653
        85         0.0000     -0.0000     -0.0000      0.0000      0.0000
        86         0.1283      0.0000     -0.0000      0.0165      0.0079
        87        -0.0000      0.0000      0.0741      0.0055      0.0026
        88        -0.0000      0.0000     -0.3224      0.1040      0.0503
        89        -0.0000      0.0000     -0.0369      0.0014      0.0007
        90         0.0646     -0.0000     -0.0000      0.0042      0.0020
        91         0.0000      0.0000      0.0000      0.0000      0.0000
        92        -0.0000      0.1613      0.0000      0.0260      0.0127
        93        -0.0000      0.0000     -0.0481      0.0023      0.0011
        94        -0.0000     -0.1865     -0.0000      0.0348      0.0171
        95         0.0000     -0.0000      0.0000      0.0000      0.0000
[...]
     12   0.000000D+00  0.337771D+01  0.000000D+00  0.000000D+00  0.000000D+00
     13   0.000000D+00 -0.694289D+00  0.000000D+00  0.000000D+00  0.000000D+00
     14   0.000000D+00  0.000000D+00  0.000000D+00  0.260282D+00  0.000000D+00
     15   0.000000D+00  0.000000D+00  0.000000D+00  0.000000D+00 -0.325121D+00
     16   0.255175D+00  0.000000D+00  0.224540D+01  0.000000D+00  0.000000D+00
               621           622           623           624           625 
      1  -0.234874D+03 -0.234868D+03 -0.234862D+03 -0.234856D+03 -0.234849D+03
      2   0.000000D+00  0.000000D+00  0.000000D+00 -0.209055D-01  0.000000D+00
      3   0.194104D+00  0.000000D+00  0.000000D+00  0.000000D+00  0.253348D+00
      4   0.000000D+00  0.000000D+00 -0.939504D-01  0.000000D+00  0.000000D+00
      5   0.000000D+00  0.000000D+00  0.000000D+00  0.701818D-01  0.000000D+00
      6  -0.654193D+00  0.000000D+00  0.000000D+00  0.000000D+00 -0.859837D+00
      7   0.000000D+00  0.000000D+00  0.327533D+00  0.000000D+00  0.000000D+00
      8  -0.378795D+00  0.000000D+00  0.000000D+00  0.000000D+00 -0.193015D+01
      9   0.000000D+00  0.000000D+00  0.000000D+00 -0.136105D-01  0.000000D+00
     10   0.000000D+00  0.332887D+00  0.000000D+00  0.000000D+00  0.000000D+00
     11   0.000000D+00  0.000000D+00 -0.294038D-01  0.000000D+00  0.000000D+00
     12   0.000000D+00  0.000000D+00 -0.209817D+00  0.000000D+00  0.000000D+00
     13   0.000000D+00  0.000000D+00 -0.488856D+00  0.000000D+00  0.000000D+00
     14   0.000000D+00 -0.131618D+00  0.000000D+00  0.000000D+00  0.000000D+00
     15   0.000000D+00  0.000000D+00  0.000000D+00  0.820445D-02  0.000000D+00
     16   0.196651D+00  0.000000D+00  0.000000D+00  0.000000D+00 -0.108727D+01
               626           627           628           629           630 
      1  -0.234835D+03 -0.234829D+03 -0.234821D+03 -0.234821D+03 -0.234800D+03
      2  -0.147433D+00  0.165436D+00  0.000000D+00  0.000000D+00  0.000000D+00
      3   0.000000D+00  0.000000D+00  0.000000D+00  0.000000D+00  0.000000D+00
      4   0.000000D+00  0.000000D+00 -0.161114D+00  0.000000D+00  0.255310D+00
      5   0.477315D+00 -0.544763D+00  0.000000D+00  0.000000D+00  0.000000D+00
      6   0.000000D+00  0.000000D+00  0.000000D+00  0.000000D+00  0.000000D+00
      7   0.000000D+00  0.000000D+00  0.572842D+00  0.000000D+00 -0.847664D+00
      8   0.000000D+00  0.000000D+00  0.000000D+00  0.000000D+00  0.000000D+00
      9  -0.246858D+00  0.261816D+00  0.000000D+00  0.000000D+00  0.000000D+00
     10   0.000000D+00  0.000000D+00  0.000000D+00 -0.866184D+00  0.000000D+00
     11   0.000000D+00  0.000000D+00 -0.612950D-01  0.000000D+00  0.116611D+00
     12   0.000000D+00  0.000000D+00 -0.285800D+01  0.000000D+00 -0.321320D+01
     13   0.000000D+00  0.000000D+00 -0.742202D+00  0.000000D+00  0.772986D+00
     14   0.000000D+00  0.000000D+00  0.000000D+00  0.715257D+00  0.000000D+00
     15  -0.274291D+00  0.813662D-01  0.000000D+00  0.000000D+00  0.000000D+00
     16   0.000000D+00  0.000000D+00  0.000000D+00  0.000000D+00  0.000000D+00
               631           632           633           634           635 
      1  -0.234785D+03 -0.234784D+03 -0.234784D+03 -0.234764D+03 -0.234756D+03
      2   0.000000D+00  0.000000D+00 -0.189406D+00  0.000000D+00  0.000000D+00
      3   0.000000D+00 -0.232975D-01  0.000000D+00  0.000000D+00 -0.811267D-01
      4  -0.226989D+00  0.000000D+00  0.000000D+00  0.000000D+00  0.000000D+00
      5   0.000000D+00  0.000000D+00  0.664371D+00  0.000000D+00  0.000000D+00
      6   0.000000D+00  0.908791D-01  0.000000D+00  0.000000D+00  0.279487D+00
      7   0.780990D+00  0.000000D+00  0.000000D+00  0.000000D+00  0.000000D+00
      8   0.000000D+00 -0.148041D+00  0.000000D+00  0.000000D+00  0.192749D+01
      9   0.000000D+00  0.000000D+00 -0.421082D+00  0.000000D+00  0.000000D+00
     10   0.000000D+00  0.000000D+00  0.000000D+00 -0.242534D+01  0.000000D+00
     11   0.550628D-01  0.000000D+00  0.000000D+00  0.000000D+00  0.000000D+00
     12   0.345040D+01  0.000000D+00  0.000000D+00  0.000000D+00  0.000000D+00
     13  -0.870504D+00  0.000000D+00  0.000000D+00  0.000000D+00  0.000000D+00
     14   0.000000D+00  0.000000D+00  0.000000D+00  0.267094D+01  0.000000D+00
     15   0.000000D+00  0.000000D+00 -0.300319D+00  0.000000D+00  0.000000D+00
     16   0.000000D+00 -0.425732D+00  0.000000D+00  0.000000D+00  0.188868D+01
               636           637           638           639           640 
      1  -0.234748D+03 -0.234744D+03 -0.234738D+03 -0.234728D+03 -0.234728D+03
      2   0.000000D+00  0.000000D+00  0.000000D+00  0.000000D+00  0.000000D+00
      3   0.000000D+00  0.000000D+00 -0.276154D+00  0.000000D+00 -0.162013D+00
      4   0.000000D+00  0.000000D+00  0.000000D+00 -0.973839D-02  0.000000D+00
      5   0.000000D+00  0.000000D+00  0.000000D+00  0.000000D+00  0.000000D+00
      6   0.000000D+00  0.000000D+00  0.992351D+00  0.000000D+00  0.556552D+00
      7   0.000000D+00  0.000000D+00  0.000000D+00  0.411974D-01  0.000000D+00
      8   0.000000D+00  0.000000D+00  0.682908D+00  0.000000D+00  0.138494D+01
      9   0.000000D+00  0.000000D+00  0.000000D+00  0.000000D+00  0.000000D+00
     10   0.671709D+00  0.227621D+01  0.000000D+00  0.000000D+00  0.000000D+00
     11   0.000000D+00  0.000000D+00  0.000000D+00  0.718907D-01  0.000000D+00
     12   0.000000D+00  0.000000D+00  0.000000D+00  0.306113D+00  0.000000D+00
     13   0.000000D+00  0.000000D+00  0.000000D+00 -0.491324D+00  0.000000D+00
     14  -0.853302D+00 -0.238554D+01  0.000000D+00  0.000000D+00  0.000000D+00
     15   0.000000D+00  0.000000D+00  0.000000D+00  0.000000D+00  0.000000D+00
     16   0.000000D+00  0.000000D+00 -0.558084D+00  0.000000D+00  0.810868D+00
               641           642           643           644           645 
      1  -0.234713D+03 -0.234707D+03 -0.234700D+03 -0.234699D+03 -0.234691D+03
      2   0.000000D+00  0.171145D+00  0.000000D+00  0.000000D+00  0.000000D+00
      3   0.000000D+00  0.000000D+00  0.000000D+00  0.000000D+00 -0.218267D+00
      4   0.417792D+00  0.000000D+00  0.345924D-01  0.000000D+00  0.000000D+00
      5   0.000000D+00 -0.565588D+00  0.000000D+00  0.000000D+00  0.000000D+00
      6   0.000000D+00  0.000000D+00  0.000000D+00  0.000000D+00  0.805717D+00
      7  -0.148105D+01  0.000000D+00 -0.110027D+00  0.000000D+00  0.000000D+00
      8   0.000000D+00  0.000000D+00  0.000000D+00  0.000000D+00 -0.533407D+00
      9   0.000000D+00  0.256829D+00  0.000000D+00  0.000000D+00  0.000000D+00
     10   0.000000D+00  0.000000D+00  0.000000D+00 -0.193165D+01  0.000000D+00
     11   0.931158D-01  0.000000D+00 -0.283361D+00  0.000000D+00  0.000000D+00
     12   0.875074D+00  0.000000D+00 -0.197672D+00  0.000000D+00  0.000000D+00
     13   0.169855D+01  0.000000D+00  0.300294D+00  0.000000D+00  0.000000D+00
     14   0.000000D+00  0.000000D+00  0.000000D+00  0.202013D+01  0.000000D+00
     15   0.000000D+00  0.558771D+00  0.000000D+00  0.000000D+00  0.000000D+00
     16   0.000000D+00  0.000000D+00  0.000000D+00  0.000000D+00 -0.136265D+01
               646           647           648           649           650 
      1  -0.234690D+03 -0.234650D+03 -0.234647D+03 -0.234625D+03 -0.234621D+03
      2   0.237434D+00  0.000000D+00 -0.198524D-02  0.516637D-02  0.000000D+00
      3   0.000000D+00  0.000000D+00  0.000000D+00  0.000000D+00 -0.662253D-01
      4   0.000000D+00  0.000000D+00  0.000000D+00  0.000000D+00  0.000000D+00
      5  -0.837069D+00  0.000000D+00  0.229221D-01 -0.390273D-01  0.000000D+00
      6   0.000000D+00  0.000000D+00  0.000000D+00  0.000000D+00  0.239070D+00
      7   0.000000D+00  0.000000D+00  0.000000D+00  0.000000D+00  0.000000D+00
      8   0.000000D+00  0.000000D+00  0.000000D+00  0.000000D+00  0.869635D+00
      9   0.585683D+00  0.000000D+00 -0.277894D-01 -0.131976D-02  0.000000D+00
     10   0.000000D+00  0.191934D+00  0.000000D+00  0.000000D+00  0.000000D+00
     11   0.000000D+00  0.000000D+00  0.000000D+00  0.000000D+00  0.000000D+00
     12   0.000000D+00  0.000000D+00  0.000000D+00  0.000000D+00  0.000000D+00
     13   0.000000D+00  0.000000D+00  0.000000D+00  0.000000D+00  0.000000D+00
     14   0.000000D+00  0.498510D-01  0.000000D+00  0.000000D+00  0.000000D+00
     15   0.660723D+00  0.000000D+00 -0.676685D-01 -0.665917D-01  0.000000D+00
     16   0.000000D+00  0.000000D+00  0.000000D+00  0.000000D+00  0.475975D+00
               651           652           653           654           655 
      1  -0.234617D+03 -0.234593D+03 -0.234577D+03 -0.234564D+03 -0.234526D+03
      2   0.000000D+00 -0.430278D-01 -0.505509D+00  0.000000D+00  0.000000D+00
      3   0.000000D+00  0.000000D+00  0.000000D+00  0.000000D+00  0.000000D+00
      4   0.979827D-02  0.000000D+00  0.000000D+00  0.000000D+00 -0.162081D+00
      5   0.000000D+00  0.181970D+00  0.184242D+01  0.000000D+00  0.000000D+00
      6   0.000000D+00  0.000000D+00  0.000000D+00  0.000000D+00  0.000000D+00
      7  -0.330022D-01  0.000000D+00  0.000000D+00  0.000000D+00  0.571701D+00
      8   0.000000D+00  0.000000D+00  0.000000D+00  0.000000D+00  0.000000D+00
      9   0.000000D+00 -0.273193D+00 -0.791472D+00  0.000000D+00  0.000000D+00
     10   0.000000D+00  0.000000D+00  0.000000D+00 -0.104256D+01  0.000000D+00
     11  -0.865638D-01  0.000000D+00  0.000000D+00  0.000000D+00 -0.357808D-01
     12  -0.195728D+01  0.000000D+00  0.000000D+00  0.000000D+00  0.543015D+01
     13   0.413106D+00  0.000000D+00  0.000000D+00  0.000000D+00 -0.822334D+00
     14   0.000000D+00  0.000000D+00  0.000000D+00  0.961479D+00  0.000000D+00
     15   0.000000D+00 -0.175269D+00 -0.110464D+01  0.000000D+00  0.000000D+00
     16   0.000000D+00  0.000000D+00  0.000000D+00  0.000000D+00  0.000000D+00
               656           657           658           659           660 
      1  -0.234518D+03 -0.234500D+03 -0.234494D+03 -0.234461D+03 -0.234431D+03
      2   0.000000D+00  0.000000D+00  0.000000D+00  0.000000D+00  0.388104D+00
      3  -0.194939D+00  0.000000D+00  0.000000D+00  0.000000D+00  0.000000D+00
      4   0.000000D+00  0.000000D+00  0.000000D+00  0.103548D-01  0.000000D+00
      5   0.000000D+00  0.000000D+00  0.000000D+00  0.000000D+00 -0.147094D+01
      6   0.711529D+00  0.000000D+00  0.000000D+00  0.000000D+00  0.000000D+00
      7   0.000000D+00  0.000000D+00  0.000000D+00 -0.893436D-01  0.000000D+00
      8   0.383503D+01  0.000000D+00  0.000000D+00  0.000000D+00  0.000000D+00
      9   0.000000D+00  0.000000D+00  0.000000D+00  0.000000D+00  0.849255D+00
     10   0.000000D+00  0.108637D+01 -0.378717D+01  0.000000D+00  0.000000D+00
     11   0.000000D+00  0.000000D+00  0.000000D+00 -0.675008D-01  0.000000D+00
     12   0.000000D+00  0.000000D+00  0.000000D+00  0.333078D+01  0.000000D+00
     13   0.000000D+00  0.000000D+00  0.000000D+00  0.265415D-01  0.000000D+00
     14   0.000000D+00 -0.114346D+01  0.420294D+01  0.000000D+00  0.000000D+00
     15   0.000000D+00  0.000000D+00  0.000000D+00  0.000000D+00  0.106304D+01
     16   0.316696D+01  0.000000D+00  0.000000D+00  0.000000D+00  0.000000D+00
               661           662           663           664           665 
      1  -0.234415D+03 -0.234411D+03 -0.234396D+03 -0.234396D+03 -0.234375D+03
      2   0.000000D+00  0.000000D+00 -0.236497D-01  0.000000D+00  0.000000D+00
      3   0.294556D+00  0.000000D+00  0.000000D+00  0.000000D+00  0.359104D+00
      4   0.000000D+00  0.362403D+00  0.000000D+00  0.226234D+00  0.000000D+00
      5   0.000000D+00  0.000000D+00  0.882227D-01  0.000000D+00  0.000000D+00
      6  -0.113138D+01  0.000000D+00  0.000000D+00  0.000000D+00 -0.145455D+01
      7   0.000000D+00 -0.140637D+01  0.000000D+00 -0.874144D+00  0.000000D+00
      8  -0.145531D+01  0.000000D+00  0.000000D+00  0.000000D+00  0.654040D+00
      9   0.000000D+00  0.000000D+00  0.804563D-01  0.000000D+00  0.000000D+00
     10   0.000000D+00  0.000000D+00  0.000000D+00  0.000000D+00  0.000000D+00
     11   0.000000D+00 -0.718114D-01  0.000000D+00 -0.493103D-01  0.000000D+00
     12   0.000000D+00 -0.239751D+01  0.000000D+00  0.573342D+00  0.000000D+00
     13   0.000000D+00  0.188107D+01  0.000000D+00  0.128573D+01  0.000000D+00
     14   0.000000D+00  0.000000D+00  0.000000D+00  0.000000D+00  0.000000D+00
     15   0.000000D+00  0.000000D+00  0.151573D+00  0.000000D+00  0.000000D+00
     16  -0.618460D+00  0.000000D+00  0.000000D+00  0.000000D+00  0.234694D+01
               666           667           668           669           670 
      1  -0.234305D+03 -0.234289D+03 -0.234288D+03 -0.234276D+03 -0.234266D+03
      2   0.000000D+00  0.000000D+00  0.000000D+00  0.249560D-02  0.000000D+00
      3   0.000000D+00  0.165274D+00  0.000000D+00  0.000000D+00  0.000000D+00
      4   0.000000D+00  0.000000D+00 -0.764731D-01  0.000000D+00  0.173224D+00
      5   0.000000D+00  0.000000D+00  0.000000D+00 -0.137497D-01  0.000000D+00
      6   0.000000D+00 -0.702365D+00  0.000000D+00  0.000000D+00  0.000000D+00
      7   0.000000D+00  0.000000D+00  0.285968D+00  0.000000D+00 -0.716506D+00
      8   0.000000D+00  0.183460D+01  0.000000D+00  0.000000D+00  0.000000D+00
      9   0.000000D+00  0.000000D+00  0.000000D+00  0.215661D-01  0.000000D+00
     10  -0.104617D+01  0.000000D+00  0.000000D+00  0.000000D+00  0.000000D+00
     11   0.000000D+00  0.000000D+00  0.524656D+00  0.000000D+00 -0.249845D+00
     12   0.000000D+00  0.000000D+00  0.167186D+00  0.000000D+00  0.536391D+01
     13   0.000000D+00  0.000000D+00 -0.150068D+00  0.000000D+00  0.586106D+00
     14   0.128537D+01  0.000000D+00  0.000000D+00  0.000000D+00  0.000000D+00
     15   0.000000D+00  0.000000D+00  0.000000D+00  0.742110D+00  0.000000D+00
     16   0.000000D+00  0.243953D+01  0.000000D+00  0.000000D+00  0.000000D+00
               671           672           673           674           675 
      1  -0.234258D+03 -0.234249D+03 -0.234245D+03 -0.234245D+03 -0.234223D+03
      2   0.000000D+00  0.000000D+00  0.000000D+00  0.000000D+00  0.000000D+00
      3   0.000000D+00  0.000000D+00 -0.821064D-02  0.000000D+00 -0.675582D-01
      4  -0.112516D+00  0.000000D+00  0.000000D+00 -0.104686D+00  0.000000D+00
      5   0.000000D+00  0.000000D+00  0.000000D+00  0.000000D+00  0.000000D+00
      6   0.000000D+00  0.000000D+00  0.264983D-01  0.000000D+00  0.256541D+00
      7   0.447648D+00  0.000000D+00  0.000000D+00  0.519757D+00  0.000000D+00
      8   0.000000D+00  0.000000D+00  0.186868D+00  0.000000D+00  0.720804D+00
      9   0.000000D+00  0.000000D+00  0.000000D+00  0.000000D+00  0.000000D+00
     10   0.000000D+00  0.134659D+00  0.000000D+00  0.000000D+00  0.000000D+00
     11  -0.764427D+00  0.000000D+00  0.000000D+00  0.254133D+00  0.000000D+00
     12  -0.115813D+01  0.000000D+00  0.000000D+00 -0.438510D+01  0.000000D+00
     13   0.460485D+00  0.000000D+00  0.000000D+00 -0.111056D+01  0.000000D+00
     14   0.000000D+00 -0.684712D+00  0.000000D+00  0.000000D+00  0.000000D+00
     15   0.000000D+00  0.000000D+00  0.000000D+00  0.000000D+00  0.000000D+00
     16   0.000000D+00  0.000000D+00 -0.335852D+00  0.000000D+00  0.466811D+00
               676           677           678           679           680 
      1  -0.234192D+03 -0.234169D+03 -0.234163D+03 -0.234161D+03 -0.234148D+03
      2   0.000000D+00  0.000000D+00  0.000000D+00  0.666395D-01  0.000000D+00
      3   0.000000D+00 -0.260658D-02  0.000000D+00  0.000000D+00  0.000000D+00
      4   0.000000D+00  0.000000D+00  0.000000D+00  0.000000D+00 -0.125004D-01
      5   0.000000D+00  0.000000D+00  0.000000D+00 -0.251786D+00  0.000000D+00
      6   0.000000D+00  0.441198D-02  0.000000D+00  0.000000D+00  0.000000D+00
      7   0.000000D+00  0.000000D+00  0.000000D+00  0.000000D+00  0.513059D-01
      8   0.000000D+00  0.752665D-01  0.000000D+00  0.000000D+00  0.000000D+00
      9   0.000000D+00  0.000000D+00  0.000000D+00  0.827201D-01  0.000000D+00
     10   0.617220D+00  0.000000D+00  0.371086D+00  0.000000D+00  0.000000D+00
     11   0.000000D+00  0.000000D+00  0.000000D+00  0.000000D+00  0.448210D+00
     12   0.000000D+00  0.000000D+00  0.000000D+00  0.000000D+00 -0.249938D+00
     13   0.000000D+00  0.000000D+00  0.000000D+00  0.000000D+00 -0.302275D+00
     14  -0.178828D+00  0.000000D+00  0.480731D-02  0.000000D+00  0.000000D+00
     15   0.000000D+00  0.000000D+00  0.000000D+00 -0.461506D+00  0.000000D+00
     16   0.000000D+00  0.640105D-01  0.000000D+00  0.000000D+00  0.000000D+00
               681           682           683           684           685 
      1  -0.234139D+03 -0.234117D+03 -0.234049D+03 -0.233999D+03 -0.233974D+03
      2   0.000000D+00  0.863987D-01  0.169694D-01  0.000000D+00  0.000000D+00
      3  -0.955578D-01  0.000000D+00  0.000000D+00  0.000000D+00 -0.236864D-01
      4   0.000000D+00  0.000000D+00  0.000000D+00  0.000000D+00  0.000000D+00
      5   0.000000D+00 -0.339606D+00 -0.801110D-01  0.000000D+00  0.000000D+00
      6   0.508151D+00  0.000000D+00  0.000000D+00  0.000000D+00  0.107691D+00
      7   0.000000D+00  0.000000D+00  0.000000D+00  0.000000D+00  0.000000D+00
      8  -0.450225D+00  0.000000D+00  0.000000D+00  0.000000D+00  0.420038D+00
      9   0.000000D+00  0.194105D+00  0.621475D-01  0.000000D+00  0.000000D+00
     10   0.000000D+00  0.000000D+00  0.000000D+00  0.468765D+00  0.000000D+00
     11   0.000000D+00  0.000000D+00  0.000000D+00  0.000000D+00  0.000000D+00
     12   0.000000D+00  0.000000D+00  0.000000D+00  0.000000D+00  0.000000D+00
     13   0.000000D+00  0.000000D+00  0.000000D+00  0.000000D+00  0.000000D+00
     14   0.000000D+00  0.000000D+00  0.000000D+00 -0.208361D+00  0.000000D+00
     15   0.000000D+00 -0.222475D-01 -0.135823D+00  0.000000D+00  0.000000D+00
     16  -0.193283D+01  0.000000D+00  0.000000D+00  0.000000D+00  0.106389D+00
               686           687           688           689           690 
      1  -0.233918D+03 -0.233777D+03 -0.233726D+03 -0.233649D+03 -0.233600D+03
      2   0.000000D+00  0.000000D+00  0.000000D+00  0.000000D+00  0.000000D+00
      3   0.000000D+00  0.429593D-01  0.000000D+00  0.000000D+00 -0.300047D-03
      4  -0.465887D-01  0.000000D+00 -0.177164D-01  0.174407D-01  0.000000D+00
      5   0.000000D+00  0.000000D+00  0.000000D+00  0.000000D+00  0.000000D+00
      6   0.000000D+00 -0.253207D+00  0.000000D+00  0.000000D+00  0.866413D-01
      7   0.191384D+00  0.000000D+00  0.156425D+00 -0.869154D-01  0.000000D+00
      8   0.000000D+00  0.220572D+00  0.000000D+00  0.000000D+00 -0.109846D+00
      9   0.000000D+00  0.000000D+00  0.000000D+00  0.000000D+00  0.000000D+00
     10   0.000000D+00  0.000000D+00  0.000000D+00  0.000000D+00  0.000000D+00
     11   0.510099D-01  0.000000D+00 -0.237103D+00  0.119207D+00  0.000000D+00
     12   0.423823D+00  0.000000D+00 -0.830330D+00  0.763711D-01  0.000000D+00
     13   0.116333D+00  0.000000D+00 -0.243599D+00 -0.110583D+00  0.000000D+00
     14   0.000000D+00  0.000000D+00  0.000000D+00  0.000000D+00  0.000000D+00
     15   0.000000D+00  0.000000D+00  0.000000D+00  0.000000D+00  0.000000D+00
     16   0.000000D+00  0.395210D-01  0.000000D+00  0.000000D+00 -0.131283D+00
 Unable to Open any file for archive entry.
 1\1\GINC-HEL02\SP\RwB97XD TD-FC\Gen\C1H2F2\RR\12-Feb-2022\0\\#P TD(Nst
 ates=10000) wB97XD/Gen SCF(maxcycles=100) Int(Grid=ultrafine)\\xGDB7_0
 0001_tier4.com\\0,1\F,0,0.,1.096529,-0.287503\C,0,0.,0.,0.492273\F,0,0
 .,-1.096529,-0.287503\H,0,-0.913384,0.,1.110708\H,0,0.913384,0.,1.1107
 08\\Version=EM64L-G16RevC.01\State=1-A1\HF=-238.7528966\RMSD=8.852e-09
 \PG=C02V [C2(C1),SGV(F2),SGV'(H2)]\\@
 The archive entry for this job was punched.


 SILVERMAN'S PARADOX - IF MURPHY'S LAW CAN GO WRONG, IT WILL.
 Job cpu time:       0 days  0 hours  2 minutes 33.6 seconds.
 Elapsed time:       0 days  0 hours  0 minutes 19.5 seconds.
 File lengths (MBytes):  RWF=    605 Int=      0 D2E=      0 Chk=    119 Scr=      1
 Normal termination of Gaussian 16 at Sat Feb 12 22:23:01 2022.
