 Entering Gaussian System, Link 0=g16
 Input=bigQM7w_TDwB97XD_def2SVPD_000026.com
 Output=bigQM7w_TDwB97XD_def2SVPD_000026.log
 Initial command:
 /home/rr/g16/l1.exe "/scratch/rr/PBS_7839471.helios/Gau-84828.inp" -scrdir="/scratch/rr/PBS_7839471.helios/"
 Entering Link 1 = /home/rr/g16/l1.exe PID=     84836.
  
 Copyright (c) 1988-2019, Gaussian, Inc.  All Rights Reserved.
  
 This is part of the Gaussian(R) 16 program.  It is based on
 the Gaussian(R) 09 system (copyright 2009, Gaussian, Inc.),
 the Gaussian(R) 03 system (copyright 2003, Gaussian, Inc.),
 the Gaussian(R) 98 system (copyright 1998, Gaussian, Inc.),
 the Gaussian(R) 94 system (copyright 1995, Gaussian, Inc.),
 the Gaussian 92(TM) system (copyright 1992, Gaussian, Inc.),
 the Gaussian 90(TM) system (copyright 1990, Gaussian, Inc.),
 the Gaussian 88(TM) system (copyright 1988, Gaussian, Inc.),
 the Gaussian 86(TM) system (copyright 1986, Carnegie Mellon
 University), and the Gaussian 82(TM) system (copyright 1983,
 Carnegie Mellon University). Gaussian is a federally registered
 trademark of Gaussian, Inc.
  
 This software contains proprietary and confidential information,
 including trade secrets, belonging to Gaussian, Inc.
  
 This software is provided under written license and may be
 used, copied, transmitted, or stored only in accord with that
 written license.
  
 The following legend is applicable only to US Government
 contracts under FAR:
  
                    RESTRICTED RIGHTS LEGEND
  
 Use, reproduction and disclosure by the US Government is
 subject to restrictions as set forth in subparagraphs (a)
 and (c) of the Commercial Computer Software - Restricted
 Rights clause in FAR 52.227-19.
  
 Gaussian, Inc.
 340 Quinnipiac St., Bldg. 40, Wallingford CT 06492
  
  
 ---------------------------------------------------------------
 Warning -- This program may not be used in any manner that
 competes with the business of Gaussian, Inc. or will provide
 assistance to any competitor of Gaussian, Inc.  The licensee
 of this program is prohibited from giving any competitor of
 Gaussian, Inc. access to this program.  By using this program,
 the user acknowledges that Gaussian, Inc. is engaged in the
 business of creating and licensing software in the field of
 computational chemistry and represents and warrants to the
 licensee that it is not a competitor of Gaussian, Inc. and that
 it will not use this program in any manner prohibited above.
 ---------------------------------------------------------------
  

 Cite this work as:
 Gaussian 16, Revision C.01,
 M. J. Frisch, G. W. Trucks, H. B. Schlegel, G. E. Scuseria, 
 M. A. Robb, J. R. Cheeseman, G. Scalmani, V. Barone, 
 G. A. Petersson, H. Nakatsuji, X. Li, M. Caricato, A. V. Marenich, 
 J. Bloino, B. G. Janesko, R. Gomperts, B. Mennucci, H. P. Hratchian, 
 J. V. Ortiz, A. F. Izmaylov, J. L. Sonnenberg, D. Williams-Young, 
 F. Ding, F. Lipparini, F. Egidi, J. Goings, B. Peng, A. Petrone, 
 T. Henderson, D. Ranasinghe, V. G. Zakrzewski, J. Gao, N. Rega, 
 G. Zheng, W. Liang, M. Hada, M. Ehara, K. Toyota, R. Fukuda, 
 J. Hasegawa, M. Ishida, T. Nakajima, Y. Honda, O. Kitao, H. Nakai, 
 T. Vreven, K. Throssell, J. A. Montgomery, Jr., J. E. Peralta, 
 F. Ogliaro, M. J. Bearpark, J. J. Heyd, E. N. Brothers, K. N. Kudin, 
 V. N. Staroverov, T. A. Keith, R. Kobayashi, J. Normand, 
 K. Raghavachari, A. P. Rendell, J. C. Burant, S. S. Iyengar, 
 J. Tomasi, M. Cossi, J. M. Millam, M. Klene, C. Adamo, R. Cammi, 
 J. W. Ochterski, R. L. Martin, K. Morokuma, O. Farkas, 
 J. B. Foresman, and D. J. Fox, Gaussian, Inc., Wallingford CT, 2019.
 
 ******************************************
 Gaussian 16:  EM64L-G16RevC.01  3-Jul-2019
                12-Feb-2022 
 ******************************************
 %mem=64gb
 %nproc=8
 Will use up to    8 processors via shared memory.
 ----------------------------------------------------------------------
 #P TD(Nstates=10000) wB97XD/Gen SCF(maxcycles=100) Int(Grid=ultrafine)
 ----------------------------------------------------------------------
 1/38=1,172=1/1;
 2/12=2,17=6,18=5,40=1/2;
 3/5=7,11=9,25=1,30=1,74=-58,75=-5/1,2,3,8;
 4//1;
 5/5=2,7=100,38=5/2;
 8/6=1,10=1,108=10000/1;
 9/41=10000,42=1,70=2/14;
 6/7=2,8=2,9=2,10=2/1;
 99/5=1,9=1/99;
 Leave Link    1 at Sat Feb 12 22:17:54 2022, MaxMem=  8589934592 cpu:               0.4 elap:               0.1
 (Enter /home/rr/g16/l101.exe)
 ---------------------
 xGDB7_00001_tier4.com
 ---------------------
 Symbolic Z-matrix:
 Charge =  0 Multiplicity = 1
 8                    -1.02447  -0.43408   0. 
 6                     0.        0.41839   0. 
 8                     1.15359   0.10405   0. 
 1                    -0.65527  -1.33095   0. 
 1                    -0.37769   1.4609    0. 
 
 ITRead=  0  0  0  0  0
 MicOpt= -1 -1 -1 -1 -1
 NAtoms=      5 NQM=        5 NQMF=       0 NMMI=      0 NMMIF=      0
                NMic=       0 NMicF=      0.
                    Isotopes and Nuclear Properties:
 (Nuclear quadrupole moments (NQMom) in fm**2, nuclear magnetic moments (NMagM)
  in nuclear magnetons)

  Atom         1           2           3           4           5
 IAtWgt=          16          12          16           1           1
 AtmWgt=  15.9949146  12.0000000  15.9949146   1.0078250   1.0078250
 NucSpn=           0           0           0           1           1
 AtZEff=  -0.0000000  -0.0000000  -0.0000000  -0.0000000  -0.0000000
 NQMom=    0.0000000   0.0000000   0.0000000   0.0000000   0.0000000
 NMagM=    0.0000000   0.0000000   0.0000000   2.7928460   2.7928460
 AtZNuc=   8.0000000   6.0000000   8.0000000   1.0000000   1.0000000
 Leave Link  101 at Sat Feb 12 22:17:54 2022, MaxMem=  8589934592 cpu:               0.7 elap:               0.1
 (Enter /home/rr/g16/l202.exe)
                          Input orientation:                          
 ---------------------------------------------------------------------
 Center     Atomic      Atomic             Coordinates (Angstroms)
 Number     Number       Type             X           Y           Z
 ---------------------------------------------------------------------
      1          8           0       -1.024468   -0.434082    0.000000
      2          6           0        0.000000    0.418387    0.000000
      3          8           0        1.153588    0.104048    0.000000
      4          1           0       -0.655274   -1.330952    0.000000
      5          1           0       -0.377689    1.460904    0.000000
 ---------------------------------------------------------------------
                    Distance matrix (angstroms):
                    1          2          3          4          5
     1  O    0.000000
     2  C    1.332756   0.000000
     3  O    2.243549   1.195648   0.000000
     4  H    0.969887   1.868039   2.308941   0.000000
     5  H    2.002322   1.108824   2.045939   2.805622   0.000000
 Stoichiometry    CH2O2
 Framework group  CS[SG(CH2O2)]
 Deg. of freedom     7
 Full point group                 CS      NOp   2
 Largest Abelian subgroup         CS      NOp   2
 Largest concise Abelian subgroup C1      NOp   1
                         Standard orientation:                         
 ---------------------------------------------------------------------
 Center     Atomic      Atomic             Coordinates (Angstroms)
 Number     Number       Type             X           Y           Z
 ---------------------------------------------------------------------
      1          8           0       -1.024468   -0.434082   -0.000000
      2          6           0        0.000000    0.418387    0.000000
      3          8           0        1.153588    0.104048    0.000000
      4          1           0       -0.655273   -1.330952   -0.000000
      5          1           0       -0.377689    1.460904    0.000000
 ---------------------------------------------------------------------
 Rotational constants (GHZ):          77.7802559          12.2212822          10.5617579
 Leave Link  202 at Sat Feb 12 22:17:54 2022, MaxMem=  8589934592 cpu:               0.1 elap:               0.0
 (Enter /home/rr/g16/l301.exe)
 General basis read from cards:  (5D, 7F)
 Centers:       4      5
 S 3 1.00
     Exponent=  1.3010701000D+01 Coefficients=  1.9682158000D-02
     Exponent=  1.9622572000D+00 Coefficients=  1.3796524000D-01
     Exponent=  4.4453796000D-01 Coefficients=  4.7831935000D-01
 S 1 1.00
     Exponent=  1.2194962000D-01 Coefficients=  1.0000000000D+00
 P 1 1.00
     Exponent=  8.0000000000D-01 Coefficients=  1.0000000000D+00
 P 1 1.00
     Exponent=  1.1704099050D-01 Coefficients=  1.0000000000D+00
 ****
 Centers:       2
 S 5 1.00
     Exponent=  1.2384016938D+03 Coefficients=  5.4568832082D-03
     Exponent=  1.8629004992D+02 Coefficients=  4.0638409211D-02
     Exponent=  4.2251176346D+01 Coefficients=  1.8025593888D-01
     Exponent=  1.1676557932D+01 Coefficients=  4.6315121755D-01
     Exponent=  3.5930506482D+00 Coefficients=  4.4087173314D-01
 S 1 1.00
     Exponent=  4.0245147363D-01 Coefficients=  1.0000000000D+00
 S 1 1.00
     Exponent=  1.3090182668D-01 Coefficients=  1.0000000000D+00
 S 1 1.00
     Exponent=  6.7053540256D-02 Coefficients=  1.0000000000D+00
 P 3 1.00
     Exponent=  9.4680970621D+00 Coefficients=  3.8387871728D-02
     Exponent=  2.0103545142D+00 Coefficients=  2.1117025112D-01
     Exponent=  5.4771004707D-01 Coefficients=  5.1328172114D-01
 P 1 1.00
     Exponent=  1.5268613795D-01 Coefficients=  1.0000000000D+00
 D 1 1.00
     Exponent=  8.0000000000D-01 Coefficients=  1.0000000000D+00
 D 1 1.00
     Exponent=  1.1713185140D-01 Coefficients=  1.0000000000D+00
 ****
 Centers:       1      3
 S 5 1.00
     Exponent=  2.2661767785D+03 Coefficients= -5.3431809926D-03
     Exponent=  3.4087010191D+02 Coefficients= -3.9890039230D-02
     Exponent=  7.7363135167D+01 Coefficients= -1.7853911985D-01
     Exponent=  2.1479644940D+01 Coefficients= -4.6427684959D-01
     Exponent=  6.6589433124D+00 Coefficients= -4.4309745172D-01
 S 1 1.00
     Exponent=  8.0975975668D-01 Coefficients=  1.0000000000D+00
 S 1 1.00
     Exponent=  2.5530772234D-01 Coefficients=  1.0000000000D+00
 S 1 1.00
     Exponent=  7.6572453250D-02 Coefficients=  1.0000000000D+00
 P 3 1.00
     Exponent=  1.7721504317D+01 Coefficients=  4.3394573193D-02
     Exponent=  3.8635505440D+00 Coefficients=  2.3094120765D-01
     Exponent=  1.0480920883D+00 Coefficients=  5.1375311064D-01
 P 1 1.00
     Exponent=  2.7641544411D-01 Coefficients=  1.0000000000D+00
 P 1 1.00
     Exponent=  6.9002276350D-02 Coefficients=  1.0000000000D+00
 D 1 1.00
     Exponent=  1.2000000000D+00 Coefficients=  1.0000000000D+00
 D 1 1.00
     Exponent=  1.7992024323D-01 Coefficients=  1.0000000000D+00
 ****
 Ernie: Thresh=  0.10000D-02 Tol=  0.10000D-05 Strict=F.
 There are    64 symmetry adapted cartesian basis functions of A'  symmetry.
 There are    24 symmetry adapted cartesian basis functions of A"  symmetry.
 There are    58 symmetry adapted basis functions of A'  symmetry.
 There are    24 symmetry adapted basis functions of A"  symmetry.
    82 basis functions,   122 primitive gaussians,    88 cartesian basis functions
    12 alpha electrons       12 beta electrons
       nuclear repulsion energy        70.5317228441 Hartrees.
 IExCor= 4639 DFT=T Ex+Corr=wB97XD ExCW=0 ScaHFX=  1.000000
 ScaDFX=  1.000000  1.000000  1.000000  1.000000 ScalE2=  1.000000  1.000000
 IRadAn=      5 IRanWt=     -1 IRanGd=            0 ICorTp=0 IEmpDi=121
 HFx  wShort=  0.000000 wLong=  0.200000 cFull=  0.222036 cShort=  0.000000 cLong=  0.777964
 DFx  wShort=  0.000000 wLong=  0.200000 cFull=  0.000000 cShort=  0.000000 cLong=  1.000000
 NAtoms=    5 NActive=    5 NUniq=    5 SFac= 1.00D+00 NAtFMM=   60 NAOKFM=F Big=F
 Integral buffers will be    131072 words long.
 Raffenetti 1 integral format.
 Two-electron integral symmetry is turned on.
 R6Disp:  Grimme-D2 Dispersion energy=       -0.0003649151 Hartrees.
 Nuclear repulsion after empirical dispersion term =       70.5313579290 Hartrees.
 Leave Link  301 at Sat Feb 12 22:17:54 2022, MaxMem=  8589934592 cpu:               0.5 elap:               0.1
 (Enter /home/rr/g16/l302.exe)
 NPDir=0 NMtPBC=     1 NCelOv=     1 NCel=       1 NClECP=     1 NCelD=      1
         NCelK=      1 NCelE2=     1 NClLst=     1 CellRange=     0.0.
 One-electron integrals computed using PRISM.
 One-electron integral symmetry used in STVInt
 NBasis=    82 RedAO= T EigKep=  3.68D-04  NBF=    58    24
 NBsUse=    82 1.00D-06 EigRej= -1.00D+00 NBFU=    58    24
 Precomputing XC quadrature grid using
 IXCGrd= 4 IRadAn=           5 IRanWt=          -1 IRanGd=           0 AccXCQ= 0.00D+00.
 Generated NRdTot=       0 NPtTot=           0 NUsed=           0 NTot=          32
 NSgBfM=    88    88    88    88    88 MxSgAt=     5 MxSgA2=     5.
 Leave Link  302 at Sat Feb 12 22:17:54 2022, MaxMem=  8589934592 cpu:               1.0 elap:               0.1
 (Enter /home/rr/g16/l303.exe)
 DipDrv:  MaxL=1.
 Leave Link  303 at Sat Feb 12 22:17:55 2022, MaxMem=  8589934592 cpu:               0.2 elap:               0.1
 (Enter /home/rr/g16/l308.exe)
 Leave Link  308 at Sat Feb 12 22:17:55 2022, MaxMem=  8589934592 cpu:               0.2 elap:               0.1
 (Enter /home/rr/g16/l401.exe)
 ExpMin= 6.71D-02 ExpMax= 2.27D+03 ExpMxC= 3.41D+02 IAcc=3 IRadAn=         5 AccDes= 0.00D+00
 Harris functional with IExCor= 4639 and IRadAn=       5 diagonalized for initial guess.
 HarFok:  IExCor= 4639 AccDes= 0.00D+00 IRadAn=         5 IDoV= 1 UseB2=F ITyADJ=14
 ICtDFT=  3500011 ScaDFX=  1.000000  1.000000  1.000000  1.000000
 FoFCou: FMM=F IPFlag=           0 FMFlag=      100000 FMFlg1=           0
         NFxFlg=           0 DoJE=T BraDBF=F KetDBF=T FulRan=T
         wScrn=  0.000000 ICntrl=       500 IOpCl=  0 I1Cent=   200000004 NGrid=           0
         NMat0=    1 NMatS0=      1 NMatT0=    0 NMatD0=    1 NMtDS0=    0 NMtDT0=    0
 Petite list used in FoFCou.
 Harris En= -182.625645682700    
 JPrj=0 DoOrth=F DoCkMO=F.
 Initial guess orbital symmetries:
       Occupied  (A') (A') (A') (A') (A') (A') (A') (A') (A") (A')
                 (A") (A')
       Virtual   (A') (A") (A') (A') (A") (A') (A') (A") (A') (A')
                 (A") (A') (A') (A") (A') (A') (A') (A') (A") (A')
                 (A') (A") (A') (A') (A') (A") (A') (A') (A') (A")
                 (A") (A') (A') (A") (A') (A") (A') (A') (A') (A')
                 (A') (A") (A") (A') (A') (A') (A") (A') (A') (A")
                 (A') (A') (A") (A') (A') (A") (A') (A') (A') (A')
                 (A") (A') (A") (A") (A') (A") (A') (A') (A') (A')
 The electronic state of the initial guess is 1-A'.
 Leave Link  401 at Sat Feb 12 22:17:55 2022, MaxMem=  8589934592 cpu:               1.7 elap:               0.2
 (Enter /home/rr/g16/l502.exe)
 Keep R1 ints in memory in symmetry-blocked form, NReq=19191110.
 FoFCou: FMM=F IPFlag=           0 FMFlag=           0 FMFlg1=           0
         NFxFlg=           0 DoJE=F BraDBF=F KetDBF=F FulRan=T
         wScrn=  0.000000 ICntrl=       600 IOpCl=  0 I1Cent=           0 NGrid=           0
         NMat0=    1 NMatS0=   3403 NMatT0=    0 NMatD0=    1 NMtDS0=    0 NMtDT0=    0
 Petite list used in FoFCou.
 Closed shell SCF:
 Using DIIS extrapolation, IDIIS=  1040.
 NGot=  8589934592 LenX=  8586916656 LenY=  8586908471
 Requested convergence on RMS density matrix=1.00D-08 within 100 cycles.
 Requested convergence on MAX density matrix=1.00D-06.
 Requested convergence on             energy=1.00D-06.
 No special actions if energy rises.
 Integral accuracy reduced to 1.0D-05 until final iterations.

 Cycle   1  Pass 0  IDiag  1:
 E= -189.524053020704    
 DIIS: error= 3.01D-02 at cycle   1 NSaved=   1.
 NSaved= 1 IEnMin= 1 EnMin= -189.524053020704     IErMin= 1 ErrMin= 3.01D-02
 ErrMax= 3.01D-02  0.00D+00 EMaxC= 1.00D-01 BMatC= 1.09D-01 BMatP= 1.09D-01
 IDIUse=3 WtCom= 6.99D-01 WtEn= 3.01D-01
 Coeff-Com:  0.100D+01
 Coeff-En:   0.100D+01
 Coeff:      0.100D+01
 Gap=     0.443 Goal=   None    Shift=    0.000
 GapD=    0.443 DampG=2.000 DampE=0.500 DampFc=1.0000 IDamp=-1.
 RMSDP=7.86D-03 MaxDP=2.00D-01              OVMax= 8.65D-02

 Cycle   2  Pass 0  IDiag  1:
 E= -189.546450247958     Delta-E=       -0.022397227254 Rises=F Damp=F
 DIIS: error= 1.57D-02 at cycle   2 NSaved=   2.
 NSaved= 2 IEnMin= 2 EnMin= -189.546450247958     IErMin= 2 ErrMin= 1.57D-02
 ErrMax= 1.57D-02  0.00D+00 EMaxC= 1.00D-01 BMatC= 4.18D-02 BMatP= 1.09D-01
 IDIUse=3 WtCom= 8.43D-01 WtEn= 1.57D-01
 Coeff-Com:  0.358D+00 0.642D+00
 Coeff-En:   0.310D+00 0.690D+00
 Coeff:      0.351D+00 0.649D+00
 Gap=     0.457 Goal=   None    Shift=    0.000
 RMSDP=2.27D-03 MaxDP=6.01D-02 DE=-2.24D-02 OVMax= 5.91D-02

 Cycle   3  Pass 0  IDiag  1:
 E= -189.570892512024     Delta-E=       -0.024442264066 Rises=F Damp=F
 DIIS: error= 6.82D-03 at cycle   3 NSaved=   3.
 NSaved= 3 IEnMin= 3 EnMin= -189.570892512024     IErMin= 3 ErrMin= 6.82D-03
 ErrMax= 6.82D-03  0.00D+00 EMaxC= 1.00D-01 BMatC= 6.81D-03 BMatP= 4.18D-02
 IDIUse=3 WtCom= 9.32D-01 WtEn= 6.82D-02
 Coeff-Com:  0.552D-01 0.297D+00 0.648D+00
 Coeff-En:   0.000D+00 0.685D-01 0.932D+00
 Coeff:      0.514D-01 0.281D+00 0.668D+00
 Gap=     0.447 Goal=   None    Shift=    0.000
 RMSDP=9.02D-04 MaxDP=2.11D-02 DE=-2.44D-02 OVMax= 2.98D-02

 Cycle   4  Pass 0  IDiag  1:
 E= -189.575175083806     Delta-E=       -0.004282571782 Rises=F Damp=F
 DIIS: error= 2.56D-03 at cycle   4 NSaved=   4.
 NSaved= 4 IEnMin= 4 EnMin= -189.575175083806     IErMin= 4 ErrMin= 2.56D-03
 ErrMax= 2.56D-03  0.00D+00 EMaxC= 1.00D-01 BMatC= 8.43D-04 BMatP= 6.81D-03
 IDIUse=3 WtCom= 9.74D-01 WtEn= 2.56D-02
 Coeff-Com: -0.167D-02 0.891D-01 0.345D+00 0.567D+00
 Coeff-En:   0.000D+00 0.000D+00 0.348D-01 0.965D+00
 Coeff:     -0.162D-02 0.868D-01 0.337D+00 0.577D+00
 Gap=     0.452 Goal=   None    Shift=    0.000
 RMSDP=3.66D-04 MaxDP=7.68D-03 DE=-4.28D-03 OVMax= 8.18D-03

 Cycle   5  Pass 0  IDiag  1:
 E= -189.575764634345     Delta-E=       -0.000589550538 Rises=F Damp=F
 DIIS: error= 5.82D-04 at cycle   5 NSaved=   5.
 NSaved= 5 IEnMin= 5 EnMin= -189.575764634345     IErMin= 5 ErrMin= 5.82D-04
 ErrMax= 5.82D-04  0.00D+00 EMaxC= 1.00D-01 BMatC= 4.81D-05 BMatP= 8.43D-04
 IDIUse=3 WtCom= 9.94D-01 WtEn= 5.82D-03
 Coeff-Com: -0.358D-02 0.239D-01 0.131D+00 0.292D+00 0.557D+00
 Coeff-En:   0.000D+00 0.000D+00 0.000D+00 0.000D+00 0.100D+01
 Coeff:     -0.356D-02 0.238D-01 0.130D+00 0.290D+00 0.559D+00
 Gap=     0.450 Goal=   None    Shift=    0.000
 RMSDP=8.56D-05 MaxDP=1.79D-03 DE=-5.90D-04 OVMax= 2.24D-03

 Cycle   6  Pass 0  IDiag  1:
 E= -189.575800610144     Delta-E=       -0.000035975800 Rises=F Damp=F
 DIIS: error= 9.51D-05 at cycle   6 NSaved=   6.
 NSaved= 6 IEnMin= 6 EnMin= -189.575800610144     IErMin= 6 ErrMin= 9.51D-05
 ErrMax= 9.51D-05  0.00D+00 EMaxC= 1.00D-01 BMatC= 1.71D-06 BMatP= 4.81D-05
 IDIUse=1 WtCom= 1.00D+00 WtEn= 0.00D+00
 Coeff-Com: -0.227D-03-0.121D-01-0.318D-01-0.427D-01 0.858D-01 0.100D+01
 Coeff:     -0.227D-03-0.121D-01-0.318D-01-0.427D-01 0.858D-01 0.100D+01
 Gap=     0.450 Goal=   None    Shift=    0.000
 RMSDP=7.42D-05 MaxDP=2.07D-03 DE=-3.60D-05 OVMax= 9.25D-04

 Cycle   7  Pass 0  IDiag  1:
 E= -189.575803763305     Delta-E=       -0.000003153161 Rises=F Damp=F
 DIIS: error= 2.12D-05 at cycle   7 NSaved=   7.
 NSaved= 7 IEnMin= 7 EnMin= -189.575803763305     IErMin= 7 ErrMin= 2.12D-05
 ErrMax= 2.12D-05  0.00D+00 EMaxC= 1.00D-01 BMatC= 7.52D-08 BMatP= 1.71D-06
 IDIUse=1 WtCom= 1.00D+00 WtEn= 0.00D+00
 Coeff-Com:  0.170D-03-0.278D-02-0.102D-01-0.226D-01-0.184D-01 0.866D-01
 Coeff-Com:  0.967D+00
 Coeff:      0.170D-03-0.278D-02-0.102D-01-0.226D-01-0.184D-01 0.866D-01
 Coeff:      0.967D+00
 Gap=     0.450 Goal=   None    Shift=    0.000
 RMSDP=1.48D-05 MaxDP=3.95D-04 DE=-3.15D-06 OVMax= 2.69D-04

 Cycle   8  Pass 0  IDiag  1:
 E= -189.575803959760     Delta-E=       -0.000000196455 Rises=F Damp=F
 DIIS: error= 6.77D-06 at cycle   8 NSaved=   8.
 NSaved= 8 IEnMin= 8 EnMin= -189.575803959760     IErMin= 8 ErrMin= 6.77D-06
 ErrMax= 6.77D-06  0.00D+00 EMaxC= 1.00D-01 BMatC= 6.85D-09 BMatP= 7.52D-08
 IDIUse=1 WtCom= 1.00D+00 WtEn= 0.00D+00
 Coeff-Com:  0.194D-04 0.113D-02 0.306D-02 0.321D-02-0.149D-02-0.879D-01
 Coeff-Com: -0.953D-01 0.118D+01
 Coeff:      0.194D-04 0.113D-02 0.306D-02 0.321D-02-0.149D-02-0.879D-01
 Coeff:     -0.953D-01 0.118D+01
 Gap=     0.450 Goal=   None    Shift=    0.000
 RMSDP=3.46D-06 MaxDP=7.05D-05 DE=-1.96D-07 OVMax= 9.37D-05

 Initial convergence to 1.0D-05 achieved.  Increase integral accuracy.
 Cycle   9  Pass 1  IDiag  1:
 E= -189.575810576427     Delta-E=       -0.000006616667 Rises=F Damp=F
 DIIS: error= 2.05D-05 at cycle   1 NSaved=   1.
 NSaved= 1 IEnMin= 1 EnMin= -189.575810576427     IErMin= 1 ErrMin= 2.05D-05
 ErrMax= 2.05D-05  0.00D+00 EMaxC= 1.00D-01 BMatC= 9.02D-08 BMatP= 9.02D-08
 IDIUse=1 WtCom= 1.00D+00 WtEn= 0.00D+00
 Coeff-Com:  0.100D+01
 Coeff:      0.100D+01
 Gap=     0.450 Goal=   None    Shift=    0.000
 RMSDP=3.46D-06 MaxDP=7.05D-05 DE=-6.62D-06 OVMax= 9.58D-05

 Cycle  10  Pass 1  IDiag  1:
 E= -189.575810657769     Delta-E=       -0.000000081342 Rises=F Damp=F
 DIIS: error= 3.27D-06 at cycle   2 NSaved=   2.
 NSaved= 2 IEnMin= 2 EnMin= -189.575810657769     IErMin= 2 ErrMin= 3.27D-06
 ErrMax= 3.27D-06  0.00D+00 EMaxC= 1.00D-01 BMatC= 2.36D-09 BMatP= 9.02D-08
 IDIUse=1 WtCom= 1.00D+00 WtEn= 0.00D+00
 Coeff-Com: -0.738D-01 0.107D+01
 Coeff:     -0.738D-01 0.107D+01
 Gap=     0.450 Goal=   None    Shift=    0.000
 RMSDP=1.36D-06 MaxDP=1.88D-05 DE=-8.13D-08 OVMax= 2.36D-05

 Cycle  11  Pass 1  IDiag  1:
 E= -189.575810659574     Delta-E=       -0.000000001805 Rises=F Damp=F
 DIIS: error= 3.69D-06 at cycle   3 NSaved=   3.
 NSaved= 3 IEnMin= 3 EnMin= -189.575810659574     IErMin= 2 ErrMin= 3.27D-06
 ErrMax= 3.69D-06  0.00D+00 EMaxC= 1.00D-01 BMatC= 1.73D-09 BMatP= 2.36D-09
 IDIUse=1 WtCom= 1.00D+00 WtEn= 0.00D+00
 Coeff-Com: -0.544D-01 0.527D+00 0.528D+00
 Coeff:     -0.544D-01 0.527D+00 0.528D+00
 Gap=     0.450 Goal=   None    Shift=    0.000
 RMSDP=3.89D-07 MaxDP=7.81D-06 DE=-1.80D-09 OVMax= 1.35D-05

 Cycle  12  Pass 1  IDiag  1:
 E= -189.575810660707     Delta-E=       -0.000000001133 Rises=F Damp=F
 DIIS: error= 1.07D-06 at cycle   4 NSaved=   4.
 NSaved= 4 IEnMin= 4 EnMin= -189.575810660707     IErMin= 4 ErrMin= 1.07D-06
 ErrMax= 1.07D-06  0.00D+00 EMaxC= 1.00D-01 BMatC= 1.38D-10 BMatP= 1.73D-09
 IDIUse=1 WtCom= 1.00D+00 WtEn= 0.00D+00
 Coeff-Com: -0.133D-01 0.695D-01 0.224D+00 0.720D+00
 Coeff:     -0.133D-01 0.695D-01 0.224D+00 0.720D+00
 Gap=     0.450 Goal=   None    Shift=    0.000
 RMSDP=1.29D-07 MaxDP=2.75D-06 DE=-1.13D-09 OVMax= 4.64D-06

 Cycle  13  Pass 1  IDiag  1:
 E= -189.575810660814     Delta-E=       -0.000000000106 Rises=F Damp=F
 DIIS: error= 2.55D-07 at cycle   5 NSaved=   5.
 NSaved= 5 IEnMin= 5 EnMin= -189.575810660814     IErMin= 5 ErrMin= 2.55D-07
 ErrMax= 2.55D-07  0.00D+00 EMaxC= 1.00D-01 BMatC= 1.13D-11 BMatP= 1.38D-10
 IDIUse=1 WtCom= 1.00D+00 WtEn= 0.00D+00
 Coeff-Com: -0.211D-03-0.206D-01 0.197D-01 0.247D+00 0.754D+00
 Coeff:     -0.211D-03-0.206D-01 0.197D-01 0.247D+00 0.754D+00
 Gap=     0.450 Goal=   None    Shift=    0.000
 RMSDP=4.62D-08 MaxDP=1.05D-06 DE=-1.06D-10 OVMax= 1.17D-06

 Cycle  14  Pass 1  IDiag  1:
 E= -189.575810660822     Delta-E=       -0.000000000008 Rises=F Damp=F
 DIIS: error= 1.12D-07 at cycle   6 NSaved=   6.
 NSaved= 6 IEnMin= 6 EnMin= -189.575810660822     IErMin= 6 ErrMin= 1.12D-07
 ErrMax= 1.12D-07  0.00D+00 EMaxC= 1.00D-01 BMatC= 1.94D-12 BMatP= 1.13D-11
 IDIUse=1 WtCom= 1.00D+00 WtEn= 0.00D+00
 Coeff-Com:  0.136D-02-0.163D-01-0.189D-01 0.326D-01 0.363D+00 0.638D+00
 Coeff:      0.136D-02-0.163D-01-0.189D-01 0.326D-01 0.363D+00 0.638D+00
 Gap=     0.450 Goal=   None    Shift=    0.000
 RMSDP=1.34D-08 MaxDP=2.41D-07 DE=-8.07D-12 OVMax= 2.97D-07

 Cycle  15  Pass 1  IDiag  1:
 E= -189.575810660823     Delta-E=       -0.000000000002 Rises=F Damp=F
 DIIS: error= 1.21D-08 at cycle   7 NSaved=   7.
 NSaved= 7 IEnMin= 7 EnMin= -189.575810660823     IErMin= 7 ErrMin= 1.21D-08
 ErrMax= 1.21D-08  0.00D+00 EMaxC= 1.00D-01 BMatC= 2.73D-14 BMatP= 1.94D-12
 IDIUse=1 WtCom= 1.00D+00 WtEn= 0.00D+00
 Coeff-Com:  0.261D-03-0.187D-02-0.506D-02-0.749D-02 0.193D-01 0.960D-01
 Coeff-Com:  0.899D+00
 Coeff:      0.261D-03-0.187D-02-0.506D-02-0.749D-02 0.193D-01 0.960D-01
 Coeff:      0.899D+00
 Gap=     0.450 Goal=   None    Shift=    0.000
 RMSDP=3.51D-09 MaxDP=4.70D-08 DE=-1.53D-12 OVMax= 8.83D-08

 SCF Done:  E(RwB97XD) =  -189.575810661     A.U. after   15 cycles
            NFock= 15  Conv=0.35D-08     -V/T= 2.0083
 KE= 1.880191058856D+02 PE=-5.865603606249D+02 EE= 1.384340861495D+02
 Leave Link  502 at Sat Feb 12 22:17:56 2022, MaxMem=  8589934592 cpu:              11.0 elap:               1.4
 (Enter /home/rr/g16/l801.exe)
 DoSCS=F DFT=T ScalE2(SS,OS)=  1.000000  1.000000
 ExpMin= 6.71D-02 ExpMax= 2.27D+03 ExpMxC= 3.41D+02 IAcc=3 IRadAn=         5 AccDes= 0.00D+00
 HarFok:  IExCor=  205 AccDes= 0.00D+00 IRadAn=         5 IDoV=-2 UseB2=F ITyADJ=14
 ICtDFT= 12500011 ScaDFX=  1.000000  1.000000  1.000000  1.000000
 Largest valence mixing into a core orbital is  7.41D-05
 Largest core mixing into a valence orbital is  1.41D-05
 Range of M.O.s used for correlation:     4    82
 NBasis=    82 NAE=    12 NBE=    12 NFC=     3 NFV=     0
 NROrb=     79 NOA=     9 NOB=     9 NVA=    70 NVB=    70

 **** Warning!!: The largest alpha MO coefficient is  0.17104300D+02

 Leave Link  801 at Sat Feb 12 22:17:56 2022, MaxMem=  8589934592 cpu:               0.5 elap:               0.1
 (Enter /home/rr/g16/l914.exe)
 RHF ground state
 Keep R1, R2, and R3 ints in memory in symmetry-blocked form, NReq=429748882.
 FoFCou: FMM=F IPFlag=           0 FMFlag=           0 FMFlg1=           0
         NFxFlg=           0 DoJE=F BraDBF=F KetDBF=F FulRan=T
         wScrn=  0.000000 ICntrl=       600 IOpCl=  0 I1Cent=           0 NGrid=           0
         NMat0=    1 NMatS0=   3403 NMatT0=    0 NMatD0=    1 NMtDS0=    0 NMtDT0=    0
 Petite list used in FoFCou.
 MDV=  8589934592 DFT=T DoStab=F Mixed=T DoRPA=T DoScal=F NonHer=T
 Making orbital integer symmetry assigments:
 Orbital symmetries:
       Occupied  (A') (A') (A') (A') (A') (A') (A') (A') (A") (A')
                 (A") (A')
       Virtual   (A") (A') (A') (A') (A") (A') (A') (A') (A") (A')
                 (A") (A') (A') (A") (A') (A') (A') (A') (A") (A')
                 (A') (A") (A') (A') (A') (A") (A') (A') (A') (A")
                 (A') (A") (A') (A") (A') (A") (A') (A') (A') (A')
                 (A') (A") (A") (A') (A') (A") (A') (A') (A") (A')
                 (A') (A') (A") (A') (A') (A") (A') (A') (A') (A')
                 (A") (A') (A") (A") (A') (A") (A') (A') (A') (A')
   630 initial guesses have been made.
 Convergence on wavefunction:    0.001000000000000
 Davidson Disk Diagonalization:  ConvIn= 1.00D-03 SkipCon=T Conv= 1.00D-03.
 Max sub-space:  3780 roots to seek:  1260 dimension of matrix:         1260
 *** WARNING: Number of orthogonal guesses is          630
 Iteration     1 Dimension   630 NMult     0 NNew    630
 CISAX will form   630 AO SS matrices at one time.
 NMat=   630 NSing=   630 JSym2X=-1.
 New state      3 was old state      4
 New state      4 was old state      3
 New state      6 was old state      9
 New state      7 was old state      6
 New state      9 was old state      7
 New state     11 was old state     14
 New state     12 was old state     11
 New state     14 was old state     12
 New state     16 was old state     25
 New state     17 was old state     16
 New state     18 was old state     19
 New state     19 was old state     18
 New state     20 was old state     17
 New state     21 was old state     20
 New state     22 was old state     33
 New state     23 was old state     21
 New state     24 was old state     23
 New state     25 was old state     22
 New state     26 was old state     29
 New state     27 was old state     24
 New state     28 was old state     26
 New state     29 was old state     27
 New state     30 was old state     28
 New state     31 was old state     32
 New state     32 was old state     30
 New state     33 was old state     31
 New state     35 was old state     40
 New state     37 was old state     44
 New state     38 was old state     37
 New state     39 was old state     42
 New state     40 was old state     35
 New state     41 was old state     38
 New state     42 was old state     43
 New state     43 was old state     41
 New state     44 was old state     39
 New state     46 was old state     47
 New state     47 was old state     48
 New state     48 was old state     50
 New state     49 was old state     51
 New state     50 was old state     52
 New state     51 was old state     53
 New state     52 was old state     46
 New state     53 was old state     49
 New state     54 was old state     63
 New state     55 was old state     61
 New state     56 was old state     58
 New state     57 was old state     54
 New state     58 was old state     64
 New state     59 was old state     55
 New state     60 was old state     59
 New state     61 was old state     57
 New state     63 was old state     56
 New state     64 was old state     60
 New state     65 was old state     68
 New state     66 was old state     75
 New state     67 was old state     65
 New state     68 was old state     66
 New state     70 was old state     67
 New state     71 was old state     70
 New state     73 was old state     78
 New state     74 was old state     79
 New state     75 was old state     71
 New state     76 was old state     73
 New state     77 was old state     81
 New state     78 was old state     80
 New state     79 was old state     84
 New state     80 was old state     74
 New state     81 was old state     87
 New state     82 was old state     76
 New state     83 was old state     82
 New state     84 was old state     77
 New state     85 was old state     83
 New state     87 was old state     94
 New state     88 was old state     93
 New state     89 was old state     91
 New state     90 was old state     88
 New state     91 was old state     90
 New state     92 was old state     85
 New state     93 was old state     92
 New state     94 was old state     96
 New state     95 was old state     89
 New state     96 was old state    101
 New state     97 was old state     95
 New state     98 was old state     99
 New state     99 was old state    104
 New state    100 was old state     98
 New state    101 was old state    100
 New state    102 was old state     97
 New state    103 was old state    109
 New state    104 was old state    103
 New state    107 was old state    111
 New state    108 was old state    102
 New state    109 was old state    113
 New state    110 was old state    112
 New state    111 was old state    115
 New state    112 was old state    108
 New state    113 was old state    107
 New state    115 was old state    110
 New state    116 was old state    124
 New state    117 was old state    126
 New state    118 was old state    117
 New state    119 was old state    118
 New state    120 was old state    122
 New state    121 was old state    116
 New state    122 was old state    123
 New state    123 was old state    125
 New state    124 was old state    128
 New state    125 was old state    131
 New state    126 was old state    130
 New state    127 was old state    119
 New state    128 was old state    127
 New state    129 was old state    132
 New state    130 was old state    120
 New state    131 was old state    121
 New state    132 was old state    139
 New state    133 was old state    137
 New state    135 was old state    129
 New state    137 was old state    138
 New state    138 was old state    135
 New state    139 was old state    140
 New state    140 was old state    141
 New state    141 was old state    144
 New state    142 was old state    133
 New state    143 was old state    145
 New state    144 was old state    142
 New state    145 was old state    146
 New state    146 was old state    150
 New state    147 was old state    143
 New state    148 was old state    151
 New state    149 was old state    147
 New state    150 was old state    148
 New state    151 was old state    152
 New state    152 was old state    154
 New state    153 was old state    157
 New state    154 was old state    153
 New state    155 was old state    156
 New state    156 was old state    160
 New state    157 was old state    159
 New state    158 was old state    149
 New state    159 was old state    158
 New state    160 was old state    166
 New state    161 was old state    167
 New state    163 was old state    161
 New state    165 was old state    163
 New state    166 was old state    169
 New state    167 was old state    171
 New state    168 was old state    165
 New state    169 was old state    180
 New state    170 was old state    173
 New state    171 was old state    170
 New state    172 was old state    168
 New state    173 was old state    176
 New state    174 was old state    177
 New state    175 was old state    172
 New state    176 was old state    174
 New state    177 was old state    175
 New state    179 was old state    194
 New state    180 was old state    181
 New state    181 was old state    185
 New state    183 was old state    179
 New state    184 was old state    189
 New state    185 was old state    188
 New state    186 was old state    183
 New state    187 was old state    186
 New state    188 was old state    191
 New state    189 was old state    192
 New state    190 was old state    187
 New state    191 was old state    190
 New state    192 was old state    195
 New state    193 was old state    197
 New state    194 was old state    203
 New state    195 was old state    193
 New state    197 was old state    204
 New state    198 was old state    200
 New state    199 was old state    198
 New state    200 was old state    199
 New state    201 was old state    207
 New state    203 was old state    201
 New state    204 was old state    205
 New state    205 was old state    206
 New state    206 was old state    208
 New state    207 was old state    209
 New state    208 was old state    224
 New state    209 was old state    211
 New state    210 was old state    213
 New state    211 was old state    216
 New state    212 was old state    222
 New state    213 was old state    210
 New state    216 was old state    212
 New state    217 was old state    220
 New state    218 was old state    227
 New state    219 was old state    217
 New state    220 was old state    225
 New state    221 was old state    219
 New state    222 was old state    218
 New state    223 was old state    230
 New state    224 was old state    226
 New state    225 was old state    229
 New state    226 was old state    228
 New state    227 was old state    223
 New state    228 was old state    221
 New state    229 was old state    231
 New state    230 was old state    232
 New state    231 was old state    233
 New state    232 was old state    236
 New state    233 was old state    257
 New state    234 was old state    246
 New state    235 was old state    234
 New state    236 was old state    245
 New state    237 was old state    248
 New state    239 was old state    243
 New state    240 was old state    241
 New state    241 was old state    235
 New state    242 was old state    244
 New state    243 was old state    247
 New state    244 was old state    242
 New state    245 was old state    239
 New state    246 was old state    237
 New state    247 was old state    249
 New state    248 was old state    240
 New state    249 was old state    255
 New state    250 was old state    258
 New state    251 was old state    254
 New state    252 was old state    250
 New state    253 was old state    252
 New state    254 was old state    260
 New state    255 was old state    256
 New state    256 was old state    261
 New state    257 was old state    264
 New state    258 was old state    259
 New state    259 was old state    267
 New state    260 was old state    253
 New state    261 was old state    251
 No map to state    262
 New state    263 was old state    262
 New state    264 was old state    268
 New state    265 was old state    263
 New state    266 was old state    270
 New state    267 was old state    266
 New state    268 was old state    273
 New state    269 was old state    265
 New state    270 was old state    271
 New state    271 was old state    272
 New state    272 was old state    274
 New state    273 was old state    269
 New state    274 was old state    280
 New state    276 was old state    279
 New state    277 was old state    278
 New state    278 was old state    282
 New state    279 was old state    281
 New state    280 was old state    277
 New state    281 was old state    302
 New state    282 was old state    288
 New state    283 was old state    276
 New state    284 was old state    283
 New state    285 was old state    286
 New state    286 was old state    287
 New state    287 was old state    293
 New state    288 was old state    285
 New state    289 was old state    284
 New state    290 was old state    296
 New state    291 was old state    295
 New state    292 was old state    294
 New state    293 was old state    289
 New state    294 was old state    291
 New state    295 was old state    290
 No map to state    296
 New state    297 was old state    292
 New state    299 was old state    301
 New state    300 was old state    299
 New state    301 was old state    303
 New state    302 was old state    306
 New state    303 was old state    300
 New state    304 was old state    307
 New state    306 was old state    309
 New state    307 was old state    304
 New state    308 was old state    310
 New state    309 was old state    336
 New state    310 was old state    313
 New state    311 was old state    312
 New state    312 was old state    308
 New state    313 was old state    311
 New state    314 was old state    319
 New state    315 was old state    314
 New state    316 was old state    315
 New state    317 was old state    318
 New state    318 was old state    316
 New state    319 was old state    317
 New state    322 was old state    323
 New state    323 was old state    324
 New state    324 was old state    322
 New state    326 was old state    327
 New state    327 was old state    328
 New state    328 was old state    331
 New state    329 was old state    326
 New state    330 was old state    329
 New state    331 was old state    330
 New state    334 was old state    338
 New state    336 was old state    337
 New state    337 was old state    334
 New state    338 was old state    348
 New state    339 was old state    340
 New state    340 was old state    339
 New state    341 was old state    347
 New state    343 was old state    341
 New state    344 was old state    345
 New state    345 was old state    343
 New state    346 was old state    349
 New state    347 was old state    344
 New state    348 was old state    354
 New state    349 was old state    346
 New state    350 was old state    351
 New state    351 was old state    350
 New state    352 was old state    359
 New state    353 was old state    352
 New state    354 was old state    356
 New state    355 was old state    357
 New state    356 was old state    353
 New state    357 was old state    355
 New state    359 was old state    362
 New state    360 was old state    364
 New state    362 was old state    363
 New state    363 was old state    360
 New state    364 was old state    367
 New state    365 was old state    374
 New state    366 was old state    368
 New state    367 was old state    369
 New state    368 was old state    366
 New state    369 was old state    365
 New state    370 was old state    371
 New state    371 was old state    372
 New state    372 was old state    370
 New state    374 was old state    375
 New state    375 was old state    377
 New state    376 was old state    378
 New state    377 was old state    382
 New state    378 was old state    379
 New state    379 was old state    376
 New state    380 was old state    383
 New state    382 was old state    380
 New state    383 was old state    387
 New state    384 was old state    385
 New state    385 was old state    384
 New state    387 was old state    390
 New state    390 was old state    392
 New state    391 was old state    397
 New state    392 was old state    393
 New state    393 was old state    395
 New state    395 was old state    396
 New state    396 was old state    391
 New state    397 was old state    398
 New state    398 was old state    402
 New state    402 was old state    403
 New state    403 was old state    405
 New state    404 was old state    407
 New state    405 was old state    404
 New state    406 was old state    410
 New state    407 was old state    406
 New state    408 was old state    409
 New state    409 was old state    408
 New state    410 was old state    414
 New state    411 was old state    412
 New state    412 was old state    415
 New state    413 was old state    411
 New state    414 was old state    416
 New state    415 was old state    413
 New state    416 was old state    421
 New state    417 was old state    420
 New state    419 was old state    423
 New state    420 was old state    424
 New state    421 was old state    422
 New state    422 was old state    417
 New state    423 was old state    419
 New state    424 was old state    425
 New state    425 was old state    428
 New state    426 was old state    427
 New state    427 was old state    430
 New state    428 was old state    426
 New state    429 was old state    433
 New state    430 was old state    435
 New state    432 was old state    429
 New state    433 was old state    432
 New state    435 was old state    437
 New state    436 was old state    440
 New state    437 was old state    436
 New state    438 was old state    439
 New state    439 was old state    441
 New state    440 was old state    438
 New state    441 was old state    443
 New state    443 was old state    444
 New state    444 was old state    445
 New state    445 was old state    449
 New state    446 was old state    450
 New state    447 was old state    448
 New state    448 was old state    446
 New state    449 was old state    447
 New state    450 was old state    452
 New state    452 was old state    453
 New state    453 was old state    455
 New state    455 was old state    456
 New state    456 was old state    458
 New state    458 was old state    459
 New state    459 was old state    467
 New state    460 was old state    463
 New state    461 was old state    462
 New state    462 was old state    464
 New state    463 was old state    461
 New state    464 was old state    460
 New state    465 was old state    466
 New state    466 was old state    465
 New state    467 was old state    477
 New state    468 was old state    469
 New state    469 was old state    468
 New state    471 was old state    472
 New state    472 was old state    471
 New state    475 was old state    479
 New state    476 was old state    475
 New state    477 was old state    478
 New state    478 was old state    476
 New state    479 was old state    480
 New state    480 was old state    482
 New state    481 was old state    483
 New state    482 was old state    481
 New state    483 was old state    486
 New state    486 was old state    490
 New state    488 was old state    496
 New state    490 was old state    488
 New state    493 was old state    495
 New state    494 was old state    493
 New state    495 was old state    494
 No map to state    496
 New state    497 was old state    498
 New state    498 was old state    497
 New state    499 was old state    501
 New state    501 was old state    499
 New state    504 was old state    506
 New state    505 was old state    504
 New state    506 was old state    505
 New state    507 was old state    508
 New state    508 was old state    507
 New state    511 was old state    512
 New state    512 was old state    513
 New state    513 was old state    514
 New state    514 was old state    511
 New state    518 was old state    520
 New state    519 was old state    518
 New state    520 was old state    519
 New state    527 was old state    528
 New state    528 was old state    527
 New state    533 was old state    535
 New state    535 was old state    537
 New state    537 was old state    540
 New state    538 was old state    533
 New state    540 was old state    545
 New state    541 was old state    538
 New state    542 was old state    546
 New state    543 was old state    542
 New state    545 was old state    543
 New state    546 was old state    541
 New state    549 was old state    550
 New state    550 was old state    552
 New state    552 was old state    549
 New state    557 was old state    559
 New state    558 was old state    560
 New state    559 was old state    561
 New state    560 was old state    557
 New state    561 was old state    564
 New state    562 was old state    558
 New state    563 was old state    562
 New state    564 was old state    563
 New state    566 was old state    567
 New state    567 was old state    566
 New state    568 was old state    569
 New state    569 was old state    568
 New state    570 was old state    571
 New state    571 was old state    570
 New state    572 was old state    573
 New state    573 was old state    572
 New state    576 was old state    577
 New state    577 was old state    578
 New state    578 was old state    576
 New state    579 was old state    581
 New state    580 was old state    579
 New state    581 was old state    580
 New state    586 was old state    587
 New state    587 was old state    586
 New state    592 was old state    593
 New state    593 was old state    592
 New state    594 was old state    597
 New state    595 was old state    594
 New state    596 was old state    595
 New state    597 was old state    596
 New state    598 was old state    599
 New state    599 was old state    600
 New state    600 was old state    598
 New state    602 was old state    603
 New state    603 was old state    604
 New state    604 was old state    602
 New state    608 was old state    610
 New state    609 was old state    608
 New state    610 was old state    609
 New state    611 was old state    612
 New state    612 was old state    611
 New state    613 was old state    614
 New state    614 was old state    613
 New state    621 was old state    623
 New state    622 was old state    621
 New state    623 was old state    622
 Excitation Energies [eV] at current iteration:
 Root      1 :     5.921359664195990
 Root      2 :     8.222600382688672
 Root      3 :     8.951308371857550
 Root      4 :     9.005818146573555
 Root      5 :     9.073550881914366
 Root      6 :     9.427266193514305
 Root      7 :    10.185387682762430
 Root      8 :    10.233325472222340
 Root      9 :    10.271407024361740
 Root     10 :    11.123347382751870
 Root     11 :    11.205825480998960
 Root     12 :    11.288340004288790
 Root     13 :    11.338528377038020
 Root     14 :    11.484746889337380
 Root     15 :    11.634170347561980
 Root     16 :    11.843708033217840
 Root     17 :    11.924281024328400
 Root     18 :    11.991376440154980
 Root     19 :    12.020234158501630
 Root     20 :    12.279311435874760
 Root     21 :    12.361848788612040
 Root     22 :    12.456461616763180
 Root     23 :    12.604024590369010
 Root     24 :    12.685926339452110
 Root     25 :    12.834463607852520
 Root     26 :    13.134416736645120
 Root     27 :    13.152376900769210
 Root     28 :    13.271946856479050
 Root     29 :    13.367672636264050
 Root     30 :    13.557634028076080
 Root     31 :    13.664813448059040
 Root     32 :    13.693783763081940
 Root     33 :    13.799121348013880
 Root     34 :    14.130191815003940
 Root     35 :    14.365442791107320
 Root     36 :    14.442065774374510
 Root     37 :    14.539649859546870
 Root     38 :    14.631860621727040
 Root     39 :    14.723302716939060
 Root     40 :    14.808515533153260
 Root     41 :    14.854501096526140
 Root     42 :    14.918171279373720
 Root     43 :    14.972323298515370
 Root     44 :    14.996036806883060
 Root     45 :    15.366184041811320
 Root     46 :    15.392108683377250
 Root     47 :    15.598897238666870
 Root     48 :    15.668108004363730
 Root     49 :    15.679180676474940
 Root     50 :    15.701549399921900
 Root     51 :    15.948414394152040
 Root     52 :    16.024803112691880
 Root     53 :    16.045967529223760
 Root     54 :    16.154416830481320
 Root     55 :    16.258730594657210
 Root     56 :    16.278954429770610
 Root     57 :    16.452977436397050
 Root     58 :    16.521687996773710
 Root     59 :    16.610684527053290
 Root     60 :    16.633250441682090
 Root     61 :    16.679555199413680
 Root     62 :    16.769550164085300
 Root     63 :    16.890455562482420
 Root     64 :    17.071093086722950
 Root     65 :    17.098823784994490
 Root     66 :    17.112002836648500
 Root     67 :    17.198159394363850
 Root     68 :    17.276203253959150
 Root     69 :    17.330329606098740
 Root     70 :    17.456604573295150
 Root     71 :    17.457044222263400
 Root     72 :    17.532168797434790
 Root     73 :    17.587844125791430
 Root     74 :    17.664924800136040
 Root     75 :    17.790455535296600
 Root     76 :    17.895483315621340
 Root     77 :    18.002753116936770
 Root     78 :    18.009606519688140
 Root     79 :    18.244521265396950
 Root     80 :    18.295867408702320
 Root     81 :    18.314544534209620
 Root     82 :    18.377678201147640
 Root     83 :    18.398006019439770
 Root     84 :    18.459918529392230
 Root     85 :    18.552083114520820
 Root     86 :    18.652051612025750
 Root     87 :    18.743433591992910
 Root     88 :    18.791177879331480
 Root     89 :    18.866658392374750
 Root     90 :    18.871084621237960
 Root     91 :    18.998929049123120
 Root     92 :    19.109382269040550
 Root     93 :    19.285927203419660
 Root     94 :    19.374976400292580
 Root     95 :    19.421340554658570
 Root     96 :    19.572500107488820
 Root     97 :    19.674646764034340
 Root     98 :    19.735761090510610
 Root     99 :    19.954872164701440
 Root    100 :    20.036117787523900
 Root    101 :    20.108771339290600
 Root    102 :    20.207650461018790
 Root    103 :    20.326451719624660
 Root    104 :    20.439633586243080
 Root    105 :    20.555964106567580
 Root    106 :    20.583214857293800
 Root    107 :    20.627489503633320
 Root    108 :    20.693461519081660
 Root    109 :    20.761191161613580
 Root    110 :    20.762608720937700
 Root    111 :    20.854049240770080
 Root    112 :    20.974197864863650
 Root    113 :    20.996408649015410
 Root    114 :    21.176970114375500
 Root    115 :    21.242733924863580
 Root    116 :    21.362425700045970
 Root    117 :    21.453422757411820
 Root    118 :    21.492092294799220
 Root    119 :    21.565963425581270
 Root    120 :    21.711692644641390
 Root    121 :    21.727197788578420
 Root    122 :    21.791948862977370
 Root    123 :    21.872264181898430
 Root    124 :    21.949603283100690
 Root    125 :    22.011202456851060
 Root    126 :    22.130472104245040
 Root    127 :    22.148194393741950
 Root    128 :    22.245144043189680
 Root    129 :    22.396769235150850
 Root    130 :    22.432227905595660
 Root    131 :    22.492222864594620
 Root    132 :    22.613341001487620
 Root    133 :    22.670896267765990
 Root    134 :    22.699205881021660
 Root    135 :    22.780468888670890
 Root    136 :    22.793903290037030
 Root    137 :    22.836388839886150
 Root    138 :    23.012905427877360
 Root    139 :    23.027035910237720
 Root    140 :    23.233405031701200
 Root    141 :    23.284306872586460
 Root    142 :    23.316227848644280
 Root    143 :    23.419836738278100
 Root    144 :    23.490295601517330
 Root    145 :    23.568076636367840
 Root    146 :    23.623827422269630
 Root    147 :    23.651678882640790
 Root    148 :    23.789171841591520
 Root    149 :    23.865919610100340
 Root    150 :    23.912294583400390
 Root    151 :    23.946465661680090
 Root    152 :    24.082067615040160
 Root    153 :    24.125826507717060
 Root    154 :    24.258584851633060
 Root    155 :    24.436803147543520
 Root    156 :    24.585364322562370
 Root    157 :    24.598526488224300
 Root    158 :    24.700934825130740
 Root    159 :    24.730639612497050
 Root    160 :    24.894961284131310
 Root    161 :    24.973885809205310
 Root    162 :    24.975169858650390
 Root    163 :    25.075008631819570
 Root    164 :    25.104062445594470
 Root    165 :    25.113031009350970
 Root    166 :    25.298832680941050
 Root    167 :    25.501176551691110
 Root    168 :    25.640480991587580
 Root    169 :    25.651604201446440
 Root    170 :    25.692836286685630
 Root    171 :    25.744765692326490
 Root    172 :    25.883612672111050
 Root    173 :    25.922412355722050
 Root    174 :    26.023722430797190
 Root    175 :    26.066936922148660
 Root    176 :    26.146097550777430
 Root    177 :    26.204002787135030
 Root    178 :    26.364882514598410
 Root    179 :    26.399635825669310
 Root    180 :    26.459050943136980
 Root    181 :    26.462684683070970
 Root    182 :    26.522484715505050
 Root    183 :    26.682803815846200
 Root    184 :    26.703472446112220
 Root    185 :    26.894759913034390
 Root    186 :    26.951948642187740
 Root    187 :    27.023369395635520
 Root    188 :    27.067479257706220
 Root    189 :    27.107469539500290
 Root    190 :    27.148166242177190
 Root    191 :    27.220381191177020
 Root    192 :    27.441406145321420
 Root    193 :    27.536533992534760
 Root    194 :    27.631211517796460
 Root    195 :    27.640299423118620
 Root    196 :    27.752152850307220
 Root    197 :    27.768371702525550
 Root    198 :    27.873057828630060
 Root    199 :    27.879087324998870
 Root    200 :    27.940858447466760
 Root    201 :    28.038756829518970
 Root    202 :    28.056563151502980
 Root    203 :    28.165556955937330
 Root    204 :    28.207358617670450
 Root    205 :    28.214691798181040
 Root    206 :    28.416335563170400
 Root    207 :    28.541066891784350
 Root    208 :    28.606330329434480
 Root    209 :    28.737252705442560
 Root    210 :    28.854200428633870
 Root    211 :    28.931260786848990
 Root    212 :    29.120187723992230
 Root    213 :    29.133422903031670
 Root    214 :    29.189602402515330
 Root    215 :    29.334238074302930
 Root    216 :    29.383362232334320
 Root    217 :    29.507441349861590
 Root    218 :    29.650830479463060
 Root    219 :    29.653323921865390
 Root    220 :    29.699527720661790
 Root    221 :    29.733636536862000
 Root    222 :    29.750857447710490
 Root    223 :    29.964517107139510
 Root    224 :    29.998929286328790
 Root    225 :    30.184826676249070
 Root    226 :    30.322411250905290
 Root    227 :    30.433861322304150
 Root    228 :    30.463794623725520
 Root    229 :    30.559041382821370
 Root    230 :    30.566231560352900
 Root    231 :    30.759566283134770
 Root    232 :    30.811464214933310
 Root    233 :    30.858951140616370
 Root    234 :    31.028671627020320
 Root    235 :    31.203583726777920
 Root    236 :    31.242148706854750
 Root    237 :    31.336532949302160
 Root    238 :    31.376989329229270
 Root    239 :    31.425378969211950
 Root    240 :    31.478073730053190
 Root    241 :    31.534894653395490
 Root    242 :    31.540379370320970
 Root    243 :    31.626047429907220
 Root    244 :    31.735861567999620
 Root    245 :    31.821806488092590
 Root    246 :    31.937505056924660
 Root    247 :    32.001105462993760
 Root    248 :    32.104637943573740
 Root    249 :    32.176085305765530
 Root    250 :    32.283415270900640
 Root    251 :    32.383243662598020
 Root    252 :    32.447749342094460
 Root    253 :    32.514693153557300
 Root    254 :    32.727637492859490
 Root    255 :    32.746016938210420
 Root    256 :    32.761392417109820
 Root    257 :    32.816604570401270
 Root    258 :    32.962249160299390
 Root    259 :    32.999885422852810
 Root    260 :    33.053968573671020
 Root    261 :    33.097913372695230
 Root    262 :    33.342123605539940
 Root    263 :    33.345333147982270
 Root    264 :    33.580191607405310
 Root    265 :    33.631960983397840
 Root    266 :    33.858567131388950
 Root    267 :    33.913472728235920
 Root    268 :    34.052134981232190
 Root    269 :    34.236542743982040
 Root    270 :    34.323120286315120
 Root    271 :    34.680413225514730
 Root    272 :    34.724906563693940
 Root    273 :    34.811933848261600
 Root    274 :    34.978805219545950
 Root    275 :    35.002678391925400
 Root    276 :    35.184668101987750
 Root    277 :    35.418147833391050
 Root    278 :    35.574040672022800
 Root    279 :    35.575407250100330
 Root    280 :    35.606959632518610
 Root    281 :    35.765359917731420
 Root    282 :    35.967111030922090
 Root    283 :    36.042521775296840
 Root    284 :    36.241661589327580
 Root    285 :    36.280907218323150
 Root    286 :    36.419623099974100
 Root    287 :    36.481924022259430
 Root    288 :    36.557964093070810
 Root    289 :    36.727646254381960
 Root    290 :    36.891054694883200
 Root    291 :    37.083133043907400
 Root    292 :    37.112802867608590
 Root    293 :    37.184381373408550
 Root    294 :    37.266161009448580
 Root    295 :    37.393196317669560
 Root    296 :    37.420538163985260
 Root    297 :    37.549780460812710
 Root    298 :    37.684769267777210
 Root    299 :    37.844755801977420
 Root    300 :    37.934387048657310
 Root    301 :    37.956624887156250
 Root    302 :    38.087871993514070
 Root    303 :    38.264808761208930
 Root    304 :    38.596867373666530
 Root    305 :    38.680520016638430
 Root    306 :    38.976009738609560
 Root    307 :    39.175714148655760
 Root    308 :    39.385666893431070
 Root    309 :    39.396825374905500
 Root    310 :    39.750518090303910
 Root    311 :    39.919129482863960
 Root    312 :    39.926775604813440
 Root    313 :    40.083546261400780
 Root    314 :    40.191327354519790
 Root    315 :    40.219150074520020
 Root    316 :    40.360637420843170
 Root    317 :    40.474186236653200
 Root    318 :    40.675807621164720
 Root    319 :    40.994952690285480
 Root    320 :    41.326760596807520
 Root    321 :    41.558236830183820
 Root    322 :    41.746659127134170
 Root    323 :    41.985042860753090
 Root    324 :    42.079742512067840
 Root    325 :    42.167614070266130
 Root    326 :    42.255923652573610
 Root    327 :    42.344667357466850
 Root    328 :    42.539382886030860
 Root    329 :    42.635223130070400
 Root    330 :    42.672000995807980
 Root    331 :    42.913820569178650
 Root    332 :    43.190943486096170
 Root    333 :    43.353693581427980
 Root    334 :    43.642285962926210
 Root    335 :    43.789214271928730
 Root    336 :    43.936325484147550
 Root    337 :    44.022644307891150
 Root    338 :    44.293968958091710
 Root    339 :    44.368497092247660
 Root    340 :    44.451772220604080
 Root    341 :    44.670862473959620
 Root    342 :    44.768958459856900
 Root    343 :    44.777015994657180
 Root    344 :    45.006721576721710
 Root    345 :    45.182317075798490
 Root    346 :    45.335998455727700
 Root    347 :    45.391132023913750
 Root    348 :    45.579789364237360
 Root    349 :    45.812496188100240
 Root    350 :    45.933989125830440
 Root    351 :    46.214926992407520
 Root    352 :    46.274913298446800
 Root    353 :    46.388969236487210
 Root    354 :    46.528134000399140
 Root    355 :    46.549676991669780
 Root    356 :    46.738427839442610
 Root    357 :    46.915029179896800
 Root    358 :    46.960638073197710
 Root    359 :    47.036043678051680
 Root    360 :    47.391003257610420
 Root    361 :    47.564282579878850
 Root    362 :    47.614052610261670
 Root    363 :    47.868158852584810
 Root    364 :    48.048001676089620
 Root    365 :    48.105678895612170
 Root    366 :    48.308621533279020
 Root    367 :    48.480329093806950
 Root    368 :    48.671798455247760
 Root    369 :    48.833361908269250
 Root    370 :    49.420341886856400
 Root    371 :    49.514645827134110
 Root    372 :    49.604000797331180
 Root    373 :    49.681478085378320
 Root    374 :    49.716064190722010
 Root    375 :    50.422816378455620
 Root    376 :    50.460869922452770
 Root    377 :    50.557367410902560
 Root    378 :    50.610522126182200
 Root    379 :    51.032293697892430
 Root    380 :    51.570616739222620
 Root    381 :    51.575338326384940
 Root    382 :    51.599960771206570
 Root    383 :    51.753320541030530
 Root    384 :    52.001558576252090
 Root    385 :    52.126323998322160
 Root    386 :    52.528209197155780
 Root    387 :    52.635404660019200
 Root    388 :    52.915766870149400
 Root    389 :    52.949693140759610
 Root    390 :    53.481602404996040
 Root    391 :    53.624082267989420
 Root    392 :    53.664922453875420
 Root    393 :    53.840941121703320
 Root    394 :    54.174685015810760
 Root    395 :    54.358356268971830
 Root    396 :    54.495139702879730
 Root    397 :    54.837988857347460
 Root    398 :    54.924959800074760
 Root    399 :    54.941859011008920
 Root    400 :    54.991512535627200
 Root    401 :    55.234108992196210
 Root    402 :    55.330051806023110
 Root    403 :    55.553876215372310
 Root    404 :    55.746771617363920
 Root    405 :    55.831174154307720
 Root    406 :    56.039567044537720
 Root    407 :    56.109008968323810
 Root    408 :    56.275854525943990
 Root    409 :    56.286496156306510
 Root    410 :    56.410632949653700
 Root    411 :    56.448005833176420
 Root    412 :    56.910682554197090
 Root    413 :    56.984992557204930
 Root    414 :    57.082467269808050
 Root    415 :    57.102908872343630
 Root    416 :    57.468586477915120
 Root    417 :    57.847966924353450
 Root    418 :    57.962933440414370
 Root    419 :    58.127168714965600
 Root    420 :    58.167627106677560
 Root    421 :    58.443141043827680
 Root    422 :    58.564963431760940
 Root    423 :    58.636823334727000
 Root    424 :    58.834908973607350
 Root    425 :    59.150280818437170
 Root    426 :    59.352108256923160
 Root    427 :    59.451681861208200
 Root    428 :    59.532746728090260
 Root    429 :    59.738718832992920
 Root    430 :    59.816532499742690
 Root    431 :    59.963321779619700
 Root    432 :    60.062542232808990
 Root    433 :    60.449495310328800
 Root    434 :    60.473283702606050
 Root    435 :    60.720592005441840
 Root    436 :    60.757938909743720
 Root    437 :    61.158932991870930
 Root    438 :    61.174246720168090
 Root    439 :    61.255723830987760
 Root    440 :    61.387547403464740
 Root    441 :    61.410978389087810
 Root    442 :    61.623497970776270
 Root    443 :    61.808024870935480
 Root    444 :    61.982783719440990
 Root    445 :    61.988897180789940
 Root    446 :    62.426760487911280
 Root    447 :    62.853448133079110
 Root    448 :    62.904039065175400
 Root    449 :    63.057532464306000
 Root    450 :    63.255262965543610
 Root    451 :    63.466997859940010
 Root    452 :    63.591721385178150
 Root    453 :    63.662539986317850
 Root    454 :    63.824145735364880
 Root    455 :    63.904318446425860
 Root    456 :    64.170200231329470
 Root    457 :    64.282101409051220
 Root    458 :    64.305105300009700
 Root    459 :    64.809176560863280
 Root    460 :    64.811463024276450
 Root    461 :    65.020946512145100
 Root    462 :    65.117148749039710
 Root    463 :    65.200952039807670
 Root    464 :    65.417118682247660
 Root    465 :    65.691527970139390
 Root    466 :    65.906547636218010
 Root    467 :    66.148274045008850
 Root    468 :    66.733035927051730
 Root    469 :    66.858661976982010
 Root    470 :    66.976963569087130
 Root    471 :    67.099654632911640
 Root    472 :    67.520126492545420
 Root    473 :    67.679873077537070
 Root    474 :    67.911137593561920
 Root    475 :    68.140441376300360
 Root    476 :    68.230836937796070
 Root    477 :    68.359379724494220
 Root    478 :    68.389909950198340
 Root    479 :    68.561156299855170
 Root    480 :    68.936029557007200
 Root    481 :    68.998541969418650
 Root    482 :    69.110172767111510
 Root    483 :    69.148774692498950
 Root    484 :    69.666632404465600
 Root    485 :    69.776531067883980
 Root    486 :    69.959668295205760
 Root    487 :    70.000992254339790
 Root    488 :    70.205925730605050
 Root    489 :    70.333319739330350
 Root    490 :    70.630389433947440
 Root    491 :    71.103793378394660
 Root    492 :    72.222222746386610
 Root    493 :    72.596850967889550
 Root    494 :    72.653930785355140
 Root    495 :    72.957113568177820
 Root    496 :    73.335904709204260
 Root    497 :    73.515459923291270
 Root    498 :    73.967301861138070
 Root    499 :    74.292145846684010
 Root    500 :    74.446952683581230
 Root    501 :    74.671397304277490
 Root    502 :    75.082499185935450
 Root    503 :    75.159211995951820
 Root    504 :    75.389589658970820
 Root    505 :    75.561969911529600
 Root    506 :    76.330622705703190
 Root    507 :    77.230522431579740
 Root    508 :    77.366227401406830
 Root    509 :    77.835299295574800
 Root    510 :    78.059421449834660
 Root    511 :    78.313575257202130
 Root    512 :    78.545336444775020
 Root    513 :    78.598668686068190
 Root    514 :    79.045716377285290
 Root    515 :    79.567375153055550
 Root    516 :    79.891160898503660
 Root    517 :    79.974525161320220
 Root    518 :    80.622655041525870
 Root    519 :    80.626569685342630
 Root    520 :    80.758782716125370
 Root    521 :    81.399127669801500
 Root    522 :    82.278341476635420
 Root    523 :    82.873927133919950
 Root    524 :    83.306636476830700
 Root    525 :    83.485080669368870
 Root    526 :    83.551945307074650
 Root    527 :    83.968903581065040
 Root    528 :    84.146164119308740
 Root    529 :    84.502326338832080
 Root    530 :    85.028798196983910
 Root    531 :    85.153384399881090
 Root    532 :    85.515229208900720
 Root    533 :    85.862107320006940
 Root    534 :    86.128428803711980
 Root    535 :    86.489531968000610
 Root    536 :    86.615498839094780
 Root    537 :    86.711722872640950
 Root    538 :    87.176768464414420
 Root    539 :    87.464427065153230
 Root    540 :    87.908259283388790
 Root    541 :    88.146541514884960
 Root    542 :    88.153024963299130
 Root    543 :    88.339000308243830
 Root    544 :    88.797861719525780
 Root    545 :    88.921439770444560
 Root    546 :    89.378287095520110
 Root    547 :    89.710529470369440
 Root    548 :    90.203791548418890
 Root    549 :    90.412143386096570
 Root    550 :    90.618099940830730
 Root    551 :    90.741456859977930
 Root    552 :    90.982440575376610
 Root    553 :    91.186357144075490
 Root    554 :    91.813901510094300
 Root    555 :    92.028027431599160
 Root    556 :    92.507098694261870
 Root    557 :    92.513366146214480
 Root    558 :    92.857351716375220
 Root    559 :    92.973985141226750
 Root    560 :    93.070815848004950
 Root    561 :    93.312200014027610
 Root    562 :    93.735491731380180
 Root    563 :    94.063630634293380
 Root    564 :    94.176050165661880
 Root    565 :    95.003352551754200
 Root    566 :    95.887850483393070
 Root    567 :    96.169318078925850
 Root    568 :    96.353341154449570
 Root    569 :    96.693766423651650
 Root    570 :    96.910781641305260
 Root    571 :    97.109006802102190
 Root    572 :    97.372913636960530
 Root    573 :    97.912176771979930
 Root    574 :    98.346979213045780
 Root    575 :    98.534241354177130
 Root    576 :    98.919013592553160
 Root    577 :    99.230628501109310
 Root    578 :    99.595503677900420
 Root    579 :   100.326568499649900
 Root    580 :   100.364596202884900
 Root    581 :   100.499722052268900
 Root    582 :   100.863727259624800
 Root    583 :   102.305857583433200
 Root    584 :   102.459970593193100
 Root    585 :   103.038459180679300
 Root    586 :   103.131227377759000
 Root    587 :   103.235599202752400
 Root    588 :   103.981316093914200
 Root    589 :   104.543330547401800
 Root    590 :   105.148179989397000
 Root    591 :   105.387567405166600
 Root    592 :   105.506568675604800
 Root    593 :   105.852479839441600
 Root    594 :   107.230402925298000
 Root    595 :   107.333333429536900
 Root    596 :   107.455278771177700
 Root    597 :   107.800600927290400
 Root    598 :   108.552070364235000
 Root    599 :   108.665598123353400
 Root    600 :   108.749178006017000
 Root    601 :   109.573872852740300
 Root    602 :   109.690545627145400
 Root    603 :   110.258576093569000
 Root    604 :   110.424817124119000
 Root    605 :   110.598727470940800
 Root    606 :   112.552205575933400
 Root    607 :   113.134297801112600
 Root    608 :   113.615399476651900
 Root    609 :   113.913060782975200
 Root    610 :   114.005235419774200
 Root    611 :   114.443620507302800
 Root    612 :   114.674707919395200
 Root    613 :   114.823044698602100
 Root    614 :   115.363752310087000
 Root    615 :   115.727037262011000
 Root    616 :   116.602314245216800
 Root    617 :   117.251563973343500
 Root    618 :   117.527513481947300
 Root    619 :   117.586240190575400
 Root    620 :   119.235452244748000
 Root    621 :   119.603622926308300
 Root    622 :   119.741910054714000
 Root    623 :   120.182444551174600
 Root    624 :   123.250126057512300
 Root    625 :   124.277532696933000
 Root    626 :   126.684847270838700
 Root    627 :   129.038917216613400
 Root    628 :   132.173476359219100
 Root    629 :   133.223080801136700
 Root    630 :   135.565769423992500
 Convergence achieved for final wavefunctions.
 ***********************************************************************
 Excited states from <AA,BB:AA,BB> singles matrix:
 ***********************************************************************
 
 1PDM for each excited state written to RWF  633
 Ground to excited state transition densities written to RWF  633
 Ground to excited state transition electric dipole moments (Au):
       state          X           Y           Z        Dip. S.      Osc.
         1         0.0000      0.0000      0.0773      0.0060      0.0009
         2         0.2289     -0.3208      0.0000      0.1553      0.0313
         3        -0.8708     -0.0906     -0.0000      0.7664      0.1681
         4         0.3953      0.6338     -0.0000      0.5580      0.1231
         5        -0.0000     -0.0000     -0.1161      0.0135      0.0030
         6         0.0000     -0.0000     -0.0204      0.0004      0.0001
         7        -0.0000     -0.0000      0.0388      0.0015      0.0004
         8         0.0000      0.0000      0.2537      0.0644      0.0161
         9         0.5375     -0.3111      0.0000      0.3857      0.0971
        10        -0.3172     -0.0518      0.0000      0.1033      0.0281
        11        -0.1889      0.4000      0.0000      0.1957      0.0537
        12         0.0000     -0.0000      0.4306      0.1854      0.0513
        13         0.1170      0.2403     -0.0000      0.0714      0.0198
        14        -0.0562     -0.0339      0.0000      0.0043      0.0012
        15         0.2795      0.0751      0.0000      0.0837      0.0239
        16        -0.0000     -0.0000      0.1219      0.0149      0.0043
        17         0.0000      0.0000     -0.1249      0.0156      0.0046
        18         0.1929     -0.7377     -0.0000      0.5814      0.1708
        19        -0.0000      0.0000     -0.1823      0.0332      0.0098
        20        -0.2403     -0.1495     -0.0000      0.0801      0.0241
        21         0.0000      0.0000      0.0614      0.0038      0.0011
        22        -0.0000     -0.0000     -0.2112      0.0446      0.0136
        23         0.4110      0.0530     -0.0000      0.1717      0.0530
        24        -0.0000      0.0000     -0.2838      0.0805      0.0250
        25        -0.0000     -0.0000     -0.2716      0.0737      0.0232
        26         0.0000      0.0000      0.0441      0.0019      0.0006
        27        -0.1197     -0.0118     -0.0000      0.0145      0.0047
        28         0.2599      0.0430     -0.0000      0.0694      0.0226
        29        -0.0000      0.0000     -0.1288      0.0166      0.0054
        30        -0.0000      0.0000     -0.2655      0.0705      0.0234
        31         0.0245     -0.2961     -0.0000      0.0883      0.0295
        32        -0.0000     -0.0000      0.0278      0.0008      0.0003
        33         0.2411      0.0078     -0.0000      0.0582      0.0197
        34        -0.5050      0.0225      0.0000      0.2555      0.0884
        35         0.0847     -0.1833      0.0000      0.0408      0.0143
        36         0.0611      0.3152      0.0000      0.1031      0.0365
        37         0.0000      0.0000      0.2992      0.0895      0.0319
        38         0.3528      0.2169     -0.0000      0.1715      0.0615
        39         0.4901     -0.2962     -0.0000      0.3279      0.1183
        40        -0.1572      0.3125     -0.0000      0.1224      0.0444
        41         0.0647     -0.4461      0.0000      0.2032      0.0739
        42         0.0000      0.0000     -0.2724      0.0742      0.0271
        43         0.0079      0.2297      0.0000      0.0528      0.0194
        44         0.0000      0.0000     -0.2721      0.0740      0.0272
        45        -0.0180     -0.3858     -0.0000      0.1492      0.0562
        46        -0.0000      0.0000     -0.3641      0.1325      0.0500
        47         0.5220     -0.1634      0.0000      0.2992      0.1143
        48        -0.0000      0.0000      0.1824      0.0333      0.0128
        49         0.3389      0.1267      0.0000      0.1309      0.0503
        50        -0.0000     -0.0000      0.1039      0.0108      0.0042
        51        -0.0000      0.0000     -0.3837      0.1472      0.0575
        52        -0.1360      0.1197     -0.0000      0.0328      0.0129
        53        -0.0000      0.0000      0.0768      0.0059      0.0023
        54        -0.0000     -0.0000     -0.1037      0.0108      0.0043
        55         0.0000     -0.0000      0.0319      0.0010      0.0004
        56         0.0046      0.0123      0.0000      0.0002      0.0001
        57        -0.0000     -0.0000     -0.2274      0.0517      0.0208
        58        -0.1892     -0.0290      0.0000      0.0366      0.0148
        59        -0.3358      0.0407      0.0000      0.1144      0.0466
        60         0.0000      0.0000     -0.1806      0.0326      0.0133
        61        -0.0393     -0.0749     -0.0000      0.0072      0.0029
        62         0.0138      0.0531      0.0000      0.0030      0.0012
        63        -0.0713      0.3303      0.0000      0.1142      0.0473
        64         0.1734      0.3724      0.0000      0.1687      0.0706
        65        -0.0098      0.1523     -0.0000      0.0233      0.0098
        66         0.0000     -0.0000     -0.4341      0.1885      0.0790
        67        -0.0000      0.0000      0.1291      0.0167      0.0070
        68         0.1523     -0.2734      0.0000      0.0979      0.0414
        69         0.1631      0.1060      0.0000      0.0378      0.0161
        70        -0.0000     -0.0000     -0.3396      0.1153      0.0493
        71         0.2168      0.1310      0.0000      0.0642      0.0274
        72         0.0000     -0.0000     -0.0966      0.0093      0.0040
        73         0.0000      0.0000     -0.6192      0.3834      0.1652
        74         0.2612      0.0476     -0.0000      0.0705      0.0305
        75        -0.0036     -0.3799     -0.0000      0.1443      0.0629
        76         0.0159      0.4118      0.0000      0.1698      0.0744
        77         0.0000      0.0000      0.2677      0.0717      0.0316
        78        -0.0315     -0.0966     -0.0000      0.0103      0.0046
        79         0.0000     -0.0000     -0.0297      0.0009      0.0004
        80        -0.3657     -0.0462     -0.0000      0.1359      0.0609
        81         0.2584      0.2200     -0.0000      0.1152      0.0517
        82        -0.0383      0.3756     -0.0000      0.1425      0.0642
        83         0.0000      0.0000      0.0474      0.0022      0.0010
        84         0.0000      0.0000     -0.0004      0.0000      0.0000
        85         0.0886     -0.3610     -0.0000      0.1382      0.0628
        86         0.0000      0.0000     -0.5816      0.3382      0.1545
        87        -0.0000     -0.0000     -0.0775      0.0060      0.0028
        88         0.1204     -0.0354     -0.0000      0.0158      0.0073
        89        -0.2071     -0.3526     -0.0000      0.1672      0.0773
        90        -0.0000     -0.0000      0.0343      0.0012      0.0005
        91         0.0000      0.0000      0.1562      0.0244      0.0114
        92        -0.1324     -0.2616     -0.0000      0.0860      0.0403
        93         0.3598      0.0514      0.0000      0.1321      0.0624
        94        -0.0000     -0.0000     -0.1896      0.0360      0.0171
        95        -0.0284      0.0314      0.0000      0.0018      0.0009
        96        -0.0000     -0.0000      0.1983      0.0393      0.0189
        97         0.3065     -0.0599     -0.0000      0.0975      0.0470
        98         0.0000      0.0000     -0.1565      0.0245      0.0118
        99         0.0000      0.0000     -0.1620      0.0262      0.0128
       100        -0.2960     -0.4719     -0.0000      0.3103      0.1523
       101         0.0053      0.1224     -0.0000      0.0150      0.0074
       102         0.3211      0.2492      0.0000      0.1652      0.0818
       103         0.1475     -0.0173     -0.0000      0.0221      0.0110
       104        -0.0036      0.0594     -0.0000      0.0035      0.0018
       105        -0.0000     -0.0000      0.1081      0.0117      0.0059
       106         0.4178      0.1719      0.0000      0.2041      0.1029
       107         0.2008      0.0085     -0.0000      0.0404      0.0204
       108         0.0665      0.2375      0.0000      0.0608      0.0308
       109        -0.1652      0.0995      0.0000      0.0372      0.0189
       110         0.0000     -0.0000      0.0511      0.0026      0.0013
       111        -0.2926      0.1185      0.0000      0.0996      0.0509
       112         0.0000     -0.0000      0.0769      0.0059      0.0030
       113         0.2805      0.4473      0.0000      0.2787      0.1434
       114        -0.1216      0.1672      0.0000      0.0427      0.0222
       115        -0.0000     -0.0000      0.1393      0.0194      0.0101
       116         0.1193      0.2413      0.0000      0.0725      0.0379
       117         0.0000     -0.0000     -0.1632      0.0266      0.0140
       118         0.2058     -0.3565      0.0000      0.1695      0.0892
       119         0.0000     -0.0000     -0.1849      0.0342      0.0181
       120        -0.0000      0.0000      0.1383      0.0191      0.0102
       121         0.0628     -0.0911     -0.0000      0.0122      0.0065
       122         0.0000      0.0000     -0.1830      0.0335      0.0179
       123        -0.4005     -0.0388      0.0000      0.1619      0.0868
       124        -0.3624     -0.1405     -0.0000      0.1511      0.0812
[...]
     16   0.000000D+00 -0.430252D+00 -0.826694D-01  0.814993D-01  0.000000D+00
               561           562           563           564           565 
      1  -0.186147D+03 -0.186131D+03 -0.186119D+03 -0.186115D+03 -0.186085D+03
      2   0.000000D+00  0.000000D+00  0.000000D+00  0.000000D+00  0.220055D-01
      3   0.000000D+00  0.000000D+00  0.000000D+00  0.000000D+00  0.813078D-01
      4  -0.198929D+00  0.163277D-01 -0.134150D+00  0.589286D-01  0.000000D+00
      5   0.000000D+00  0.000000D+00  0.000000D+00  0.000000D+00 -0.859405D-01
      6   0.000000D+00  0.000000D+00  0.000000D+00  0.000000D+00 -0.235820D+00
      7   0.565275D+00 -0.458062D-01  0.396097D+00 -0.195662D+00  0.000000D+00
      8  -0.417362D-01 -0.436914D+00 -0.189790D+00  0.493894D-01  0.000000D+00
      9  -0.679675D+00  0.167062D+01  0.402003D+00  0.312340D+00  0.000000D+00
     10   0.000000D+00  0.000000D+00  0.000000D+00  0.000000D+00  0.997149D-01
     11   0.000000D+00  0.000000D+00  0.000000D+00  0.000000D+00 -0.175234D+01
     12   0.000000D+00  0.000000D+00  0.000000D+00  0.000000D+00  0.631329D-01
     13   0.000000D+00  0.000000D+00  0.000000D+00  0.000000D+00  0.195984D+00
     14   0.000000D+00  0.000000D+00  0.000000D+00  0.000000D+00 -0.127119D+00
     15   0.662936D+00 -0.207451D+01 -0.540136D+00 -0.333763D+00  0.000000D+00
     16  -0.221996D+00 -0.298092D+00 -0.199564D+00 -0.314088D-01  0.000000D+00
               566           567           568           569           570 
      1  -0.186052D+03 -0.186042D+03 -0.186035D+03 -0.186022D+03 -0.186014D+03
      2   0.650672D-01 -0.123184D+00  0.000000D+00  0.529658D-01  0.000000D+00
      3   0.280472D-01  0.151528D+00  0.000000D+00 -0.138371D+00  0.000000D+00
      4   0.000000D+00  0.000000D+00  0.529900D-01  0.000000D+00  0.784517D-01
      5  -0.238324D+00  0.394742D+00  0.000000D+00 -0.164916D+00  0.000000D+00
      6  -0.470319D-01 -0.468397D+00  0.000000D+00  0.415134D+00  0.000000D+00
      7   0.000000D+00  0.000000D+00 -0.162254D+00  0.000000D+00 -0.232164D+00
      8   0.000000D+00  0.000000D+00  0.287055D-01  0.000000D+00  0.761982D-01
      9   0.000000D+00  0.000000D+00 -0.518528D-01  0.000000D+00 -0.186152D+00
     10   0.189011D+00 -0.291737D+00  0.000000D+00  0.158987D+00  0.000000D+00
     11  -0.334379D+01 -0.897465D+00  0.000000D+00  0.116471D+01  0.000000D+00
     12  -0.110453D+00  0.281152D+00  0.000000D+00 -0.329784D+00  0.000000D+00
     13   0.114335D+00  0.807614D-01  0.000000D+00  0.285211D-01  0.000000D+00
     14  -0.681825D+00 -0.612432D+00  0.000000D+00  0.643314D+00  0.000000D+00
     15   0.000000D+00  0.000000D+00  0.113336D+00  0.000000D+00  0.208613D+00
     16   0.000000D+00  0.000000D+00 -0.208185D-01  0.000000D+00  0.310027D-01
               571           572           573           574           575 
      1  -0.186007D+03 -0.185997D+03 -0.185978D+03 -0.185962D+03 -0.185955D+03
      2   0.104815D+00  0.000000D+00  0.138770D+00  0.000000D+00  0.213739D+00
      3  -0.839174D-01  0.000000D+00 -0.460047D-02  0.000000D+00  0.877709D-01
      4   0.000000D+00 -0.656052D-01  0.000000D+00 -0.209240D+00  0.000000D+00
      5  -0.344085D+00  0.000000D+00 -0.452974D+00  0.000000D+00 -0.677808D+00
      6   0.265227D+00  0.000000D+00  0.183046D-01  0.000000D+00 -0.287401D+00
      7   0.000000D+00  0.190040D+00  0.000000D+00  0.637143D+00  0.000000D+00
      8   0.000000D+00 -0.359353D-01  0.000000D+00  0.538577D-01  0.000000D+00
      9   0.000000D+00  0.420282D-01  0.000000D+00 -0.127356D+01  0.000000D+00
     10  -0.537901D-01  0.000000D+00  0.207933D+00  0.000000D+00 -0.132857D+01
     11  -0.118553D-01  0.000000D+00 -0.803319D+00  0.000000D+00  0.172365D+01
     12  -0.203924D-01  0.000000D+00  0.626598D-01  0.000000D+00 -0.206020D+00
     13   0.218254D+00  0.000000D+00  0.926065D-02  0.000000D+00 -0.109648D+00
     14   0.317503D+00  0.000000D+00  0.670577D+00  0.000000D+00 -0.102986D+01
     15   0.000000D+00 -0.770586D-01  0.000000D+00  0.175317D+01  0.000000D+00
     16   0.000000D+00  0.930572D-02  0.000000D+00 -0.141400D+00  0.000000D+00
               576           577           578           579           580 
      1  -0.185941D+03 -0.185929D+03 -0.185916D+03 -0.185889D+03 -0.185887D+03
      2   0.105616D+00 -0.158712D+00  0.000000D+00  0.915717D-01  0.000000D+00
      3  -0.137459D+00 -0.212109D-01  0.000000D+00  0.571249D-01  0.000000D+00
      4   0.000000D+00  0.000000D+00 -0.242160D+00  0.000000D+00 -0.143557D+00
      5  -0.350175D+00  0.525661D+00  0.000000D+00 -0.309336D+00  0.000000D+00
      6   0.473846D+00  0.795096D-01  0.000000D+00 -0.189157D+00  0.000000D+00
      7   0.000000D+00  0.000000D+00  0.771145D+00  0.000000D+00  0.470217D+00
      8   0.000000D+00  0.000000D+00 -0.528563D+00  0.000000D+00  0.179026D+00
      9   0.000000D+00  0.000000D+00  0.148979D+01  0.000000D+00 -0.147390D+01
     10  -0.653074D+00 -0.600405D+00  0.000000D+00 -0.500413D+00  0.000000D+00
     11  -0.123888D+00  0.909058D+00  0.000000D+00  0.153475D+01  0.000000D+00
     12  -0.811565D+00 -0.268196D+00  0.000000D+00  0.277792D+00  0.000000D+00
     13  -0.185373D-01  0.297909D-01  0.000000D+00 -0.209760D+00  0.000000D+00
     14  -0.504276D+00 -0.547946D+00  0.000000D+00  0.129811D+00  0.000000D+00
     15   0.000000D+00  0.000000D+00 -0.173311D+01  0.000000D+00  0.192119D+01
     16   0.000000D+00  0.000000D+00 -0.397974D+00  0.000000D+00  0.567460D-01
               581           582           583           584           585 
      1  -0.185883D+03 -0.185869D+03 -0.185816D+03 -0.185810D+03 -0.185789D+03
      2  -0.151995D-01  0.000000D+00  0.000000D+00  0.379744D-01  0.999144D-02
      3  -0.990289D-01  0.000000D+00  0.000000D+00  0.463780D-01  0.600804D-01
      4   0.000000D+00  0.763500D-01 -0.255467D+00  0.000000D+00  0.000000D+00
      5   0.516894D-01  0.000000D+00  0.000000D+00 -0.140831D+00 -0.204367D-01
      6   0.309863D+00  0.000000D+00  0.000000D+00 -0.175498D+00 -0.178863D+00
      7   0.000000D+00 -0.247072D+00  0.809887D+00  0.000000D+00  0.000000D+00
      8   0.000000D+00  0.840406D-01 -0.683337D+00  0.000000D+00  0.000000D+00
      9   0.000000D+00 -0.513844D-01  0.131143D+01  0.000000D+00  0.000000D+00
     10   0.417977D+00  0.000000D+00  0.000000D+00  0.439727D+00 -0.357737D+00
     11   0.219782D+00  0.000000D+00  0.000000D+00  0.809043D-01 -0.599538D+00
     12   0.381766D-01  0.000000D+00  0.000000D+00  0.556091D+00 -0.216273D+00
     13   0.322695D+00  0.000000D+00  0.000000D+00  0.320655D-02  0.177658D+00
     14   0.320101D+00  0.000000D+00  0.000000D+00  0.538375D+00 -0.702368D+00
     15   0.000000D+00  0.117722D+00 -0.161348D+01  0.000000D+00  0.000000D+00
     16   0.000000D+00  0.280938D+00 -0.732532D+00  0.000000D+00  0.000000D+00
               586           587           588           589           590 
      1  -0.185786D+03 -0.185782D+03 -0.185755D+03 -0.185734D+03 -0.185712D+03
      2   0.000000D+00  0.718467D-02 -0.937946D-01  0.130018D+00  0.000000D+00
      3   0.000000D+00 -0.919725D-01 -0.125123D+00 -0.118499D+00  0.000000D+00
      4   0.456733D-02  0.000000D+00  0.000000D+00  0.000000D+00  0.811929D-01
      5   0.000000D+00 -0.171936D-01  0.304961D+00 -0.491853D+00  0.000000D+00
      6   0.000000D+00  0.289770D+00  0.438951D+00  0.400270D+00  0.000000D+00
      7  -0.159393D-01  0.000000D+00  0.000000D+00  0.000000D+00 -0.266202D+00
      8   0.114457D+00  0.000000D+00  0.000000D+00  0.000000D+00 -0.839760D-01
      9  -0.339997D+00  0.000000D+00  0.000000D+00  0.000000D+00  0.397024D+00
     10   0.000000D+00  0.197140D+00 -0.105905D-02  0.574686D+00  0.000000D+00
     11   0.000000D+00  0.106810D-01 -0.258374D+01 -0.659759D+00  0.000000D+00
     12   0.000000D+00  0.848939D-01 -0.334990D+00 -0.335756D-01  0.000000D+00
     13   0.000000D+00  0.395591D+00  0.503806D-01 -0.321964D-01  0.000000D+00
     14   0.000000D+00  0.102496D+00 -0.832161D+00  0.989078D+00  0.000000D+00
     15   0.357405D+00  0.000000D+00  0.000000D+00  0.000000D+00 -0.550999D+00
     16   0.642674D+00  0.000000D+00  0.000000D+00  0.000000D+00 -0.188181D+00
               591           592           593           594           595 
      1  -0.185703D+03 -0.185699D+03 -0.185686D+03 -0.185635D+03 -0.185631D+03
      2   0.000000D+00 -0.101206D-01  0.000000D+00 -0.175003D-02  0.000000D+00
      3   0.000000D+00 -0.642642D-01  0.000000D+00 -0.179192D-01  0.000000D+00
      4   0.155521D+00  0.000000D+00 -0.119608D+00  0.000000D+00  0.554454D-01
      5   0.000000D+00  0.359802D-01  0.000000D+00 -0.180479D-02  0.000000D+00
      6   0.000000D+00  0.210799D+00  0.000000D+00  0.419607D-01  0.000000D+00
      7  -0.538704D+00  0.000000D+00  0.395444D+00  0.000000D+00 -0.191042D+00
      8   0.386319D+00  0.000000D+00 -0.261520D+00  0.000000D+00  0.662838D-01
      9  -0.498303D+00  0.000000D+00  0.522065D+00  0.000000D+00  0.106851D-01
     10   0.000000D+00  0.197712D+00  0.000000D+00  0.181472D+00  0.000000D+00
     11   0.000000D+00  0.741834D-02  0.000000D+00  0.102031D+01  0.000000D+00
     12   0.000000D+00  0.655079D+00  0.000000D+00  0.269715D+00  0.000000D+00
     13   0.000000D+00 -0.437981D+00  0.000000D+00 -0.181742D+00  0.000000D+00
     14   0.000000D+00  0.267554D+00  0.000000D+00  0.883189D+00  0.000000D+00
     15   0.640776D+00  0.000000D+00 -0.201724D+00  0.000000D+00 -0.153545D+00
     16   0.489364D+00  0.000000D+00  0.337317D-01  0.000000D+00  0.354645D+00
               596           597           598           599           600 
      1  -0.185627D+03 -0.185614D+03 -0.185587D+03 -0.185582D+03 -0.185579D+03
      2   0.000000D+00  0.121376D+00  0.000000D+00  0.877002D-01  0.477289D-01
      3   0.000000D+00  0.409082D-01  0.000000D+00  0.133702D+00  0.482719D-02
      4  -0.493336D-01  0.000000D+00  0.615976D-01  0.000000D+00  0.000000D+00
      5   0.000000D+00 -0.462811D+00  0.000000D+00 -0.334987D+00 -0.178058D+00
      6   0.000000D+00 -0.150111D+00  0.000000D+00 -0.462442D+00 -0.291298D-01
      7   0.156932D+00  0.000000D+00 -0.223687D+00  0.000000D+00  0.000000D+00
      8   0.432904D-01  0.000000D+00  0.355721D+00  0.000000D+00  0.000000D+00
      9  -0.184864D+00  0.000000D+00 -0.114769D+01  0.000000D+00  0.000000D+00
     10   0.000000D+00  0.435178D-02  0.000000D+00 -0.864584D+00 -0.131394D+00
     11   0.000000D+00  0.204815D+00  0.000000D+00  0.125761D+00  0.296755D+00
     12   0.000000D+00  0.407903D+00  0.000000D+00 -0.307066D+00  0.279839D+00
     13   0.000000D+00 -0.994508D-02  0.000000D+00  0.162201D-03 -0.342407D-01
     14   0.000000D+00  0.510596D+00  0.000000D+00 -0.832163D+00  0.849781D-01
     15  -0.204473D-01  0.000000D+00  0.132960D+01  0.000000D+00  0.000000D+00
     16  -0.515387D-01  0.000000D+00  0.343974D+00  0.000000D+00  0.000000D+00
               601           602           603           604           605 
      1  -0.185549D+03 -0.185545D+03 -0.185524D+03 -0.185518D+03 -0.185511D+03
      2   0.000000D+00  0.000000D+00  0.000000D+00  0.817457D-01  0.297653D-01
      3   0.000000D+00  0.000000D+00  0.000000D+00  0.575901D-01  0.320826D-02
      4  -0.746821D-02 -0.688264D-01 -0.977374D-01  0.000000D+00  0.000000D+00
      5   0.000000D+00  0.000000D+00  0.000000D+00 -0.302610D+00 -0.119346D+00
      6   0.000000D+00  0.000000D+00  0.000000D+00 -0.184620D+00 -0.199053D-01
      7   0.370574D-01  0.226764D+00  0.353591D+00  0.000000D+00  0.000000D+00
      8  -0.114048D+00 -0.939097D-01  0.105732D+00  0.000000D+00  0.000000D+00
      9   0.282540D+00  0.181439D+00 -0.101810D+01  0.000000D+00  0.000000D+00
     10   0.000000D+00  0.000000D+00  0.000000D+00 -0.111230D+01  0.590268D+00
     11   0.000000D+00  0.000000D+00  0.000000D+00 -0.295743D+01 -0.610130D+00
     12   0.000000D+00  0.000000D+00  0.000000D+00  0.132520D-02  0.412425D+00
     13   0.000000D+00  0.000000D+00  0.000000D+00  0.456085D-01  0.121634D-03
     14   0.000000D+00  0.000000D+00  0.000000D+00 -0.169086D+01  0.313373D+00
     15  -0.979126D-01 -0.932883D-01  0.120270D+01  0.000000D+00  0.000000D+00
     16  -0.359704D+00 -0.761316D-01  0.857246D-01  0.000000D+00  0.000000D+00
               606           607           608           609           610 
      1  -0.185440D+03 -0.185418D+03 -0.185401D+03 -0.185390D+03 -0.185386D+03
      2   0.193422D-01 -0.141141D+00  0.000000D+00  0.159932D-01  0.000000D+00
      3  -0.409234D-01  0.213376D-01  0.000000D+00 -0.467879D-01  0.000000D+00
      4   0.000000D+00  0.000000D+00 -0.261733D-01  0.000000D+00  0.945448D-01
      5  -0.867580D-01  0.527881D+00  0.000000D+00 -0.697214D-01  0.000000D+00
      6   0.156534D+00 -0.676046D-01  0.000000D+00  0.205153D+00  0.000000D+00
      7   0.000000D+00  0.000000D+00  0.125308D+00  0.000000D+00 -0.344170D+00
      8   0.000000D+00  0.000000D+00 -0.159177D+00  0.000000D+00  0.274483D+00
      9   0.000000D+00  0.000000D+00  0.571043D+00  0.000000D+00 -0.364018D+00
     10   0.259346D+00 -0.763609D+00  0.000000D+00  0.426252D+00  0.000000D+00
     11  -0.292418D+00  0.233867D+01  0.000000D+00 -0.263403D+01  0.000000D+00
     12   0.642054D-01 -0.295839D+00  0.000000D+00 -0.766886D-01  0.000000D+00
     13   0.756200D-01 -0.111565D+00  0.000000D+00  0.754943D-01  0.000000D+00
     14   0.428269D+00 -0.700974D+00  0.000000D+00  0.375021D-01  0.000000D+00
     15   0.000000D+00  0.000000D+00 -0.710524D+00  0.000000D+00  0.325417D+00
     16   0.000000D+00  0.000000D+00  0.100833D+00  0.000000D+00  0.236529D+00
               611           612           613           614           615 
      1  -0.185370D+03 -0.185362D+03 -0.185356D+03 -0.185336D+03 -0.185323D+03
      2   0.000000D+00 -0.660196D-01 -0.162834D-01 -0.129334D+00  0.554466D-01
      3   0.000000D+00 -0.483255D-01 -0.396178D-01  0.930211D-01  0.127758D-01
      4   0.543259D-01  0.000000D+00  0.000000D+00  0.000000D+00  0.000000D+00
      5   0.000000D+00  0.285319D+00  0.510174D-01  0.530015D+00 -0.207670D+00
      6   0.000000D+00  0.200546D+00  0.152568D+00 -0.365341D+00 -0.434153D-01
      7  -0.202983D+00  0.000000D+00  0.000000D+00  0.000000D+00  0.000000D+00
      8  -0.261998D-02  0.000000D+00  0.000000D+00  0.000000D+00  0.000000D+00
      9   0.469327D+00  0.000000D+00  0.000000D+00  0.000000D+00  0.000000D+00
     10   0.000000D+00 -0.344556D+00  0.290670D+00 -0.404160D+00 -0.203880D+00
     11   0.000000D+00  0.485540D+00 -0.536496D+00  0.273972D+01 -0.792395D+00
     12   0.000000D+00 -0.342483D+00  0.676876D-01  0.189309D+00  0.233179D+00
     13   0.000000D+00  0.322681D-01 -0.943517D-01 -0.171963D+00  0.247525D-01
     14   0.000000D+00 -0.652710D+00  0.817549D-01 -0.476053D+00 -0.260039D+00
     15  -0.444339D+00  0.000000D+00  0.000000D+00  0.000000D+00  0.000000D+00
     16  -0.410776D-01  0.000000D+00  0.000000D+00  0.000000D+00  0.000000D+00
               616           617           618           619           620 
      1  -0.185291D+03 -0.185267D+03 -0.185257D+03 -0.185255D+03 -0.185194D+03
      2   0.126827D-01  0.000000D+00 -0.107598D-01  0.000000D+00  0.466346D-01
      3  -0.176406D+00  0.000000D+00 -0.604680D-01  0.000000D+00  0.909045D-01
      4   0.000000D+00  0.335091D-01  0.000000D+00 -0.405389D-01  0.000000D+00
      5  -0.404605D-01  0.000000D+00  0.586319D-01  0.000000D+00 -0.199332D+00
      6   0.694787D+00  0.000000D+00  0.249527D+00  0.000000D+00 -0.350922D+00
      7   0.000000D+00 -0.117438D+00  0.000000D+00  0.157494D+00  0.000000D+00
      8   0.000000D+00 -0.617376D-01  0.000000D+00 -0.142661D+00  0.000000D+00
      9   0.000000D+00  0.251864D+00  0.000000D+00  0.302001D+00  0.000000D+00
     10  -0.154452D+01  0.000000D+00 -0.161069D+00  0.000000D+00  0.442068D+00
     11  -0.830793D-01  0.000000D+00  0.215262D-02  0.000000D+00 -0.511636D+00
     12  -0.970349D+00  0.000000D+00 -0.679578D-01  0.000000D+00  0.629100D+00
     13  -0.117463D+00  0.000000D+00 -0.246922D+00  0.000000D+00  0.845494D-01
     14  -0.191649D+01  0.000000D+00 -0.276422D+00  0.000000D+00  0.569920D+00
     15   0.000000D+00 -0.130330D+00  0.000000D+00 -0.327336D+00  0.000000D+00
     16   0.000000D+00 -0.239599D-01  0.000000D+00  0.212540D-01  0.000000D+00
               621           622           623           624           625 
      1  -0.185180D+03 -0.185175D+03 -0.185159D+03 -0.185046D+03 -0.185009D+03
      2  -0.949875D-01  0.645038D-01 -0.652637D-01 -0.730671D-01 -0.350273D-01
      3   0.489130D-01 -0.345963D-01 -0.498886D-01  0.598260D-01  0.852878D-02
      4   0.000000D+00  0.000000D+00  0.000000D+00  0.000000D+00  0.000000D+00
      5   0.351811D+00 -0.306059D+00  0.273985D+00  0.310858D+00  0.164288D+00
      6  -0.207126D+00  0.116524D+00  0.227018D+00 -0.219977D+00 -0.329297D-01
      7   0.000000D+00  0.000000D+00  0.000000D+00  0.000000D+00  0.000000D+00
      8   0.000000D+00  0.000000D+00  0.000000D+00  0.000000D+00  0.000000D+00
      9   0.000000D+00  0.000000D+00  0.000000D+00  0.000000D+00  0.000000D+00
     10   0.440118D+00 -0.165161D+00 -0.392082D+00  0.807077D+00  0.377041D+00
     11  -0.103304D+01  0.138954D+01 -0.119637D+01 -0.156561D+01 -0.753030D-01
     12   0.270200D+00 -0.662991D-01 -0.463620D+00  0.312780D+00 -0.984402D-01
     13   0.160507D+00  0.873676D-01  0.129542D+00  0.602682D-01  0.124198D+00
     14   0.229400D+00  0.415361D+00 -0.554579D+00  0.211413D+00  0.177296D-01
     15   0.000000D+00  0.000000D+00  0.000000D+00  0.000000D+00  0.000000D+00
     16   0.000000D+00  0.000000D+00  0.000000D+00  0.000000D+00  0.000000D+00
               626           627           628           629           630 
      1  -0.184920D+03 -0.184834D+03 -0.184719D+03 -0.184680D+03 -0.184594D+03
      2   0.354961D-01 -0.772023D-02 -0.132244D-01  0.155617D-01  0.463792D-02
      3  -0.106123D-01  0.398185D-02  0.707867D-02 -0.166500D-01  0.228479D-01
      4   0.000000D+00  0.000000D+00  0.000000D+00  0.000000D+00  0.000000D+00
      5  -0.117303D+00 -0.107528D-01  0.355344D-01 -0.760084D-01  0.114970D-01
      6   0.528636D-01  0.454672D-03 -0.102197D-01  0.426415D-01 -0.623129D-01
      7   0.000000D+00  0.000000D+00  0.000000D+00  0.000000D+00  0.000000D+00
      8   0.000000D+00  0.000000D+00  0.000000D+00  0.000000D+00  0.000000D+00
      9   0.000000D+00  0.000000D+00  0.000000D+00  0.000000D+00  0.000000D+00
     10  -0.176680D+00  0.581916D-01 -0.992369D-01 -0.110797D+00  0.147794D+00
     11   0.956845D+00 -0.231978D+00 -0.225344D-02  0.366472D-01 -0.214706D+00
     12  -0.226840D-01 -0.152962D+00 -0.115557D+00 -0.485381D-01 -0.112594D+00
     13  -0.177445D+00 -0.526658D-01 -0.318436D-01 -0.560334D-01  0.719288D-01
     14   0.935304D-01 -0.144896D-01  0.142060D+00 -0.216182D+00  0.106561D+00
     15   0.000000D+00  0.000000D+00  0.000000D+00  0.000000D+00  0.000000D+00
     16   0.000000D+00  0.000000D+00  0.000000D+00  0.000000D+00  0.000000D+00
 Unable to Open any file for archive entry.
 1\1\GINC-HEL03\SP\RwB97XD TD-FC\Gen\C1H2O2\RR\12-Feb-2022\0\\#P TD(Nst
 ates=10000) wB97XD/Gen SCF(maxcycles=100) Int(Grid=ultrafine)\\xGDB7_0
 0001_tier4.com\\0,1\O,0,-1.024468,-0.434082,0.\C,0,0.,0.418387,0.\O,0,
 1.153588,0.104048,0.\H,0,-0.655274,-1.330952,0.\H,0,-0.377689,1.460904
 ,0.\\Version=EM64L-G16RevC.01\State=1-A'\HF=-189.5758107\RMSD=3.507e-0
 9\PG=CS [SG(C1H2O2)]\\@
 The archive entry for this job was punched.


 The juvenile sea squirt wanders through the sea searching
 for a suitable rock or hunk of coral to cling to and make
 its home for life.  For this task it has a rudimentary
 nervous system.  When it finds its spot and takes root, it
 doesn't need its brain any more so it eats it.
 It's rather like getting tenure.

                               -- source unknown
 Job cpu time:       0 days  0 hours  6 minutes 21.0 seconds.
 Elapsed time:       0 days  0 hours  0 minutes 48.0 seconds.
 File lengths (MBytes):  RWF=    508 Int=      0 D2E=      0 Chk=    107 Scr=      1
 Normal termination of Gaussian 16 at Sat Feb 12 22:18:42 2022.
