 Entering Gaussian System, Link 0=g16
 Input=bigQM7w_TDwB97XD_def2SVPD_000013.com
 Output=bigQM7w_TDwB97XD_def2SVPD_000013.log
 Initial command:
 /home/rr/g16/l1.exe "/scratch/rr/PBS_7839458.helios/Gau-63914.inp" -scrdir="/scratch/rr/PBS_7839458.helios/"
 Entering Link 1 = /home/rr/g16/l1.exe PID=     63921.
  
 Copyright (c) 1988-2019, Gaussian, Inc.  All Rights Reserved.
  
 This is part of the Gaussian(R) 16 program.  It is based on
 the Gaussian(R) 09 system (copyright 2009, Gaussian, Inc.),
 the Gaussian(R) 03 system (copyright 2003, Gaussian, Inc.),
 the Gaussian(R) 98 system (copyright 1998, Gaussian, Inc.),
 the Gaussian(R) 94 system (copyright 1995, Gaussian, Inc.),
 the Gaussian 92(TM) system (copyright 1992, Gaussian, Inc.),
 the Gaussian 90(TM) system (copyright 1990, Gaussian, Inc.),
 the Gaussian 88(TM) system (copyright 1988, Gaussian, Inc.),
 the Gaussian 86(TM) system (copyright 1986, Carnegie Mellon
 University), and the Gaussian 82(TM) system (copyright 1983,
 Carnegie Mellon University). Gaussian is a federally registered
 trademark of Gaussian, Inc.
  
 This software contains proprietary and confidential information,
 including trade secrets, belonging to Gaussian, Inc.
  
 This software is provided under written license and may be
 used, copied, transmitted, or stored only in accord with that
 written license.
  
 The following legend is applicable only to US Government
 contracts under FAR:
  
                    RESTRICTED RIGHTS LEGEND
  
 Use, reproduction and disclosure by the US Government is
 subject to restrictions as set forth in subparagraphs (a)
 and (c) of the Commercial Computer Software - Restricted
 Rights clause in FAR 52.227-19.
  
 Gaussian, Inc.
 340 Quinnipiac St., Bldg. 40, Wallingford CT 06492
  
  
 ---------------------------------------------------------------
 Warning -- This program may not be used in any manner that
 competes with the business of Gaussian, Inc. or will provide
 assistance to any competitor of Gaussian, Inc.  The licensee
 of this program is prohibited from giving any competitor of
 Gaussian, Inc. access to this program.  By using this program,
 the user acknowledges that Gaussian, Inc. is engaged in the
 business of creating and licensing software in the field of
 computational chemistry and represents and warrants to the
 licensee that it is not a competitor of Gaussian, Inc. and that
 it will not use this program in any manner prohibited above.
 ---------------------------------------------------------------
  

 Cite this work as:
 Gaussian 16, Revision C.01,
 M. J. Frisch, G. W. Trucks, H. B. Schlegel, G. E. Scuseria, 
 M. A. Robb, J. R. Cheeseman, G. Scalmani, V. Barone, 
 G. A. Petersson, H. Nakatsuji, X. Li, M. Caricato, A. V. Marenich, 
 J. Bloino, B. G. Janesko, R. Gomperts, B. Mennucci, H. P. Hratchian, 
 J. V. Ortiz, A. F. Izmaylov, J. L. Sonnenberg, D. Williams-Young, 
 F. Ding, F. Lipparini, F. Egidi, J. Goings, B. Peng, A. Petrone, 
 T. Henderson, D. Ranasinghe, V. G. Zakrzewski, J. Gao, N. Rega, 
 G. Zheng, W. Liang, M. Hada, M. Ehara, K. Toyota, R. Fukuda, 
 J. Hasegawa, M. Ishida, T. Nakajima, Y. Honda, O. Kitao, H. Nakai, 
 T. Vreven, K. Throssell, J. A. Montgomery, Jr., J. E. Peralta, 
 F. Ogliaro, M. J. Bearpark, J. J. Heyd, E. N. Brothers, K. N. Kudin, 
 V. N. Staroverov, T. A. Keith, R. Kobayashi, J. Normand, 
 K. Raghavachari, A. P. Rendell, J. C. Burant, S. S. Iyengar, 
 J. Tomasi, M. Cossi, J. M. Millam, M. Klene, C. Adamo, R. Cammi, 
 J. W. Ochterski, R. L. Martin, K. Morokuma, O. Farkas, 
 J. B. Foresman, and D. J. Fox, Gaussian, Inc., Wallingford CT, 2019.
 
 ******************************************
 Gaussian 16:  EM64L-G16RevC.01  3-Jul-2019
                12-Feb-2022 
 ******************************************
 %mem=64gb
 %nproc=8
 Will use up to    8 processors via shared memory.
 ----------------------------------------------------------------------
 #P TD(Nstates=10000) wB97XD/Gen SCF(maxcycles=100) Int(Grid=ultrafine)
 ----------------------------------------------------------------------
 1/38=1,172=1/1;
 2/12=2,17=6,18=5,40=1/2;
 3/5=7,11=9,25=1,30=1,74=-58,75=-5/1,2,3,8;
 4//1;
 5/5=2,7=100,38=5/2;
 8/6=1,10=1,108=10000/1;
 9/41=10000,42=1,70=2/14;
 6/7=2,8=2,9=2,10=2/1;
 99/5=1,9=1/99;
 Leave Link    1 at Sat Feb 12 22:22:42 2022, MaxMem=  8589934592 cpu:               0.4 elap:               0.1
 (Enter /home/rr/g16/l101.exe)
 ---------------------
 xGDB7_00001_tier4.com
 ---------------------
 Symbolic Z-matrix:
 Charge =  0 Multiplicity = 1
 6                     0.        0.        0.60339 
 6                     0.        0.       -0.60339 
 1                     0.        0.        1.67798 
 1                     0.        0.       -1.67798 
 
 ITRead=  0  0  0  0
 MicOpt= -1 -1 -1 -1
 NAtoms=      4 NQM=        4 NQMF=       0 NMMI=      0 NMMIF=      0
                NMic=       0 NMicF=      0.
                    Isotopes and Nuclear Properties:
 (Nuclear quadrupole moments (NQMom) in fm**2, nuclear magnetic moments (NMagM)
  in nuclear magnetons)

  Atom         1           2           3           4
 IAtWgt=          12          12           1           1
 AtmWgt=  12.0000000  12.0000000   1.0078250   1.0078250
 NucSpn=           0           0           1           1
 AtZEff=  -0.0000000  -0.0000000  -0.0000000  -0.0000000
 NQMom=    0.0000000   0.0000000   0.0000000   0.0000000
 NMagM=    0.0000000   0.0000000   2.7928460   2.7928460
 AtZNuc=   6.0000000   6.0000000   1.0000000   1.0000000
 Leave Link  101 at Sat Feb 12 22:22:42 2022, MaxMem=  8589934592 cpu:               0.7 elap:               0.1
 (Enter /home/rr/g16/l202.exe)
                          Input orientation:                          
 ---------------------------------------------------------------------
 Center     Atomic      Atomic             Coordinates (Angstroms)
 Number     Number       Type             X           Y           Z
 ---------------------------------------------------------------------
      1          6           0        0.000000    0.000000    0.603394
      2          6           0        0.000000    0.000000   -0.603394
      3          1           0        0.000000    0.000000    1.677978
      4          1           0        0.000000    0.000000   -1.677978
 ---------------------------------------------------------------------
                    Distance matrix (angstroms):
                    1          2          3          4
     1  C    0.000000
     2  C    1.206788   0.000000
     3  H    1.074584   2.281372   0.000000
     4  H    2.281372   1.074584   3.355956   0.000000
 Stoichiometry    C2H2
 Framework group  D*H[C*(HC.CH)]
 Deg. of freedom     2
 Full point group                 D*H     NOp   8
 Largest Abelian subgroup         D2H     NOp   8
 Largest concise Abelian subgroup C2      NOp   2
                         Standard orientation:                         
 ---------------------------------------------------------------------
 Center     Atomic      Atomic             Coordinates (Angstroms)
 Number     Number       Type             X           Y           Z
 ---------------------------------------------------------------------
      1          6           0        0.000000    0.000000    0.603394
      2          6           0        0.000000    0.000000   -0.603394
      3          1           0        0.000000    0.000000    1.677978
      4          1           0        0.000000    0.000000   -1.677978
 ---------------------------------------------------------------------
 Rotational constants (GHZ):           0.0000000          35.0633589          35.0633589
 Leave Link  202 at Sat Feb 12 22:22:42 2022, MaxMem=  8589934592 cpu:               0.1 elap:               0.0
 (Enter /home/rr/g16/l301.exe)
 General basis read from cards:  (5D, 7F)
 Centers:       3      4
 S 3 1.00
     Exponent=  1.3010701000D+01 Coefficients=  1.9682158000D-02
     Exponent=  1.9622572000D+00 Coefficients=  1.3796524000D-01
     Exponent=  4.4453796000D-01 Coefficients=  4.7831935000D-01
 S 1 1.00
     Exponent=  1.2194962000D-01 Coefficients=  1.0000000000D+00
 P 1 1.00
     Exponent=  8.0000000000D-01 Coefficients=  1.0000000000D+00
 P 1 1.00
     Exponent=  1.1704099050D-01 Coefficients=  1.0000000000D+00
 ****
 Centers:       1      2
 S 5 1.00
     Exponent=  1.2384016938D+03 Coefficients=  5.4568832082D-03
     Exponent=  1.8629004992D+02 Coefficients=  4.0638409211D-02
     Exponent=  4.2251176346D+01 Coefficients=  1.8025593888D-01
     Exponent=  1.1676557932D+01 Coefficients=  4.6315121755D-01
     Exponent=  3.5930506482D+00 Coefficients=  4.4087173314D-01
 S 1 1.00
     Exponent=  4.0245147363D-01 Coefficients=  1.0000000000D+00
 S 1 1.00
     Exponent=  1.3090182668D-01 Coefficients=  1.0000000000D+00
 S 1 1.00
     Exponent=  6.7053540256D-02 Coefficients=  1.0000000000D+00
 P 3 1.00
     Exponent=  9.4680970621D+00 Coefficients=  3.8387871728D-02
     Exponent=  2.0103545142D+00 Coefficients=  2.1117025112D-01
     Exponent=  5.4771004707D-01 Coefficients=  5.1328172114D-01
 P 1 1.00
     Exponent=  1.5268613795D-01 Coefficients=  1.0000000000D+00
 D 1 1.00
     Exponent=  8.0000000000D-01 Coefficients=  1.0000000000D+00
 D 1 1.00
     Exponent=  1.1713185140D-01 Coefficients=  1.0000000000D+00
 ****
 Ernie: Thresh=  0.10000D-02 Tol=  0.10000D-05 Strict=F.
 There are    16 symmetry adapted cartesian basis functions of AG  symmetry.
 There are     2 symmetry adapted cartesian basis functions of B1G symmetry.
 There are     6 symmetry adapted cartesian basis functions of B2G symmetry.
 There are     6 symmetry adapted cartesian basis functions of B3G symmetry.
 There are     2 symmetry adapted cartesian basis functions of AU  symmetry.
 There are    16 symmetry adapted cartesian basis functions of B1U symmetry.
 There are     6 symmetry adapted cartesian basis functions of B2U symmetry.
 There are     6 symmetry adapted cartesian basis functions of B3U symmetry.
 There are    14 symmetry adapted basis functions of AG  symmetry.
 There are     2 symmetry adapted basis functions of B1G symmetry.
 There are     6 symmetry adapted basis functions of B2G symmetry.
 There are     6 symmetry adapted basis functions of B3G symmetry.
 There are     2 symmetry adapted basis functions of AU  symmetry.
 There are    14 symmetry adapted basis functions of B1U symmetry.
 There are     6 symmetry adapted basis functions of B2U symmetry.
 There are     6 symmetry adapted basis functions of B3U symmetry.
    56 basis functions,    84 primitive gaussians,    60 cartesian basis functions
     7 alpha electrons        7 beta electrons
       nuclear repulsion energy        24.6365525661 Hartrees.
 IExCor= 4639 DFT=T Ex+Corr=wB97XD ExCW=0 ScaHFX=  1.000000
 ScaDFX=  1.000000  1.000000  1.000000  1.000000 ScalE2=  1.000000  1.000000
 IRadAn=      5 IRanWt=     -1 IRanGd=            0 ICorTp=0 IEmpDi=121
 HFx  wShort=  0.000000 wLong=  0.200000 cFull=  0.222036 cShort=  0.000000 cLong=  0.777964
 DFx  wShort=  0.000000 wLong=  0.200000 cFull=  0.000000 cShort=  0.000000 cLong=  1.000000
 NAtoms=    4 NActive=    4 NUniq=    2 SFac= 4.00D+00 NAtFMM=   60 NAOKFM=F Big=F
 Integral buffers will be    131072 words long.
 Raffenetti 1 integral format.
 Two-electron integral symmetry is turned on.
 R6Disp:  Grimme-D2 Dispersion energy=       -0.0002143533 Hartrees.
 Nuclear repulsion after empirical dispersion term =       24.6363382128 Hartrees.
 Leave Link  301 at Sat Feb 12 22:22:42 2022, MaxMem=  8589934592 cpu:               0.5 elap:               0.1
 (Enter /home/rr/g16/l302.exe)
 NPDir=0 NMtPBC=     1 NCelOv=     1 NCel=       1 NClECP=     1 NCelD=      1
         NCelK=      1 NCelE2=     1 NClLst=     1 CellRange=     0.0.
 One-electron integrals computed using PRISM.
 One-electron integral symmetry used in STVInt
 NBasis=    56 RedAO= T EigKep=  5.29D-05  NBF=    14     2     6     6     2    14     6     6
 NBsUse=    56 1.00D-06 EigRej= -1.00D+00 NBFU=    14     2     6     6     2    14     6     6
 Precomputing XC quadrature grid using
 IXCGrd= 4 IRadAn=           5 IRanWt=          -1 IRanGd=           0 AccXCQ= 0.00D+00.
 Generated NRdTot=       0 NPtTot=           0 NUsed=           0 NTot=          32
 NSgBfM=    60    60    60    60    60 MxSgAt=     4 MxSgA2=     4.
 Leave Link  302 at Sat Feb 12 22:22:42 2022, MaxMem=  8589934592 cpu:               0.9 elap:               0.1
 (Enter /home/rr/g16/l303.exe)
 DipDrv:  MaxL=1.
 Leave Link  303 at Sat Feb 12 22:22:42 2022, MaxMem=  8589934592 cpu:               0.2 elap:               0.1
 (Enter /home/rr/g16/l308.exe)
 Leave Link  308 at Sat Feb 12 22:22:42 2022, MaxMem=  8589934592 cpu:               0.2 elap:               0.0
 (Enter /home/rr/g16/l401.exe)
 ExpMin= 6.71D-02 ExpMax= 1.24D+03 ExpMxC= 1.86D+02 IAcc=3 IRadAn=         5 AccDes= 0.00D+00
 Harris functional with IExCor= 4639 and IRadAn=       5 diagonalized for initial guess.
 HarFok:  IExCor= 4639 AccDes= 0.00D+00 IRadAn=         5 IDoV= 1 UseB2=F ITyADJ=14
 ICtDFT=  3500011 ScaDFX=  1.000000  1.000000  1.000000  1.000000
 FoFCou: FMM=F IPFlag=           0 FMFlag=      100000 FMFlg1=           0
         NFxFlg=           0 DoJE=T BraDBF=F KetDBF=T FulRan=T
         wScrn=  0.000000 ICntrl=       500 IOpCl=  0 I1Cent=   200000004 NGrid=           0
         NMat0=    1 NMatS0=      1 NMatT0=    0 NMatD0=    1 NMtDS0=    0 NMtDT0=    0
 Petite list used in FoFCou.
 Harris En= -73.6837277453147    
 JPrj=0 DoOrth=F DoCkMO=F.
 Initial guess orbital symmetries:
       Occupied  (SGG) (SGU) (SGG) (SGU) (SGG) (PIU) (PIU)
       Virtual   (PIG) (PIG) (SGG) (SGU) (SGG) (SGU) (PIU) (PIU)
                 (DLTG) (DLTG) (PIG) (PIG) (SGG) (SGU) (SGG) (DLTU)
                 (DLTU) (PIU) (PIU) (SGU) (PIG) (PIG) (SGU) (SGG)
                 (PIU) (PIU) (SGG) (PIG) (PIG) (SGU) (SGG) (SGU)
                 (PIU) (PIU) (SGU) (PIG) (PIG) (DLTG) (DLTG) (DLTU)
                 (DLTU) (PIU) (PIU) (SGG) (SGU) (PIG) (PIG) (SGG)
                 (SGU)
 The electronic state of the initial guess is 1-SGG.
 Leave Link  401 at Sat Feb 12 22:22:43 2022, MaxMem=  8589934592 cpu:               1.2 elap:               0.2
 (Enter /home/rr/g16/l502.exe)
 Keep R1 ints in memory in symmetry-blocked form, NReq=9729412.
 FoFCou: FMM=F IPFlag=           0 FMFlag=           0 FMFlg1=           0
         NFxFlg=           0 DoJE=F BraDBF=F KetDBF=F FulRan=T
         wScrn=  0.000000 ICntrl=       600 IOpCl=  0 I1Cent=           0 NGrid=           0
         NMat0=    1 NMatS0=   1596 NMatT0=    0 NMatD0=    1 NMtDS0=    0 NMtDT0=    0
 Petite list used in FoFCou.
 Closed shell SCF:
 Using DIIS extrapolation, IDIIS=  1040.
 NGot=  8589934592 LenX=  8589745924 LenY=  8589741883
 Requested convergence on RMS density matrix=1.00D-08 within 100 cycles.
 Requested convergence on MAX density matrix=1.00D-06.
 Requested convergence on             energy=1.00D-06.
 No special actions if energy rises.
 Integral accuracy reduced to 1.0D-05 until final iterations.

 Cycle   1  Pass 0  IDiag  1:
 E= -77.2247621253492    
 DIIS: error= 5.32D-02 at cycle   1 NSaved=   1.
 NSaved= 1 IEnMin= 1 EnMin= -77.2247621253492     IErMin= 1 ErrMin= 5.32D-02
 ErrMax= 5.32D-02  0.00D+00 EMaxC= 1.00D-01 BMatC= 4.30D-02 BMatP= 4.30D-02
 IDIUse=3 WtCom= 4.68D-01 WtEn= 5.32D-01
 Coeff-Com:  0.100D+01
 Coeff-En:   0.100D+01
 Coeff:      0.100D+01
 Gap=     0.450 Goal=   None    Shift=    0.000
 GapD=    0.450 DampG=2.000 DampE=0.500 DampFc=1.0000 IDamp=-1.
 RMSDP=3.35D-02 MaxDP=7.60D-01              OVMax= 5.60D-02

 Cycle   2  Pass 0  IDiag  1:
 E= -77.2395799726621     Delta-E=       -0.014817847313 Rises=F Damp=F
 DIIS: error= 8.72D-03 at cycle   2 NSaved=   2.
 NSaved= 2 IEnMin= 2 EnMin= -77.2395799726621     IErMin= 2 ErrMin= 8.72D-03
 ErrMax= 8.72D-03  0.00D+00 EMaxC= 1.00D-01 BMatC= 2.33D-03 BMatP= 4.30D-02
 IDIUse=3 WtCom= 9.13D-01 WtEn= 8.72D-02
 Coeff-Com:  0.110D+00 0.890D+00
 Coeff-En:   0.000D+00 0.100D+01
 Coeff:      0.100D+00 0.900D+00
 Gap=     0.484 Goal=   None    Shift=    0.000
 RMSDP=3.53D-03 MaxDP=8.20D-02 DE=-1.48D-02 OVMax= 1.98D-02

 Cycle   3  Pass 0  IDiag  1:
 E= -77.2415245849878     Delta-E=       -0.001944612326 Rises=F Damp=F
 DIIS: error= 4.13D-03 at cycle   3 NSaved=   3.
 NSaved= 3 IEnMin= 3 EnMin= -77.2415245849878     IErMin= 3 ErrMin= 4.13D-03
 ErrMax= 4.13D-03  0.00D+00 EMaxC= 1.00D-01 BMatC= 3.64D-04 BMatP= 2.33D-03
 IDIUse=3 WtCom= 9.59D-01 WtEn= 4.13D-02
 Coeff-Com:  0.381D-02 0.282D+00 0.714D+00
 Coeff-En:   0.000D+00 0.000D+00 0.100D+01
 Coeff:      0.365D-02 0.270D+00 0.726D+00
 Gap=     0.478 Goal=   None    Shift=    0.000
 RMSDP=6.94D-04 MaxDP=7.11D-03 DE=-1.94D-03 OVMax= 6.82D-03

 Cycle   4  Pass 0  IDiag  1:
 E= -77.2419201837114     Delta-E=       -0.000395598724 Rises=F Damp=F
 DIIS: error= 1.90D-04 at cycle   4 NSaved=   4.
 NSaved= 4 IEnMin= 4 EnMin= -77.2419201837114     IErMin= 4 ErrMin= 1.90D-04
 ErrMax= 1.90D-04  0.00D+00 EMaxC= 1.00D-01 BMatC= 1.44D-06 BMatP= 3.64D-04
 IDIUse=3 WtCom= 9.98D-01 WtEn= 1.90D-03
 Coeff-Com: -0.133D-02-0.159D-01 0.175D-01 0.100D+01
 Coeff-En:   0.000D+00 0.000D+00 0.000D+00 0.100D+01
 Coeff:     -0.133D-02-0.159D-01 0.175D-01 0.100D+01
 Gap=     0.478 Goal=   None    Shift=    0.000
 RMSDP=2.11D-04 MaxDP=4.56D-03 DE=-3.96D-04 OVMax= 5.33D-04

 Cycle   5  Pass 0  IDiag  1:
 E= -77.2419224060033     Delta-E=       -0.000002222292 Rises=F Damp=F
 DIIS: error= 3.87D-05 at cycle   5 NSaved=   5.
 NSaved= 5 IEnMin= 5 EnMin= -77.2419224060033     IErMin= 5 ErrMin= 3.87D-05
 ErrMax= 3.87D-05  0.00D+00 EMaxC= 1.00D-01 BMatC= 2.38D-08 BMatP= 1.44D-06
 IDIUse=1 WtCom= 1.00D+00 WtEn= 0.00D+00
 Coeff-Com:  0.100D-03-0.716D-02-0.268D-01-0.105D+00 0.114D+01
 Coeff:      0.100D-03-0.716D-02-0.268D-01-0.105D+00 0.114D+01
 Gap=     0.478 Goal=   None    Shift=    0.000
 RMSDP=2.68D-05 MaxDP=3.68D-04 DE=-2.22D-06 OVMax= 1.37D-04

 Cycle   6  Pass 0  IDiag  1:
 E= -77.2419224661688     Delta-E=       -0.000000060165 Rises=F Damp=F
 DIIS: error= 2.09D-06 at cycle   6 NSaved=   6.
 NSaved= 6 IEnMin= 6 EnMin= -77.2419224661688     IErMin= 6 ErrMin= 2.09D-06
 ErrMax= 2.09D-06  0.00D+00 EMaxC= 1.00D-01 BMatC= 1.34D-10 BMatP= 2.38D-08
 IDIUse=1 WtCom= 1.00D+00 WtEn= 0.00D+00
 Coeff-Com: -0.111D-04 0.177D-02 0.556D-02 0.107D-01-0.228D+00 0.121D+01
 Coeff:     -0.111D-04 0.177D-02 0.556D-02 0.107D-01-0.228D+00 0.121D+01
 Gap=     0.478 Goal=   None    Shift=    0.000
 RMSDP=2.18D-06 MaxDP=5.26D-05 DE=-6.02D-08 OVMax= 9.57D-06

 Initial convergence to 1.0D-05 achieved.  Increase integral accuracy.
 Cycle   7  Pass 1  IDiag  1:
 E= -77.2419461535360     Delta-E=       -0.000023687367 Rises=F Damp=F
 DIIS: error= 2.97D-05 at cycle   1 NSaved=   1.
 NSaved= 1 IEnMin= 1 EnMin= -77.2419461535360     IErMin= 1 ErrMin= 2.97D-05
 ErrMax= 2.97D-05  0.00D+00 EMaxC= 1.00D-01 BMatC= 2.51D-08 BMatP= 2.51D-08
 IDIUse=1 WtCom= 1.00D+00 WtEn= 0.00D+00
 Coeff-Com:  0.100D+01
 Coeff:      0.100D+01
 Gap=     0.478 Goal=   None    Shift=    0.000
 RMSDP=2.18D-06 MaxDP=5.26D-05 DE=-2.37D-05 OVMax= 5.15D-05

 Cycle   8  Pass 1  IDiag  1:
 E= -77.2419461726443     Delta-E=       -0.000000019108 Rises=F Damp=F
 DIIS: error= 7.10D-06 at cycle   2 NSaved=   2.
 NSaved= 2 IEnMin= 2 EnMin= -77.2419461726443     IErMin= 2 ErrMin= 7.10D-06
 ErrMax= 7.10D-06  0.00D+00 EMaxC= 1.00D-01 BMatC= 1.10D-09 BMatP= 2.51D-08
 IDIUse=1 WtCom= 1.00D+00 WtEn= 0.00D+00
 Coeff-Com:  0.531D-01 0.947D+00
 Coeff:      0.531D-01 0.947D+00
 Gap=     0.478 Goal=   None    Shift=    0.000
 RMSDP=5.15D-06 MaxDP=8.27D-05 DE=-1.91D-08 OVMax= 1.78D-05

 Cycle   9  Pass 1  IDiag  1:
 E= -77.2419461736954     Delta-E=       -0.000000001051 Rises=F Damp=F
 DIIS: error= 3.66D-06 at cycle   3 NSaved=   3.
 NSaved= 3 IEnMin= 3 EnMin= -77.2419461736954     IErMin= 3 ErrMin= 3.66D-06
 ErrMax= 3.66D-06  0.00D+00 EMaxC= 1.00D-01 BMatC= 2.52D-10 BMatP= 1.10D-09
 IDIUse=1 WtCom= 1.00D+00 WtEn= 0.00D+00
 Coeff-Com: -0.297D-01 0.300D+00 0.730D+00
 Coeff:     -0.297D-01 0.300D+00 0.730D+00
 Gap=     0.478 Goal=   None    Shift=    0.000
 RMSDP=1.22D-06 MaxDP=2.88D-05 DE=-1.05D-09 OVMax= 5.87D-06

 Cycle  10  Pass 1  IDiag  1:
 E= -77.2419461739695     Delta-E=       -0.000000000274 Rises=F Damp=F
 DIIS: error= 1.65D-07 at cycle   4 NSaved=   4.
 NSaved= 4 IEnMin= 4 EnMin= -77.2419461739695     IErMin= 4 ErrMin= 1.65D-07
 ErrMax= 1.65D-07  0.00D+00 EMaxC= 1.00D-01 BMatC= 6.24D-13 BMatP= 2.52D-10
 IDIUse=1 WtCom= 1.00D+00 WtEn= 0.00D+00
 Coeff-Com:  0.265D-02-0.473D-01-0.915D-01 0.114D+01
 Coeff:      0.265D-02-0.473D-01-0.915D-01 0.114D+01
 Gap=     0.478 Goal=   None    Shift=    0.000
 RMSDP=6.23D-08 MaxDP=1.33D-06 DE=-2.74D-10 OVMax= 6.46D-07

 Cycle  11  Pass 1  IDiag  1:
 E= -77.2419461739710     Delta-E=       -0.000000000002 Rises=F Damp=F
 DIIS: error= 3.20D-08 at cycle   5 NSaved=   5.
 NSaved= 5 IEnMin= 5 EnMin= -77.2419461739710     IErMin= 5 ErrMin= 3.20D-08
 ErrMax= 3.20D-08  0.00D+00 EMaxC= 1.00D-01 BMatC= 1.48D-14 BMatP= 6.24D-13
 IDIUse=1 WtCom= 1.00D+00 WtEn= 0.00D+00
 Coeff-Com:  0.701D-04 0.262D-02 0.252D-02-0.183D+00 0.118D+01
 Coeff:      0.701D-04 0.262D-02 0.252D-02-0.183D+00 0.118D+01
 Gap=     0.478 Goal=   None    Shift=    0.000
 RMSDP=2.39D-08 MaxDP=4.73D-07 DE=-1.55D-12 OVMax= 1.12D-07

 Cycle  12  Pass 1  IDiag  1:
 E= -77.2419461739708     Delta-E=        0.000000000000 Rises=F Damp=F
 DIIS: error= 2.82D-09 at cycle   6 NSaved=   6.
 NSaved= 6 IEnMin= 5 EnMin= -77.2419461739710     IErMin= 6 ErrMin= 2.82D-09
 ErrMax= 2.82D-09  0.00D+00 EMaxC= 1.00D-01 BMatC= 1.83D-16 BMatP= 1.48D-14
 IDIUse=1 WtCom= 1.00D+00 WtEn= 0.00D+00
 Coeff-Com: -0.215D-05 0.464D-03 0.652D-03-0.188D-01 0.185D-01 0.999D+00
 Coeff:     -0.215D-05 0.464D-03 0.652D-03-0.188D-01 0.185D-01 0.999D+00
 Gap=     0.478 Goal=   None    Shift=    0.000
 RMSDP=7.97D-10 MaxDP=5.70D-09 DE= 2.56D-13 OVMax= 1.01D-08

 SCF Done:  E(RwB97XD) =  -77.2419461740     A.U. after   12 cycles
            NFock= 12  Conv=0.80D-09     -V/T= 2.0128
 KE= 7.626850507107D+01 PE=-2.277874006483D+02 EE= 4.964061119045D+01
 Leave Link  502 at Sat Feb 12 22:22:43 2022, MaxMem=  8589934592 cpu:               3.4 elap:               0.4
 (Enter /home/rr/g16/l801.exe)
 DoSCS=F DFT=T ScalE2(SS,OS)=  1.000000  1.000000
 ExpMin= 6.71D-02 ExpMax= 1.24D+03 ExpMxC= 1.86D+02 IAcc=3 IRadAn=         5 AccDes= 0.00D+00
 HarFok:  IExCor=  205 AccDes= 0.00D+00 IRadAn=         5 IDoV=-2 UseB2=F ITyADJ=14
 ICtDFT= 12500011 ScaDFX=  1.000000  1.000000  1.000000  1.000000
 Largest valence mixing into a core orbital is  7.45D-05
 Largest core mixing into a valence orbital is  1.86D-05
 Range of M.O.s used for correlation:     3    56
 NBasis=    56 NAE=     7 NBE=     7 NFC=     2 NFV=     0
 NROrb=     54 NOA=     5 NOB=     5 NVA=    49 NVB=    49

 **** Warning!!: The largest alpha MO coefficient is  0.64231941D+02

 Leave Link  801 at Sat Feb 12 22:22:43 2022, MaxMem=  8589934592 cpu:               0.5 elap:               0.1
 (Enter /home/rr/g16/l914.exe)
 RHF ground state
 Keep R1, R2, and R3 ints in memory in symmetry-blocked form, NReq=95156784.
 FoFCou: FMM=F IPFlag=           0 FMFlag=           0 FMFlg1=           0
         NFxFlg=           0 DoJE=F BraDBF=F KetDBF=F FulRan=T
         wScrn=  0.000000 ICntrl=       600 IOpCl=  0 I1Cent=           0 NGrid=           0
         NMat0=    1 NMatS0=   1596 NMatT0=    0 NMatD0=    1 NMtDS0=    0 NMtDT0=    0
 Petite list used in FoFCou.
 MDV=  8589934592 DFT=T DoStab=F Mixed=T DoRPA=T DoScal=F NonHer=T
 Making orbital integer symmetry assigments:
 Orbital symmetries:
       Occupied  (SGG) (SGU) (SGG) (SGU) (SGG) (PIU) (PIU)
       Virtual   (PIG) (PIG) (SGG) (SGU) (SGG) (SGU) (PIU) (PIU)
                 (DLTG) (DLTG) (PIG) (PIG) (SGG) (SGU) (SGG) (DLTU)
                 (DLTU) (PIU) (PIU) (SGU) (PIG) (PIG) (SGU) (SGG)
                 (PIU) (PIU) (SGG) (PIG) (PIG) (SGU) (SGG) (SGU)
                 (PIU) (PIU) (SGU) (PIG) (PIG) (DLTG) (DLTG) (DLTU)
                 (DLTU) (PIU) (PIU) (SGG) (SGU) (PIG) (PIG) (SGG)
                 (SGU)
   245 initial guesses have been made.
 Convergence on wavefunction:    0.001000000000000
 Davidson Disk Diagonalization:  ConvIn= 1.00D-03 SkipCon=T Conv= 1.00D-03.
 Max sub-space:  1470 roots to seek:   490 dimension of matrix:          490
 *** WARNING: Number of orthogonal guesses is          245
 Iteration     1 Dimension   245 NMult     0 NNew    245
 CISAX will form   245 AO SS matrices at one time.
 NMat=   245 NSing=   245 JSym2X=-1.
 New state      1 was old state      4
 New state      2 was old state      1
 New state      4 was old state      5
 New state      5 was old state      6
 New state      6 was old state      8
 New state      8 was old state      9
 New state      9 was old state     10
 New state     10 was old state      2
 New state     11 was old state     12
 New state     12 was old state     11
 New state     13 was old state     14
 New state     14 was old state     13
 New state     15 was old state     16
 New state     16 was old state     18
 New state     18 was old state     15
 New state     19 was old state     21
 New state     21 was old state     23
 New state     23 was old state     19
 New state     25 was old state     26
 New state     26 was old state     28
 New state     28 was old state     30
 New state     30 was old state     25
 New state     31 was old state     35
 New state     32 was old state     34
 New state     33 was old state     32
 New state     34 was old state     37
 New state     35 was old state     36
 New state     36 was old state     31
 New state     37 was old state     33
 New state     38 was old state     41
 New state     39 was old state     42
 New state     40 was old state     39
 New state     41 was old state     38
 New state     42 was old state     44
 New state     44 was old state     40
 New state     47 was old state     49
 New state     49 was old state     51
 New state     51 was old state     47
 New state     52 was old state     53
 New state     53 was old state     52
 New state     54 was old state     61
 New state     55 was old state     62
 New state     56 was old state     59
 New state     57 was old state     60
 New state     58 was old state     55
 New state     59 was old state     54
 New state     60 was old state     56
 New state     61 was old state     57
 New state     62 was old state     58
 New state     63 was old state     65
 New state     64 was old state     66
 New state     65 was old state     63
 New state     66 was old state     64
 New state     67 was old state     69
 New state     68 was old state     70
 New state     69 was old state     67
 New state     70 was old state     68
 New state     75 was old state     76
 New state     76 was old state     75
 New state     79 was old state     81
 New state     80 was old state     82
 New state     81 was old state     79
 New state     82 was old state     80
 New state     83 was old state     84
 New state     84 was old state     88
 New state     85 was old state     89
 New state     88 was old state     83
 New state     89 was old state     92
 New state     90 was old state     93
 New state     91 was old state     90
 New state     92 was old state     91
 New state     93 was old state     85
 New state     96 was old state    101
 New state     97 was old state    102
 New state     98 was old state     97
 New state     99 was old state     98
 New state    100 was old state    107
 New state    101 was old state    105
 New state    102 was old state     96
 New state    103 was old state     99
 New state    104 was old state    100
 New state    105 was old state    108
 New state    106 was old state    104
 New state    107 was old state    103
 New state    108 was old state    109
 New state    109 was old state    110
 New state    110 was old state    111
 New state    111 was old state    113
 New state    112 was old state    114
 New state    113 was old state    120
 New state    114 was old state    115
 New state    115 was old state    116
 New state    116 was old state    112
 New state    120 was old state    121
 New state    121 was old state    122
 New state    122 was old state    123
 New state    123 was old state    106
 New state    124 was old state    129
 New state    125 was old state    130
 New state    127 was old state    125
 New state    128 was old state    124
 New state    129 was old state    131
 New state    130 was old state    127
 New state    131 was old state    128
 New state    132 was old state    134
 New state    134 was old state    132
 New state    135 was old state    137
 New state    137 was old state    135
 New state    138 was old state    139
 New state    139 was old state    140
 New state    140 was old state    138
 New state    143 was old state    144
 New state    144 was old state    145
 New state    145 was old state    143
 New state    147 was old state    148
 New state    148 was old state    149
 New state    149 was old state    147
 New state    150 was old state    151
 New state    151 was old state    150
 New state    152 was old state    153
 New state    153 was old state    152
 New state    154 was old state    157
 New state    157 was old state    154
 New state    158 was old state    160
 New state    159 was old state    161
 New state    160 was old state    159
 New state    161 was old state    162
 New state    162 was old state    158
 New state    166 was old state    167
 New state    167 was old state    166
 New state    170 was old state    173
 New state    171 was old state    174
 New state    172 was old state    171
 New state    173 was old state    172
 New state    174 was old state    170
 New state    175 was old state    178
 New state    176 was old state    177
 New state    177 was old state    175
 New state    178 was old state    176
 New state    182 was old state    184
 New state    184 was old state    182
 New state    187 was old state    189
 New state    188 was old state    190
 New state    189 was old state    188
 New state    190 was old state    187
 New state    193 was old state    196
 New state    194 was old state    195
 New state    195 was old state    197
 New state    196 was old state    194
 New state    197 was old state    193
 New state    204 was old state    205
 New state    205 was old state    204
 New state    212 was old state    213
 New state    213 was old state    214
 New state    214 was old state    212
 New state    220 was old state    221
 New state    221 was old state    220
 New state    234 was old state    235
 New state    235 was old state    234
 New state    241 was old state    242
 New state    242 was old state    241
 Excitation Energies [eV] at current iteration:
 Root      1 :     6.708457682842071
 Root      2 :     6.961005343202275
 Root      3 :     6.961010331445243
 Root      4 :     8.476685980643696
 Root      5 :     8.476685980643794
 Root      6 :     8.972315531078019
 Root      7 :     8.972315531078413
 Root      8 :    10.205078887207100
 Root      9 :    10.205078887207140
 Root     10 :    10.352610686528290
 Root     11 :    11.675105396575400
 Root     12 :    11.675105396576010
 Root     13 :    12.120580254180580
 Root     14 :    12.120586459231160
 Root     15 :    12.263004274055370
 Root     16 :    12.728074986555780
 Root     17 :    12.728074986555820
 Root     18 :    12.854409139849150
 Root     19 :    13.121759932869150
 Root     20 :    13.121759932869230
 Root     21 :    13.750017314977530
 Root     22 :    13.750017314977540
 Root     23 :    14.225521031512660
 Root     24 :    14.360011362314390
 Root     25 :    14.535730220642200
 Root     26 :    14.535730251728540
 Root     27 :    14.606514924602850
 Root     28 :    15.788576266993180
 Root     29 :    15.788576266993180
 Root     30 :    15.854103242182910
 Root     31 :    16.160041969380800
 Root     32 :    16.160041969381610
 Root     33 :    16.395601327173420
 Root     34 :    16.428753390281120
 Root     35 :    16.428753390281300
 Root     36 :    16.573808371296070
 Root     37 :    16.911279236970310
 Root     38 :    17.247333858560750
 Root     39 :    17.247333858560810
 Root     40 :    17.404040954115250
 Root     41 :    17.404040954115460
 Root     42 :    17.551512371003270
 Root     43 :    17.551512371003310
 Root     44 :    17.629907997532180
 Root     45 :    17.651847335566740
 Root     46 :    17.651847335566790
 Root     47 :    17.661471837337540
 Root     48 :    17.661482193145750
 Root     49 :    17.947553703294930
 Root     50 :    18.163110325450390
 Root     51 :    18.195328260208640
 Root     52 :    18.650522252423520
 Root     53 :    18.650522252425450
 Root     54 :    18.867308148302230
 Root     55 :    18.867308148302560
 Root     56 :    19.093463563263840
 Root     57 :    19.093466417178020
 Root     58 :    19.116733644684300
 Root     59 :    19.116744560813860
 Root     60 :    19.380206747032980
 Root     61 :    19.445135199789630
 Root     62 :    19.689295095452730
 Root     63 :    20.136466965196660
 Root     64 :    20.136466965196700
 Root     65 :    20.764067905497800
 Root     66 :    20.764067905497860
 Root     67 :    21.006118151801830
 Root     68 :    21.006120328109620
 Root     69 :    21.191434050415580
 Root     70 :    21.713281006269680
 Root     71 :    21.995714354508680
 Root     72 :    22.045053706470220
 Root     73 :    22.231414456948200
 Root     74 :    22.231414456948510
 Root     75 :    23.089392261247940
 Root     76 :    23.131783553636190
 Root     77 :    23.296116109251450
 Root     78 :    23.296116687670190
 Root     79 :    23.895175032859200
 Root     80 :    23.895175032859270
 Root     81 :    24.025437001973260
 Root     82 :    24.495651655887600
 Root     83 :    24.511872575053460
 Root     84 :    24.769907613846030
 Root     85 :    24.769907613848170
 Root     86 :    24.856197973341280
 Root     87 :    24.856197973345990
 Root     88 :    25.006427585335810
 Root     89 :    25.092850361199070
 Root     90 :    25.092850861886730
 Root     91 :    25.105044214092490
 Root     92 :    25.105044214092710
 Root     93 :    25.498073479894870
 Root     94 :    25.831501783795730
 Root     95 :    25.831501783795850
 Root     96 :    26.060398136117350
 Root     97 :    26.060398136117550
 Root     98 :    26.125375140914720
 Root     99 :    26.125378432447660
 Root    100 :    26.738307262591920
 Root    101 :    26.738348747383480
 Root    102 :    26.770158218678320
 Root    103 :    26.800284738264430
 Root    104 :    26.800284738269540
 Root    105 :    26.953267537800550
 Root    106 :    27.449795050902300
 Root    107 :    27.449795050902420
 Root    108 :    28.534021888366510
 Root    109 :    29.367354904016180
 Root    110 :    29.551128954827570
 Root    111 :    30.156160046223770
 Root    112 :    30.156161454425040
 Root    113 :    30.333188417957180
 Root    114 :    30.510812762720390
 Root    115 :    30.510812762720530
 Root    116 :    30.730469189887760
 Root    117 :    31.401251903063540
 Root    118 :    31.948843682369520
 Root    119 :    31.948843682374890
 Root    120 :    32.612339959154920
 Root    121 :    32.767469923632150
 Root    122 :    32.767469923632230
 Root    123 :    33.306705740556320
 Root    124 :    33.921512668079350
 Root    125 :    33.921540385141290
 Root    126 :    34.041363919634310
 Root    127 :    34.041363919634880
 Root    128 :    34.137256783898470
 Root    129 :    34.260386419395240
 Root    130 :    34.592608251615340
 Root    131 :    34.592608251616350
 Root    132 :    34.788193371586700
 Root    133 :    34.788193371587540
 Root    134 :    35.644944703109320
 Root    135 :    37.351886393425770
 Root    136 :    37.351886393425940
 Root    137 :    37.797212638702150
 Root    138 :    38.590332692959320
 Root    139 :    38.590332692960700
 Root    140 :    38.863967638884600
 Root    141 :    39.648333176861800
 Root    142 :    39.648333176861850
 Root    143 :    39.981621467115940
 Root    144 :    39.981621467118220
 Root    145 :    40.182595581093620
 Root    146 :    41.866711882364400
 Root    147 :    42.127749371498730
 Root    148 :    42.127749371499720
 Root    149 :    42.434829610742560
 Root    150 :    43.197614727003490
 Root    151 :    43.468389482263430
 Root    152 :    44.475765772975370
 Root    153 :    45.892611590872780
 Root    154 :    46.118251150683190
 Root    155 :    46.118257926050130
 Root    156 :    46.250984988023830
 Root    157 :    46.497629299716690
 Root    158 :    46.740711856999130
 Root    159 :    46.740711857003260
 Root    160 :    47.600642134123080
 Root    161 :    47.794232019967360
 Root    162 :    48.114935087854650
 Root    163 :    49.698728314855760
 Root    164 :    49.698728314855960
 Root    165 :    50.055296518810800
 Root    166 :    50.369804375961700
 Root    167 :    50.369810798585190
 Root    168 :    50.498131031284810
 Root    169 :    50.706237612038020
 Root    170 :    51.009683682862380
 Root    171 :    51.009683682862420
 Root    172 :    51.651906452509360
 Root    173 :    51.651906452509380
 Root    174 :    53.140599828342320
 Root    175 :    54.394007559989080
 Root    176 :    54.394007559989110
 Root    177 :    55.200683822149930
 Root    178 :    55.200683822149980
 Root    179 :    55.585642966250720
 Root    180 :    56.329134437683180
 Root    181 :    56.329134437683690
 Root    182 :    57.058923646184820
 Root    183 :    57.058926477010800
 Root    184 :    57.417266414175100
 Root    185 :    58.162493861510700
 Root    186 :    58.162493861510920
 Root    187 :    59.256539570664000
 Root    188 :    59.256565980029020
 Root    189 :    59.575855733194420
 Root    190 :    59.575855733194440
 Root    191 :    59.944198380298220
 Root    192 :    59.944198380298300
 Root    193 :    61.222053598343070
 Root    194 :    61.222054894922740
 Root    195 :    61.337174646049570
 Root    196 :    62.046242140282520
 Root    197 :    62.046242140282570
 Root    198 :    62.405156006124020
 Root    199 :    62.462788594467100
 Root    200 :    63.080636212631470
 Root    201 :    63.080636212631920
 Root    202 :    63.276482568757750
 Root    203 :    63.276482568757880
 Root    204 :    64.337896762968070
 Root    205 :    64.337897444288360
 Root    206 :    66.217591943590920
 Root    207 :    66.217595430486030
 Root    208 :    67.252433058927640
 Root    209 :    67.252433058927680
 Root    210 :    68.558265736260270
 Root    211 :    68.558286481446420
 Root    212 :    68.871199168427610
 Root    213 :    68.871199168427790
 Root    214 :    69.358899191313550
 Root    215 :    70.948126166473600
 Root    216 :    71.004770600235420
 Root    217 :    71.004770600235460
 Root    218 :    73.001145763779830
 Root    219 :    73.001155524408280
 Root    220 :    74.258877498891750
 Root    221 :    74.258877498891810
 Root    222 :    75.835541948083720
 Root    223 :    77.147587827093870
 Root    224 :    78.883414280768750
 Root    225 :    83.863332030368340
 Root    226 :    83.942682827417900
 Root    227 :    83.942693066662810
 Root    228 :    84.237062159110390
 Root    229 :    84.972445070098470
 Root    230 :    90.172887849582480
 Root    231 :    90.172887849582710
 Root    232 :    92.119019137896960
 Root    233 :    92.119019137897250
 Root    234 :    95.111229901731190
 Root    235 :    95.111229901731290
 Root    236 :    96.669894330550820
 Root    237 :    96.669894330550990
 Root    238 :   101.367976052530000
 Root    239 :   102.924778085761300
 Root    240 :   108.114422948608000
 Root    241 :   115.374437640183000
 Root    242 :   115.374437640183300
 Root    243 :   121.903058888140400
 Root    244 :   123.416833000824700
 Root    245 :   128.914607191173800
 Convergence achieved for final wavefunctions.
 ***********************************************************************
 Excited states from <AA,BB:AA,BB> singles matrix:
 ***********************************************************************
 
 1PDM for each excited state written to RWF  633
 Ground to excited state transition densities written to RWF  633
 Ground to excited state transition electric dipole moments (Au):
       state          X           Y           Z        Dip. S.      Osc.
         1        -0.0000      0.0000     -0.0000      0.0000      0.0000
         2         0.0000     -0.0000      0.0000      0.0000      0.0000
         3         0.0000     -0.0000      0.0000      0.0000      0.0000
         4         0.6592     -0.3893     -0.0000      0.5860      0.1217
         5         0.3893      0.6592      0.0000      0.5860      0.1217
         6        -0.0000      0.0000     -0.0000      0.0000      0.0000
         7        -0.0000     -0.0000      0.0000      0.0000      0.0000
         8         0.3287      0.1203     -0.0000      0.1225      0.0306
         9        -0.1203      0.3287     -0.0000      0.1225      0.0306
        10        -0.0000      0.0000     -1.8586      3.4542      0.8761
        11         0.0000      0.0000      0.0000      0.0000      0.0000
        12        -0.0000      0.0000      0.0000      0.0000      0.0000
        13         0.0000     -0.0000     -0.0000      0.0000      0.0000
        14         0.0000      0.0000      0.0000      0.0000      0.0000
        15        -0.0000     -0.0000     -0.0000      0.0000      0.0000
        16         0.0000     -0.0000      0.0000      0.0000      0.0000
        17         0.0000      0.0000     -0.0000      0.0000      0.0000
        18         0.0000      0.0000      0.0000      0.0000      0.0000
        19         0.0000      0.0000      0.0000      0.0000      0.0000
        20        -0.0000      0.0000     -0.0000      0.0000      0.0000
        21        -0.8779     -0.1373      0.0000      0.7896      0.2660
        22         0.1373     -0.8779     -0.0000      0.7896      0.2660
        23        -0.0000      0.0000      0.0000      0.0000      0.0000
        24         0.0000      0.0000     -1.1114      1.2353      0.4346
        25         0.0000     -0.0000      0.0000      0.0000      0.0000
        26        -0.0000     -0.0000     -0.0000      0.0000      0.0000
        27         0.0000     -0.0000      0.0000      0.0000      0.0000
        28        -0.8992     -0.2323      0.0000      0.8625      0.3336
        29         0.2323     -0.8992      0.0000      0.8625      0.3336
        30         0.0000      0.0000      0.0703      0.0049      0.0019
        31         0.1876     -1.0762      0.0000      1.1935      0.4725
        32        -1.0762     -0.1876      0.0000      1.1935      0.4725
        33        -0.0000      0.0000     -0.0000      0.0000      0.0000
        34        -0.0000      0.0000     -0.0000      0.0000      0.0000
        35        -0.0000      0.0000     -0.0000      0.0000      0.0000
        36        -0.0000     -0.0000     -0.3650      0.1332      0.0541
        37        -0.0000      0.0000     -0.0000      0.0000      0.0000
        38         0.0000      0.0000      0.0000      0.0000      0.0000
        39         0.0000     -0.0000      0.0000      0.0000      0.0000
        40         0.0609      0.1232     -0.0000      0.0189      0.0081
        41         0.1232     -0.0609      0.0000      0.0189      0.0081
        42         0.0000      0.0000     -0.0000      0.0000      0.0000
        43         0.0000     -0.0000      0.0000      0.0000      0.0000
        44        -0.0000      0.0000      1.2021      1.4450      0.6241
        45         0.3618     -0.6379      0.0000      0.5378      0.2326
        46        -0.6379     -0.3618     -0.0000      0.5378      0.2326
        47         0.0000      0.0000      0.0000      0.0000      0.0000
        48         0.0000      0.0000     -0.0000      0.0000      0.0000
        49         0.0000      0.0000     -0.0000      0.0000      0.0000
        50         0.0000      0.0000      0.0000      0.0000      0.0000
        51         0.0000      0.0000      0.3008      0.0905      0.0403
        52        -0.0000     -0.0000     -0.0000      0.0000      0.0000
        53        -0.0000      0.0000      0.0000      0.0000      0.0000
        54         0.0000      0.0000      0.0000      0.0000      0.0000
        55         0.0000      0.0000      0.0000      0.0000      0.0000
        56        -0.0000     -0.0000      0.0000      0.0000      0.0000
        57        -0.0000      0.0000      0.0000      0.0000      0.0000
        58        -0.0000     -0.0000      0.0000      0.0000      0.0000
        59        -0.0000      0.0000      0.0000      0.0000      0.0000
        60         0.0000     -0.0000      0.0000      0.0000      0.0000
        61        -0.0000      0.0000      0.1846      0.0341      0.0162
        62        -0.0000      0.0000     -0.0000      0.0000      0.0000
        63         0.0000     -0.0000      0.0000      0.0000      0.0000
        64        -0.0000     -0.0000      0.0000      0.0000      0.0000
        65         0.0000      0.0000     -0.0000      0.0000      0.0000
        66        -0.0000      0.0000     -0.0000      0.0000      0.0000
        67         0.0000      0.0000      0.0000      0.0000      0.0000
        68        -0.0000      0.0000      0.0000      0.0000      0.0000
        69         0.0000      0.0000     -0.0000      0.0000      0.0000
        70         0.0000      0.0000      0.4087      0.1671      0.0889
        71         0.0000      0.0000      0.0000      0.0000      0.0000
        72        -0.0000     -0.0000     -0.6286      0.3951      0.2134
        73        -0.1003     -0.0261      0.0000      0.0107      0.0058
        74         0.0261     -0.1003      0.0000      0.0107      0.0058
        75        -0.0000      0.0000     -0.0000      0.0000      0.0000
        76        -0.0000      0.0000     -0.0000      0.0000      0.0000
        77         0.0000     -0.0000     -0.0000      0.0000      0.0000
        78        -0.0000     -0.0000     -0.0000      0.0000      0.0000
        79        -0.2968     -0.3675      0.0000      0.2231      0.1306
        80        -0.3675      0.2968      0.0000      0.2231      0.1306
        81        -0.0000     -0.0000      0.1491      0.0222      0.0131
        82         0.0000      0.0000     -0.0000      0.0000      0.0000
        83        -0.0000     -0.0000     -0.1424      0.0203      0.0122
        84         0.0000     -0.0000      0.0000      0.0000      0.0000
        85         0.0000     -0.0000     -0.0000      0.0000      0.0000
        86         0.0000     -0.0000     -0.0000      0.0000      0.0000
        87         0.0000     -0.0000     -0.0000      0.0000      0.0000
        88         0.0000      0.0000     -0.5420      0.2938      0.1800
        89         0.0000     -0.0000     -0.0000      0.0000      0.0000
        90         0.0000      0.0000     -0.0000      0.0000      0.0000
        91        -0.0010     -0.0109     -0.0000      0.0001      0.0001
        92        -0.0109      0.0010     -0.0000      0.0001      0.0001
        93         0.0000     -0.0000      0.0878      0.0077      0.0048
        94         0.0000     -0.0000     -0.0000      0.0000      0.0000
        95         0.0000      0.0000     -0.0000      0.0000      0.0000
        96         0.1750     -0.0336     -0.0000      0.0317      0.0203
        97         0.0336      0.1750     -0.0000      0.0317      0.0203
        98        -0.0000     -0.0000     -0.0000      0.0000      0.0000
        99         0.0000      0.0000     -0.0000      0.0000      0.0000
       100        -0.0000     -0.0000     -0.0000      0.0000      0.0000
       101        -0.0000     -0.0000      0.0000      0.0000      0.0000
       102         0.0000      0.0000     -0.0000      0.0000      0.0000
       103        -0.0255     -0.0000      0.0000      0.0006      0.0004
       104         0.0000     -0.0255      0.0000      0.0006      0.0004
       105         0.0000      0.0000     -0.0000      0.0000      0.0000
       106         0.0000     -0.0000     -0.0000      0.0000      0.0000
       107         0.0000     -0.0000     -0.0000      0.0000      0.0000
       108         0.0000     -0.0000     -0.0000      0.0000      0.0000
       109        -0.0000     -0.0000      0.0926      0.0086      0.0062
       110        -0.0000      0.0000     -0.0000      0.0000      0.0000
       111        -0.0000     -0.0000      0.0000      0.0000      0.0000
       112        -0.0000     -0.0000      0.0000      0.0000      0.0000
       113        -0.0000      0.0000     -0.0000      0.0000      0.0000
       114        -0.0483      0.0966     -0.0000      0.0117      0.0087
       115         0.0966      0.0483     -0.0000      0.0117      0.0087
       116         0.0000      0.0000      0.4105      0.1685      0.1269
       117         0.0000      0.0000      0.2441      0.0596      0.0458
       118        -0.0000      0.0000      0.0000      0.0000      0.0000
       119        -0.0000      0.0000      0.0000      0.0000      0.0000
       120        -0.0000     -0.0000      0.0000      0.0000      0.0000
       121        -0.1727     -0.2822      0.0000      0.1095      0.0879
       122        -0.2822      0.1727      0.0000      0.1095      0.0879
       123        -0.0000      0.0000     -0.0000      0.0000      0.0000
       124        -0.0000      0.0000      0.0000      0.0000      0.0000
       125         0.0000     -0.0000     -0.0000      0.0000      0.0000
       126        -0.0067      0.3228     -0.0000      0.1042      0.0869
       127         0.3228      0.0067      0.0000      0.1042      0.0869
       128        -0.0000      0.0000     -0.2634      0.0694      0.0580
       129         0.0000     -0.0000      0.0000      0.0000      0.0000
       130         0.0000      0.0000     -0.0000      0.0000      0.0000
       131         0.0000     -0.0000      0.0000      0.0000      0.0000
       132         0.0000      0.0000      0.0000      0.0000      0.0000
       133         0.0000     -0.0000      0.0000      0.0000      0.0000
       134         0.0000      0.0000     -0.2519      0.0634      0.0554
       135        -0.0090      0.0666      0.0000      0.0045      0.0041
       136         0.0666      0.0090      0.0000      0.0045      0.0041
       137         0.0000     -0.0000     -0.1036      0.0107      0.0099
       138        -0.0000     -0.0000      0.0000      0.0000      0.0000
       139        -0.0000     -0.0000      0.0000      0.0000      0.0000
       140         0.0000     -0.0000     -0.0000      0.0000      0.0000
       141        -0.1874     -0.2064      0.0000      0.0777      0.0755
       142        -0.2064      0.1874      0.0000      0.0777      0.0755
       143         0.0000     -0.0000      0.0000      0.0000      0.0000
       144        -0.0000     -0.0000      0.0000      0.0000      0.0000
       145        -0.0000     -0.0000     -0.0000      0.0000      0.0000
       146        -0.0000      0.0000     -0.0013      0.0000      0.0000
       147        -0.2732      0.0033     -0.0000      0.0746      0.0770
       148        -0.0033     -0.2732      0.0000      0.0746      0.0770
       149         0.0000      0.0000      0.1114      0.0124      0.0129
       150        -0.0000     -0.0000     -0.0000      0.0000      0.0000
       151         0.0000     -0.0000      0.0000      0.0000      0.0000
       152         0.0000     -0.0000      0.1777      0.0316      0.0344
       153         0.0000     -0.0000      0.1009      0.0102      0.0114
       154        -0.0000      0.0000     -0.0000      0.0000      0.0000
       155         0.0000      0.0000     -0.0000      0.0000      0.0000
       156         0.0000     -0.0000      0.0000      0.0000      0.0000
       157        -0.0000     -0.0000     -0.0000      0.0000      0.0000
       158        -0.0000     -0.0000      0.0000      0.0000      0.0000
       159         0.0000     -0.0000      0.0000      0.0000      0.0000
       160         0.0000     -0.0000     -0.0000      0.0000      0.0000
       161         0.0000     -0.0000     -0.3097      0.0959      0.1123
       162         0.0000      0.0000      0.0000      0.0000      0.0000
       163         0.0000      0.0000     -0.0000      0.0000      0.0000
       164        -0.0000      0.0000     -0.0000      0.0000      0.0000
       165        -0.0000      0.0000     -0.0000      0.0000      0.0000
       166         0.0000      0.0000      0.0000      0.0000      0.0000
       167         0.0000      0.0000      0.0000      0.0000      0.0000
       168         0.0000      0.0000     -0.0000      0.0000      0.0000
       169         0.0000      0.0000      0.2350      0.0552      0.0686
       170        -0.0000     -0.0000     -0.0000      0.0000      0.0000
       171        -0.0000      0.0000      0.0000      0.0000      0.0000
       172         0.0346      0.0118     -0.0000      0.0013      0.0017
       173        -0.0118      0.0346      0.0000      0.0013      0.0017
       174         0.0000      0.0000      0.2338      0.0546      0.0711
       175        -0.0000     -0.0000     -0.0000      0.0000      0.0000
       176        -0.0000     -0.0000     -0.0000      0.0000      0.0000
       177         0.7197      0.4755      0.0000      0.7441      1.0063
       178        -0.4755      0.7197     -0.0000      0.7441      1.0063
       179        -0.0000      0.0000     -0.1145      0.0131      0.0178
       180         0.0000      0.0000      0.0000      0.0000      0.0000
       181        -0.0000      0.0000     -0.0000      0.0000      0.0000
       182        -0.0000     -0.0000     -0.0000      0.0000      0.0000
       183        -0.0000     -0.0000     -0.0000      0.0000      0.0000
       184         0.0000      0.0000     -0.0000      0.0000      0.0000
       185         0.1890      0.0250     -0.0000      0.0363      0.0518
       186        -0.0250      0.1890     -0.0000      0.0363      0.0518
       187        -0.0000      0.0000     -0.0000      0.0000      0.0000
       188        -0.0000     -0.0000     -0.0000      0.0000      0.0000
       189        -0.2055     -0.2161      0.0000      0.0889      0.1298
       190        -0.2161      0.2055     -0.0000      0.0889      0.1298
       191        -0.0000     -0.0000     -0.0000      0.0000      0.0000
       192        -0.0000      0.0000     -0.0000      0.0000      0.0000
       193         0.0000      0.0000      0.0000      0.0000      0.0000
       194         0.0000     -0.0000     -0.0000      0.0000      0.0000
       195        -0.0000     -0.0000      0.0000      0.0000      0.0000
       196        -0.0000      0.0000      0.0000      0.0000      0.0000
       197         0.0000      0.0000      0.0000      0.0000      0.0000
       198         0.0000      0.0000     -0.0000      0.0000      0.0000
       199         0.0000     -0.0000      0.0933      0.0087      0.0133
       200         0.0000     -0.0000     -0.0000      0.0000      0.0000
       201         0.0000     -0.0000      0.0000      0.0000      0.0000
       202        -0.1261      0.0678      0.0000      0.0205      0.0318
       203        -0.0678     -0.1261      0.0000      0.0205      0.0318
       204         0.0000     -0.0000      0.0000      0.0000      0.0000
       205         0.0000     -0.0000     -0.0000      0.0000      0.0000
       206        -0.0000     -0.0000     -0.0000      0.0000      0.0000
       207         0.0000     -0.0000      0.0000      0.0000      0.0000
       208         0.1502     -0.0882     -0.0000      0.0303      0.0500
       209         0.0882      0.1502     -0.0000      0.0303      0.0500
       210         0.0000     -0.0000      0.0000      0.0000      0.0000
       211         0.0000     -0.0000      0.0000      0.0000      0.0000
       212        -0.0000     -0.0000      0.0000      0.0000      0.0000
       213         0.0000      0.0000      0.0000      0.0000      0.0000
       214         0.0000     -0.0000      0.0000      0.0000      0.0000
       215        -0.0000      0.0000      0.0297      0.0009      0.0015
       216         0.0000     -0.0000     -0.0000      0.0000      0.0000
       217         0.0000      0.0000      0.0000      0.0000      0.0000
       218         0.0000     -0.0000     -0.0000      0.0000      0.0000
       219         0.0000     -0.0000     -0.0000      0.0000      0.0000
       220         0.0716     -0.1879     -0.0000      0.0405      0.0736
       221        -0.1879     -0.0716     -0.0000      0.0405      0.0736
       222         0.0000     -0.0000      0.0000      0.0000      0.0000
       223         0.0000     -0.0000      0.0472      0.0022      0.0042
       224        -0.0000     -0.0000      0.0000      0.0000      0.0000
       225         0.0000      0.0000     -0.1347      0.0181      0.0373
       226        -0.0000      0.0000     -0.0000      0.0000      0.0000
       227         0.0000     -0.0000     -0.0000      0.0000      0.0000
       228         0.0000     -0.0000     -0.0000      0.0000      0.0000
       229        -0.0000      0.0000     -0.1648      0.0271      0.0565
       230        -0.0000      0.0000      0.0000      0.0000      0.0000
       231         0.0000      0.0000     -0.0000      0.0000      0.0000
       232        -0.0845     -0.0068      0.0000      0.0072      0.0162
       233         0.0068     -0.0845     -0.0000      0.0072      0.0162
       234         0.0306     -0.1098     -0.0000      0.0130      0.0303
       235        -0.1098     -0.0306      0.0000      0.0130      0.0303
       236        -0.0000      0.0000      0.0000      0.0000      0.0000
       237         0.0000     -0.0000      0.0000      0.0000      0.0000
       238        -0.0000      0.0000      0.0000      0.0000      0.0000
       239         0.0000     -0.0000      0.0071      0.0001      0.0001
       240        -0.0000     -0.0000      0.0000      0.0000      0.0000
       241         0.0000     -0.0000     -0.0000      0.0000      0.0000
       242         0.0000      0.0000      0.0000      0.0000      0.0000
       243        -0.0000     -0.0000     -0.0526      0.0028      0.0083
       244         0.0000      0.0000     -0.0000      0.0000      0.0000
       245         0.0000      0.0000     -0.0506      0.0026      0.0081
 Ground to excited state transition velocity dipole moments (Au):
       state          X           Y           Z        Dip. S.      Osc.
         1         0.0000     -0.0000      0.0000      0.0000      0.0000
         2        -0.0000      0.0000     -0.0000      0.0000      0.0000
         3        -0.0000      0.0000     -0.0000      0.0000      0.0000
         4        -0.2417      0.1428      0.0000      0.0788      0.1686
         5        -0.1428     -0.2417     -0.0000      0.0788      0.1686
         6         0.0000     -0.0000      0.0000      0.0000      0.0000
         7         0.0000      0.0000      0.0000      0.0000      0.0000
         8        -0.1246     -0.0456      0.0000      0.0176      0.0313
         9         0.0456     -0.1246     -0.0000      0.0176      0.0313
        10         0.0000      0.0000      0.7035      0.4950      0.8673
        11        -0.0000     -0.0000     -0.0000      0.0000      0.0000
        12        -0.0000     -0.0000      0.0000      0.0000      0.0000
        13        -0.0000     -0.0000     -0.0000      0.0000      0.0000
        14        -0.0000     -0.0000     -0.0000      0.0000      0.0000
        15        -0.0000      0.0000      0.0000      0.0000      0.0000
        16         0.0000     -0.0000     -0.0000      0.0000      0.0000
        17        -0.0000     -0.0000      0.0000      0.0000      0.0000
        18        -0.0000     -0.0000     -0.0000      0.0000      0.0000
        19        -0.0000     -0.0000     -0.0000      0.0000      0.0000
        20         0.0000     -0.0000      0.0000      0.0000      0.0000
        21         0.4727      0.0739     -0.0000      0.2289      0.3020
        22        -0.0739      0.4727      0.0000      0.2289      0.3020
        23         0.0000     -0.0000     -0.0000      0.0000      0.0000
        24         0.0000     -0.0000      0.6130      0.3757      0.4747
        25        -0.0000      0.0000     -0.0000      0.0000      0.0000
        26        -0.0000      0.0000      0.0000      0.0000      0.0000
        27        -0.0000      0.0000     -0.0000      0.0000      0.0000
        28         0.5640      0.1457     -0.0000      0.3393      0.3899
        29        -0.1457      0.5640     -0.0000      0.3393      0.3899
        30        -0.0000      0.0000     -0.0367      0.0013      0.0015
        31        -0.1056      0.6055     -0.0000      0.3778      0.4241
        32         0.6055      0.1056     -0.0000      0.3778      0.4241
        33         0.0000     -0.0000     -0.0000      0.0000      0.0000
        34         0.0000     -0.0000      0.0000      0.0000      0.0000
        35         0.0000     -0.0000      0.0000      0.0000      0.0000
        36         0.0000      0.0000      0.2228      0.0496      0.0543
        37         0.0000     -0.0000      0.0000      0.0000      0.0000
        38         0.0000     -0.0000     -0.0000      0.0000      0.0000
        39        -0.0000      0.0000     -0.0000      0.0000      0.0000
        40        -0.0382     -0.0774      0.0000      0.0074      0.0078
        41        -0.0774      0.0382     -0.0000      0.0074      0.0078
        42        -0.0000     -0.0000      0.0000      0.0000      0.0000
        43        -0.0000      0.0000     -0.0000      0.0000      0.0000
        44         0.0000     -0.0000     -0.7777      0.6049      0.6224
        45        -0.2320      0.4090     -0.0000      0.2211      0.2273
        46         0.4090      0.2320      0.0000      0.2211      0.2273
        47        -0.0000     -0.0000     -0.0000      0.0000      0.0000
        48        -0.0000     -0.0000      0.0000      0.0000      0.0000
        49        -0.0000     -0.0000      0.0000      0.0000      0.0000
        50        -0.0000     -0.0000     -0.0000      0.0000      0.0000
        51        -0.0000      0.0000     -0.2159      0.0466      0.0465
        52         0.0000      0.0000      0.0000      0.0000      0.0000
        53         0.0000     -0.0000      0.0000      0.0000      0.0000
        54        -0.0000     -0.0000     -0.0000      0.0000      0.0000
        55        -0.0000     -0.0000     -0.0000      0.0000      0.0000
        56         0.0000      0.0000     -0.0000      0.0000      0.0000
        57         0.0000     -0.0000     -0.0000      0.0000      0.0000
        58         0.0000      0.0000     -0.0000      0.0000      0.0000
        59         0.0000     -0.0000     -0.0000      0.0000      0.0000
        60        -0.0000      0.0000     -0.0000      0.0000      0.0000
        61         0.0000     -0.0000     -0.0950      0.0090      0.0084
        62         0.0000     -0.0000     -0.0000      0.0000      0.0000
        63        -0.0000      0.0000     -0.0000      0.0000      0.0000
        64        -0.0000      0.0000     -0.0000      0.0000      0.0000
        65        -0.0000     -0.0000      0.0000      0.0000      0.0000
        66         0.0000     -0.0000      0.0000      0.0000      0.0000
        67         0.0000     -0.0000     -0.0000      0.0000      0.0000
        68         0.0000     -0.0000     -0.0000      0.0000      0.0000
        69        -0.0000     -0.0000      0.0000      0.0000      0.0000
        70        -0.0000     -0.0000     -0.3061      0.0937      0.0783
        71        -0.0000     -0.0000     -0.0000      0.0000      0.0000
        72         0.0000      0.0000      0.4747      0.2253      0.1854
        73         0.0819      0.0213     -0.0000      0.0072      0.0058
        74        -0.0213      0.0819     -0.0000      0.0072      0.0058
        75         0.0000     -0.0000     -0.0000      0.0000      0.0000
        76         0.0000     -0.0000      0.0000      0.0000      0.0000
        77        -0.0000      0.0000      0.0000      0.0000      0.0000
        78         0.0000      0.0000      0.0000      0.0000      0.0000
        79         0.2829      0.3503     -0.0000      0.2027      0.1539
        80         0.3503     -0.2829     -0.0000      0.2027      0.1539
        81         0.0000      0.0000     -0.1099      0.0121      0.0091
        82        -0.0000     -0.0000      0.0000      0.0000      0.0000
        83         0.0000      0.0000      0.1408      0.0198      0.0147
        84         0.0000      0.0000     -0.0000      0.0000      0.0000
        85         0.0000     -0.0000      0.0000      0.0000      0.0000
        86        -0.0000      0.0000     -0.0000      0.0000      0.0000
        87        -0.0000      0.0000     -0.0000      0.0000      0.0000
        88        -0.0000     -0.0000      0.4594      0.2111      0.1531
        89         0.0000     -0.0000      0.0000      0.0000      0.0000
        90         0.0000      0.0000      0.0000      0.0000      0.0000
        91        -0.0004     -0.0037      0.0000      0.0000      0.0000
        92        -0.0037      0.0004      0.0000      0.0000      0.0000
        93        -0.0000      0.0000     -0.0886      0.0079      0.0056
        94        -0.0000      0.0000      0.0000      0.0000      0.0000
        95         0.0000     -0.0000     -0.0000      0.0000      0.0000
        96        -0.1641      0.0315     -0.0000      0.0279      0.0194
        97        -0.0315     -0.1641      0.0000      0.0279      0.0194
        98         0.0000      0.0000      0.0000      0.0000      0.0000
        99        -0.0000     -0.0000      0.0000      0.0000      0.0000
       100        -0.0000      0.0000     -0.0000      0.0000      0.0000
       101        -0.0000     -0.0000     -0.0000      0.0000      0.0000
       102        -0.0000      0.0000     -0.0000      0.0000      0.0000
       103        -0.0022     -0.0000      0.0000      0.0000      0.0000
       104         0.0000     -0.0022     -0.0000      0.0000      0.0000
       105         0.0000     -0.0000      0.0000      0.0000      0.0000
       106        -0.0000      0.0000     -0.0000      0.0000      0.0000
       107        -0.0000      0.0000      0.0000      0.0000      0.0000
       108        -0.0000      0.0000      0.0000      0.0000      0.0000
       109         0.0000      0.0000     -0.0853      0.0073      0.0045
       110         0.0000      0.0000      0.0000      0.0000      0.0000
       111         0.0000      0.0000     -0.0000      0.0000      0.0000
       112         0.0000     -0.0000     -0.0000      0.0000      0.0000
       113         0.0000     -0.0000      0.0000      0.0000      0.0000
       114         0.0513     -0.1027     -0.0000      0.0132      0.0078
       115        -0.1027     -0.0513      0.0000      0.0132      0.0078
       116        -0.0000     -0.0000     -0.5219      0.2724      0.1608
       117        -0.0000     -0.0000     -0.2505      0.0627      0.0362
       118         0.0000     -0.0000     -0.0000      0.0000      0.0000
       119         0.0000     -0.0000     -0.0000      0.0000      0.0000
       120         0.0000      0.0000      0.0000      0.0000      0.0000
       121         0.1999      0.3266     -0.0000      0.1466      0.0812
       122         0.3266     -0.1999     -0.0000      0.1466      0.0812
       123         0.0000     -0.0000     -0.0000      0.0000      0.0000
       124         0.0000     -0.0000     -0.0000      0.0000      0.0000
       125        -0.0000      0.0000      0.0000      0.0000      0.0000
       126         0.0098     -0.4747      0.0000      0.2254      0.1201
       127        -0.4747     -0.0098     -0.0000      0.2254      0.1201
       128        -0.0000      0.0000      0.3393      0.1151      0.0612
       129        -0.0000      0.0000     -0.0000      0.0000      0.0000
       130        -0.0000     -0.0000      0.0000      0.0000      0.0000
       131        -0.0000      0.0000     -0.0000      0.0000      0.0000
       132        -0.0000     -0.0000     -0.0000      0.0000      0.0000
       133        -0.0000      0.0000     -0.0000      0.0000      0.0000
       134        -0.0000     -0.0000      0.3153      0.0994      0.0506
       135         0.0149     -0.1102     -0.0000      0.0124      0.0060
       136        -0.1102     -0.0149     -0.0000      0.0124      0.0060
       137        -0.0000      0.0000      0.1921      0.0369      0.0177
       138         0.0000      0.0000     -0.0000      0.0000      0.0000
       139         0.0000      0.0000     -0.0000      0.0000      0.0000
       140        -0.0000      0.0000      0.0000      0.0000      0.0000
       141         0.3083      0.3395     -0.0000      0.2103      0.0962
       142         0.3395     -0.3083     -0.0000      0.2103      0.0962
       143        -0.0000      0.0000     -0.0000      0.0000      0.0000
       144         0.0000      0.0000     -0.0000      0.0000      0.0000
       145         0.0000      0.0000      0.0000      0.0000      0.0000
       146         0.0000     -0.0000      0.0468      0.0022      0.0009
       147         0.4462     -0.0055     -0.0000      0.1991      0.0857
       148         0.0055      0.4462     -0.0000      0.1991      0.0857
       149        -0.0000     -0.0000     -0.2185      0.0478      0.0204
       150         0.0000      0.0000      0.0000      0.0000      0.0000
       151        -0.0000      0.0000     -0.0000      0.0000      0.0000
       152        -0.0000      0.0000     -0.3968      0.1575      0.0642
       153        -0.0000     -0.0000     -0.1367      0.0187      0.0074
       154         0.0000     -0.0000      0.0000      0.0000      0.0000
       155         0.0000     -0.0000      0.0000      0.0000      0.0000
       156         0.0000      0.0000      0.0000      0.0000      0.0000
       157         0.0000      0.0000     -0.0000      0.0000      0.0000
       158         0.0000      0.0000     -0.0000      0.0000      0.0000
       159        -0.0000      0.0000     -0.0000      0.0000      0.0000
       160        -0.0000     -0.0000     -0.0000      0.0000      0.0000
       161        -0.0000      0.0000      0.5219      0.2723      0.1034
       162        -0.0000      0.0000     -0.0000      0.0000      0.0000
       163        -0.0000      0.0000      0.0000      0.0000      0.0000
       164         0.0000     -0.0000     -0.0000      0.0000      0.0000
       165         0.0000     -0.0000      0.0000      0.0000      0.0000
       166        -0.0000     -0.0000      0.0000      0.0000      0.0000
       167        -0.0000     -0.0000     -0.0000      0.0000      0.0000
       168        -0.0000     -0.0000      0.0000      0.0000      0.0000
       169        -0.0000      0.0000     -0.3930      0.1545      0.0553
       170         0.0000      0.0000      0.0000      0.0000      0.0000
       171         0.0000     -0.0000     -0.0000      0.0000      0.0000
       172        -0.0972     -0.0332      0.0000      0.0105      0.0037
       173         0.0332     -0.0972     -0.0000      0.0105      0.0037
       174        -0.0000     -0.0000     -0.4973      0.2474      0.0844
       175         0.0000      0.0000      0.0000      0.0000      0.0000
       176         0.0000      0.0000      0.0000      0.0000      0.0000
       177        -1.1734     -0.7753      0.0000      1.9780      0.6500
       178         0.7753     -1.1734     -0.0000      1.9780      0.6500
       179         0.0000     -0.0000      0.2364      0.0559      0.0182
       180         0.0000     -0.0000     -0.0000      0.0000      0.0000
       181         0.0000     -0.0000     -0.0000      0.0000      0.0000
       182         0.0000      0.0000      0.0000      0.0000      0.0000
       183         0.0000      0.0000      0.0000      0.0000      0.0000
       184        -0.0000     -0.0000     -0.0000      0.0000      0.0000
       185        -0.3248     -0.0430     -0.0000      0.1073      0.0335
       186         0.0430     -0.3248      0.0000      0.1073      0.0335
       187         0.0000     -0.0000      0.0000      0.0000      0.0000
       188         0.0000      0.0000     -0.0000      0.0000      0.0000
       189         0.3940      0.4144      0.0000      0.3270      0.0996
       190         0.4144     -0.3940      0.0000      0.3270      0.0996
       191         0.0000      0.0000      0.0000      0.0000      0.0000
       192         0.0000     -0.0000      0.0000      0.0000      0.0000
       193        -0.0000     -0.0000     -0.0000      0.0000      0.0000
       194        -0.0000      0.0000     -0.0000      0.0000      0.0000
       195         0.0000      0.0000     -0.0000      0.0000      0.0000
       196         0.0000     -0.0000      0.0000      0.0000      0.0000
       197        -0.0000     -0.0000      0.0000      0.0000      0.0000
       198        -0.0000     -0.0000      0.0000      0.0000      0.0000
       199        -0.0000      0.0000     -0.1675      0.0280      0.0081
       200        -0.0000      0.0000      0.0000      0.0000      0.0000
       201        -0.0000      0.0000     -0.0000      0.0000      0.0000
       202         0.2276     -0.1223      0.0000      0.0668      0.0191
       203         0.1223      0.2276      0.0000      0.0668      0.0191
       204        -0.0000      0.0000     -0.0000      0.0000      0.0000
       205        -0.0000      0.0000      0.0000      0.0000      0.0000
       206         0.0000      0.0000      0.0000      0.0000      0.0000
       207        -0.0000      0.0000     -0.0000      0.0000      0.0000
       208        -0.3215      0.1887     -0.0000      0.1390      0.0375
       209        -0.1887     -0.3215     -0.0000      0.1390      0.0375
       210        -0.0000      0.0000     -0.0000      0.0000      0.0000
       211        -0.0000      0.0000     -0.0000      0.0000      0.0000
       212         0.0000      0.0000     -0.0000      0.0000      0.0000
       213        -0.0000      0.0000      0.0000      0.0000      0.0000
       214        -0.0000      0.0000     -0.0000      0.0000      0.0000
       215         0.0000     -0.0000     -0.0951      0.0090      0.0023
       216        -0.0000      0.0000      0.0000      0.0000      0.0000
       217        -0.0000      0.0000     -0.0000      0.0000      0.0000
       218        -0.0000      0.0000      0.0000      0.0000      0.0000
       219        -0.0000      0.0000      0.0000      0.0000      0.0000
       220        -0.1588      0.4167      0.0000      0.1989      0.0486
       221         0.4167      0.1588     -0.0000      0.1989      0.0486
       222        -0.0000      0.0000     -0.0000      0.0000      0.0000
       223        -0.0000      0.0000     -0.0959      0.0092      0.0022
       224         0.0000      0.0000     -0.0000      0.0000      0.0000
       225        -0.0000      0.0000      0.3940      0.1552      0.0336
       226         0.0000     -0.0000      0.0000      0.0000      0.0000
       227        -0.0000      0.0000      0.0000      0.0000      0.0000
       228        -0.0000      0.0000      0.0000      0.0000      0.0000
       229         0.0000     -0.0000      0.5523      0.3050      0.0651
       230         0.0000     -0.0000     -0.0000      0.0000      0.0000
       231        -0.0000     -0.0000      0.0000      0.0000      0.0000
       232         0.2425      0.0195     -0.0000      0.0592      0.0117
       233        -0.0195      0.2425      0.0000      0.0592      0.0117
       234        -0.0870      0.3123     -0.0000      0.1051      0.0200
       235         0.3123      0.0870      0.0000      0.1051      0.0200
       236         0.0000     -0.0000     -0.0000      0.0000      0.0000
       237        -0.0000      0.0000     -0.0000      0.0000      0.0000
       238         0.0000     -0.0000     -0.0000      0.0000      0.0000
       239        -0.0000      0.0000     -0.0473      0.0022      0.0004
       240        -0.0000      0.0000     -0.0000      0.0000      0.0000
       241        -0.0000      0.0000     -0.0000      0.0000      0.0000
       242         0.0000      0.0000     -0.0000      0.0000      0.0000
       243         0.0000      0.0000      0.2049      0.0420      0.0062
       244         0.0000     -0.0000     -0.0000      0.0000      0.0000
       245        -0.0000      0.0000      0.2066      0.0427      0.0060
 Ground to excited state transition magnetic dipole moments (Au):
       state          X           Y           Z
         1        -0.0000     -0.0000     -0.0000
         2         0.0000     -0.0000     -0.0000
         3         0.0000      0.0000     -0.0000
         4        -0.0000      0.0000      0.0000
         5         0.0000      0.0000     -0.0000
         6        -0.1509      0.0668     -0.0000
         7         0.0668      0.1509      0.0000
         8         0.0000      0.0000      0.0000
         9         0.0000      0.0000      0.0000
        10         0.0000      0.0000      0.0000
        11         0.1978      0.0775      0.0000
        12         0.0775     -0.1978      0.0000
        13         0.0000     -0.0000     -0.0000
        14         0.0000      0.0000     -0.0000
        15        -0.0000     -0.0000      0.0000
        16         0.5858      1.8546      0.0000
        17        -1.8546      0.5858     -0.0000
        18         0.0000     -0.0000     -0.0000
        19         0.0000     -0.0000      0.0000
        20        -0.0000     -0.0000      0.0000
        21        -0.0000      0.0000      0.0000
        22         0.0000     -0.0000      0.0000
        23         0.0000     -0.0000      0.0000
        24        -0.0000      0.0000     -0.0000
        25        -0.0000      0.0000      0.0000
        26         0.0000      0.0000      0.0000
        27         0.0000      0.0000      0.0000
        28         0.0000      0.0000      0.0000
        29        -0.0000      0.0000      0.0000
        30         0.0000      0.0000      0.0000
        31         0.0000     -0.0000     -0.0000
        32         0.0000     -0.0000     -0.0000
        33        -0.0000      0.0000      0.0000
        34        -0.2213      0.0598      0.0000
        35         0.0598      0.2213     -0.0000
        36         0.0000     -0.0000      0.0000
        37        -0.0000      0.0000      0.0000
        38        -0.0000     -0.0000     -0.0000
        39        -0.0000      0.0000     -0.0000
        40        -0.0000      0.0000     -0.0000
        41        -0.0000      0.0000      0.0000
        42         0.4882      0.1617      0.0000
        43        -0.1617      0.4882     -0.0000
        44         0.0000     -0.0000      0.0000
        45         0.0000     -0.0000      0.0000
        46         0.0000     -0.0000      0.0000
        47         0.0000     -0.0000      0.0000
        48         0.0000      0.0000      0.0000
        49        -0.0000      0.0000     -0.0000
        50        -0.0000     -0.0000      0.0000
        51        -0.0000      0.0000     -0.0000
        52         0.2743     -0.0015      0.0000
        53        -0.0015     -0.2743     -0.0000
        54        -0.3698      0.1445      0.0000
        55         0.1445      0.3698     -0.0000
        56        -0.0000      0.0000      0.0000
        57         0.0000      0.0000      0.0000
        58        -0.0000     -0.0000      0.0000
        59         0.0000     -0.0000      0.0000
        60        -0.0000     -0.0000     -0.0000
        61         0.0000     -0.0000      0.0000
[...]
     12   0.000000D+00  0.000000D+00  0.000000D+00  0.000000D+00  0.000000D+00
     13   0.000000D+00  0.000000D+00  0.000000D+00  0.000000D+00  0.000000D+00
     14   0.000000D+00  0.000000D+00  0.000000D+00  0.000000D+00  0.000000D+00
     15   0.000000D+00  0.000000D+00  0.000000D+00  0.000000D+00 -0.101096D+01
     16   0.000000D+00  0.000000D+00  0.000000D+00  0.000000D+00 -0.134589D+01
               176           177           178           179           180 
      1  -0.752430D+02 -0.752134D+02 -0.752134D+02 -0.751992D+02 -0.751719D+02
      2   0.000000D+00  0.719700D+00 -0.475518D+00  0.000000D+00  0.000000D+00
      3   0.000000D+00  0.475518D+00  0.719700D+00  0.000000D+00  0.000000D+00
      4   0.000000D+00  0.000000D+00  0.000000D+00 -0.114469D+00  0.000000D+00
      5   0.000000D+00 -0.117341D+01  0.775290D+00  0.000000D+00  0.000000D+00
      6   0.000000D+00 -0.775290D+00 -0.117341D+01  0.000000D+00  0.000000D+00
      7   0.000000D+00  0.000000D+00  0.000000D+00  0.236431D+00  0.000000D+00
      8  -0.762053D+00  0.000000D+00  0.000000D+00  0.000000D+00  0.849371D-01
      9  -0.101452D+01  0.000000D+00  0.000000D+00  0.000000D+00 -0.101530D+01
     10   0.000000D+00  0.000000D+00  0.000000D+00  0.000000D+00  0.000000D+00
     11   0.000000D+00  0.000000D+00  0.000000D+00  0.000000D+00  0.000000D+00
     12   0.000000D+00  0.000000D+00  0.000000D+00  0.000000D+00  0.000000D+00
     13   0.000000D+00  0.000000D+00  0.000000D+00  0.000000D+00  0.000000D+00
     14   0.000000D+00  0.000000D+00  0.000000D+00  0.000000D+00  0.000000D+00
     15  -0.134589D+01  0.000000D+00  0.000000D+00  0.000000D+00 -0.167912D+01
     16   0.101096D+01  0.000000D+00  0.000000D+00  0.000000D+00 -0.140471D+00
               181           182           183           184           185 
      1  -0.751719D+02 -0.751451D+02 -0.751451D+02 -0.751319D+02 -0.751045D+02
      2   0.000000D+00  0.000000D+00  0.000000D+00  0.000000D+00  0.188984D+00
      3   0.000000D+00  0.000000D+00  0.000000D+00  0.000000D+00  0.249984D-01
      4   0.000000D+00  0.000000D+00  0.000000D+00  0.000000D+00  0.000000D+00
      5   0.000000D+00  0.000000D+00  0.000000D+00  0.000000D+00 -0.324793D+00
      6   0.000000D+00  0.000000D+00  0.000000D+00  0.000000D+00 -0.429629D-01
      7   0.000000D+00  0.000000D+00  0.000000D+00  0.000000D+00  0.000000D+00
      8   0.101530D+01  0.000000D+00  0.000000D+00  0.000000D+00  0.000000D+00
      9   0.849371D-01  0.000000D+00  0.000000D+00  0.000000D+00  0.000000D+00
     10   0.000000D+00  0.000000D+00  0.000000D+00  0.000000D+00  0.000000D+00
     11   0.000000D+00 -0.104139D+00  0.000000D+00 -0.242209D+00  0.000000D+00
     12   0.000000D+00  0.104139D+00  0.000000D+00 -0.242209D+00  0.000000D+00
     13   0.000000D+00  0.000000D+00  0.000000D+00  0.452795D+00  0.000000D+00
     14   0.000000D+00  0.000000D+00 -0.104135D+00  0.000000D+00  0.000000D+00
     15   0.140471D+00  0.000000D+00  0.000000D+00  0.000000D+00  0.000000D+00
     16  -0.167912D+01  0.000000D+00  0.000000D+00  0.000000D+00  0.000000D+00
               186           187           188           189           190 
      1  -0.751045D+02 -0.750643D+02 -0.750643D+02 -0.750526D+02 -0.750526D+02
      2  -0.249984D-01  0.000000D+00  0.000000D+00 -0.205505D+00 -0.216099D+00
      3   0.188984D+00  0.000000D+00  0.000000D+00 -0.216099D+00  0.205505D+00
      4   0.000000D+00  0.000000D+00  0.000000D+00  0.000000D+00  0.000000D+00
      5   0.429629D-01  0.000000D+00  0.000000D+00  0.394045D+00  0.414359D+00
      6  -0.324793D+00  0.000000D+00  0.000000D+00  0.414359D+00 -0.394045D+00
      7   0.000000D+00  0.000000D+00  0.000000D+00  0.000000D+00  0.000000D+00
      8   0.000000D+00  0.000000D+00  0.000000D+00  0.000000D+00  0.000000D+00
      9   0.000000D+00  0.000000D+00  0.000000D+00  0.000000D+00  0.000000D+00
     10   0.000000D+00  0.000000D+00  0.000000D+00  0.000000D+00  0.000000D+00
     11   0.000000D+00  0.000000D+00  0.000000D+00  0.000000D+00  0.000000D+00
     12   0.000000D+00  0.000000D+00  0.000000D+00  0.000000D+00  0.000000D+00
     13   0.000000D+00  0.000000D+00  0.000000D+00  0.000000D+00  0.000000D+00
     14   0.000000D+00  0.000000D+00  0.000000D+00  0.000000D+00  0.000000D+00
     15   0.000000D+00  0.000000D+00  0.000000D+00  0.000000D+00  0.000000D+00
     16   0.000000D+00  0.000000D+00  0.000000D+00  0.000000D+00  0.000000D+00
               191           192           193           194           195 
      1  -0.750390D+02 -0.750390D+02 -0.749921D+02 -0.749921D+02 -0.749878D+02
      2   0.000000D+00  0.000000D+00  0.000000D+00  0.000000D+00  0.000000D+00
      3   0.000000D+00  0.000000D+00  0.000000D+00  0.000000D+00  0.000000D+00
      4   0.000000D+00  0.000000D+00  0.000000D+00  0.000000D+00  0.000000D+00
      5   0.000000D+00  0.000000D+00  0.000000D+00  0.000000D+00  0.000000D+00
      6   0.000000D+00  0.000000D+00  0.000000D+00  0.000000D+00  0.000000D+00
      7   0.000000D+00  0.000000D+00  0.000000D+00  0.000000D+00  0.000000D+00
      8  -0.779810D-05  0.405646D-05  0.000000D+00  0.000000D+00  0.000000D+00
      9   0.405646D-05  0.779810D-05  0.000000D+00  0.000000D+00  0.000000D+00
     10   0.000000D+00  0.000000D+00  0.000000D+00  0.000000D+00  0.000000D+00
     11   0.000000D+00  0.000000D+00  0.000000D+00 -0.192400D+00  0.000000D+00
     12   0.000000D+00  0.000000D+00  0.000000D+00  0.192400D+00  0.000000D+00
     13   0.000000D+00  0.000000D+00  0.000000D+00  0.000000D+00  0.000000D+00
     14   0.000000D+00  0.000000D+00 -0.192407D+00  0.000000D+00  0.000000D+00
     15   0.640020D-05  0.123037D-04  0.000000D+00  0.000000D+00  0.000000D+00
     16   0.123037D-04 -0.640020D-05  0.000000D+00  0.000000D+00  0.000000D+00
               196           197           198           199           200 
      1  -0.749618D+02 -0.749618D+02 -0.749486D+02 -0.749465D+02 -0.749238D+02
      2   0.000000D+00  0.000000D+00  0.000000D+00  0.000000D+00  0.000000D+00
      3   0.000000D+00  0.000000D+00  0.000000D+00  0.000000D+00  0.000000D+00
      4   0.000000D+00  0.000000D+00  0.000000D+00  0.933432D-01  0.000000D+00
      5   0.000000D+00  0.000000D+00  0.000000D+00  0.000000D+00  0.000000D+00
      6   0.000000D+00  0.000000D+00  0.000000D+00  0.000000D+00  0.000000D+00
      7   0.000000D+00  0.000000D+00  0.000000D+00 -0.167469D+00  0.000000D+00
      8   0.115755D+01 -0.748525D+00  0.000000D+00  0.000000D+00  0.188093D-02
      9   0.748525D+00  0.115755D+01  0.000000D+00  0.000000D+00 -0.135184D+00
     10   0.000000D+00  0.000000D+00  0.000000D+00  0.000000D+00  0.000000D+00
     11   0.000000D+00  0.000000D+00 -0.358878D+00  0.000000D+00  0.000000D+00
     12   0.000000D+00  0.000000D+00 -0.358878D+00  0.000000D+00  0.000000D+00
     13   0.000000D+00  0.000000D+00 -0.594469D+00  0.000000D+00  0.000000D+00
     14   0.000000D+00  0.000000D+00  0.000000D+00  0.000000D+00  0.000000D+00
     15   0.106963D+01  0.165412D+01  0.000000D+00  0.000000D+00 -0.695292D-01
     16  -0.165412D+01  0.106963D+01  0.000000D+00  0.000000D+00 -0.967421D-03
               201           202           203           204           205 
      1  -0.749238D+02 -0.749166D+02 -0.749166D+02 -0.748776D+02 -0.748776D+02
      2   0.000000D+00 -0.126146D+00 -0.677845D-01  0.000000D+00  0.000000D+00
      3   0.000000D+00  0.677845D-01 -0.126146D+00  0.000000D+00  0.000000D+00
      4   0.000000D+00  0.000000D+00  0.000000D+00  0.000000D+00  0.000000D+00
      5   0.000000D+00  0.227636D+00  0.122320D+00  0.000000D+00  0.000000D+00
      6   0.000000D+00 -0.122320D+00  0.227636D+00  0.000000D+00  0.000000D+00
      7   0.000000D+00  0.000000D+00  0.000000D+00  0.000000D+00  0.000000D+00
      8   0.135184D+00  0.000000D+00  0.000000D+00  0.000000D+00  0.000000D+00
      9   0.188093D-02  0.000000D+00  0.000000D+00  0.000000D+00  0.000000D+00
     10   0.000000D+00  0.000000D+00  0.000000D+00  0.000000D+00  0.000000D+00
     11   0.000000D+00  0.000000D+00  0.000000D+00  0.698762D+00  0.000000D+00
     12   0.000000D+00  0.000000D+00  0.000000D+00 -0.698762D+00  0.000000D+00
     13   0.000000D+00  0.000000D+00  0.000000D+00  0.000000D+00  0.000000D+00
     14   0.000000D+00  0.000000D+00  0.000000D+00  0.000000D+00  0.698762D+00
     15   0.967421D-03  0.000000D+00  0.000000D+00  0.000000D+00  0.000000D+00
     16  -0.695292D-01  0.000000D+00  0.000000D+00  0.000000D+00  0.000000D+00
               206           207           208           209           210 
      1  -0.748085D+02 -0.748085D+02 -0.747705D+02 -0.747705D+02 -0.747225D+02
      2   0.000000D+00  0.000000D+00  0.150178D+00  0.881722D-01  0.000000D+00
      3   0.000000D+00  0.000000D+00 -0.881722D-01  0.150178D+00  0.000000D+00
      4   0.000000D+00  0.000000D+00  0.000000D+00  0.000000D+00  0.000000D+00
      5   0.000000D+00  0.000000D+00 -0.321456D+00 -0.188733D+00  0.000000D+00
      6   0.000000D+00  0.000000D+00  0.188733D+00 -0.321456D+00  0.000000D+00
      7   0.000000D+00  0.000000D+00  0.000000D+00  0.000000D+00  0.000000D+00
      8   0.000000D+00  0.000000D+00  0.000000D+00  0.000000D+00  0.000000D+00
      9   0.000000D+00  0.000000D+00  0.000000D+00  0.000000D+00  0.000000D+00
     10   0.000000D+00  0.000000D+00  0.000000D+00  0.000000D+00  0.000000D+00
     11   0.000000D+00  0.000000D+00  0.000000D+00  0.000000D+00  0.000000D+00
     12   0.000000D+00  0.000000D+00  0.000000D+00  0.000000D+00  0.000000D+00
     13   0.000000D+00  0.000000D+00  0.000000D+00  0.000000D+00  0.000000D+00
     14   0.000000D+00  0.000000D+00  0.000000D+00  0.000000D+00  0.444926D+00
     15   0.000000D+00  0.000000D+00  0.000000D+00  0.000000D+00  0.000000D+00
     16   0.000000D+00  0.000000D+00  0.000000D+00  0.000000D+00  0.000000D+00
               211           212           213           214           215 
      1  -0.747225D+02 -0.747110D+02 -0.747110D+02 -0.746931D+02 -0.746347D+02
      2   0.000000D+00  0.000000D+00  0.000000D+00  0.000000D+00  0.000000D+00
      3   0.000000D+00  0.000000D+00  0.000000D+00  0.000000D+00  0.000000D+00
      4   0.000000D+00  0.000000D+00  0.000000D+00  0.000000D+00  0.297243D-01
      5   0.000000D+00  0.000000D+00  0.000000D+00  0.000000D+00  0.000000D+00
      6   0.000000D+00  0.000000D+00  0.000000D+00  0.000000D+00  0.000000D+00
      7   0.000000D+00  0.000000D+00  0.000000D+00  0.000000D+00 -0.951177D-01
      8   0.000000D+00 -0.591255D-01 -0.335082D+00  0.000000D+00  0.000000D+00
      9   0.000000D+00  0.335082D+00 -0.591255D-01  0.000000D+00  0.000000D+00
     10   0.000000D+00  0.000000D+00  0.000000D+00  0.000000D+00  0.000000D+00
     11   0.444929D+00  0.000000D+00  0.000000D+00  0.250594D-01  0.000000D+00
     12  -0.444929D+00  0.000000D+00  0.000000D+00  0.250594D-01  0.000000D+00
     13   0.000000D+00  0.000000D+00  0.000000D+00 -0.104801D+00  0.000000D+00
     14   0.000000D+00  0.000000D+00  0.000000D+00  0.000000D+00  0.000000D+00
     15   0.000000D+00  0.673518D+00 -0.118843D+00  0.000000D+00  0.000000D+00
     16   0.000000D+00  0.118843D+00  0.673518D+00  0.000000D+00  0.000000D+00
               216           217           218           219           220 
      1  -0.746326D+02 -0.746326D+02 -0.745592D+02 -0.745592D+02 -0.745130D+02
      2   0.000000D+00  0.000000D+00  0.000000D+00  0.000000D+00  0.716057D-01
      3   0.000000D+00  0.000000D+00  0.000000D+00  0.000000D+00 -0.187949D+00
      4   0.000000D+00  0.000000D+00  0.000000D+00  0.000000D+00  0.000000D+00
      5   0.000000D+00  0.000000D+00  0.000000D+00  0.000000D+00 -0.158772D+00
      6   0.000000D+00  0.000000D+00  0.000000D+00  0.000000D+00  0.416741D+00
      7   0.000000D+00  0.000000D+00  0.000000D+00  0.000000D+00  0.000000D+00
      8   0.823226D-02  0.174185D-01  0.000000D+00  0.000000D+00  0.000000D+00
      9  -0.174185D-01  0.823226D-02  0.000000D+00  0.000000D+00  0.000000D+00
     10   0.000000D+00  0.000000D+00  0.000000D+00  0.000000D+00  0.000000D+00
     11   0.000000D+00  0.000000D+00  0.000000D+00  0.000000D+00  0.000000D+00
     12   0.000000D+00  0.000000D+00  0.000000D+00  0.000000D+00  0.000000D+00
     13   0.000000D+00  0.000000D+00  0.000000D+00  0.000000D+00  0.000000D+00
     14   0.000000D+00  0.000000D+00  0.000000D+00  0.000000D+00  0.000000D+00
     15  -0.201244D+00  0.951109D-01  0.000000D+00  0.000000D+00  0.000000D+00
     16  -0.951109D-01 -0.201244D+00  0.000000D+00  0.000000D+00  0.000000D+00
               221           222           223           224           225 
      1  -0.745130D+02 -0.744550D+02 -0.744068D+02 -0.743430D+02 -0.741600D+02
      2  -0.187949D+00  0.000000D+00  0.000000D+00  0.000000D+00  0.000000D+00
      3  -0.716057D-01  0.000000D+00  0.000000D+00  0.000000D+00  0.000000D+00
      4   0.000000D+00  0.000000D+00  0.472292D-01  0.000000D+00 -0.134690D+00
      5   0.416741D+00  0.000000D+00  0.000000D+00  0.000000D+00  0.000000D+00
      6   0.158772D+00  0.000000D+00  0.000000D+00  0.000000D+00  0.000000D+00
      7   0.000000D+00  0.000000D+00 -0.959201D-01  0.000000D+00  0.393951D+00
      8   0.000000D+00  0.000000D+00  0.000000D+00  0.000000D+00  0.000000D+00
      9   0.000000D+00  0.000000D+00  0.000000D+00  0.000000D+00  0.000000D+00
     10   0.000000D+00  0.000000D+00  0.000000D+00  0.000000D+00  0.000000D+00
     11   0.000000D+00 -0.512832D-01  0.000000D+00 -0.617101D-01  0.000000D+00
     12   0.000000D+00 -0.512832D-01  0.000000D+00 -0.617101D-01  0.000000D+00
     13   0.000000D+00  0.670017D+00  0.000000D+00 -0.602264D-02  0.000000D+00
     14   0.000000D+00  0.000000D+00  0.000000D+00  0.000000D+00  0.000000D+00
     15   0.000000D+00  0.000000D+00  0.000000D+00  0.000000D+00  0.000000D+00
     16   0.000000D+00  0.000000D+00  0.000000D+00  0.000000D+00  0.000000D+00
               226           227           228           229           230 
      1  -0.741571D+02 -0.741571D+02 -0.741463D+02 -0.741193D+02 -0.739282D+02
      2   0.000000D+00  0.000000D+00  0.000000D+00  0.000000D+00  0.000000D+00
      3   0.000000D+00  0.000000D+00  0.000000D+00  0.000000D+00  0.000000D+00
      4   0.000000D+00  0.000000D+00  0.000000D+00 -0.164771D+00  0.000000D+00
      5   0.000000D+00  0.000000D+00  0.000000D+00  0.000000D+00  0.000000D+00
      6   0.000000D+00  0.000000D+00  0.000000D+00  0.000000D+00  0.000000D+00
      7   0.000000D+00  0.000000D+00  0.000000D+00  0.552282D+00  0.000000D+00
      8   0.000000D+00  0.000000D+00  0.000000D+00  0.000000D+00  0.163038D+00
      9   0.000000D+00  0.000000D+00  0.000000D+00  0.000000D+00  0.266016D+00
     10   0.000000D+00  0.000000D+00  0.000000D+00  0.000000D+00  0.000000D+00
     11   0.000000D+00  0.000000D+00  0.000000D+00  0.000000D+00  0.000000D+00
     12   0.000000D+00  0.000000D+00  0.000000D+00  0.000000D+00  0.000000D+00
     13   0.000000D+00  0.000000D+00  0.000000D+00  0.000000D+00  0.000000D+00
     14   0.000000D+00  0.000000D+00  0.000000D+00  0.000000D+00  0.000000D+00
     15   0.000000D+00  0.000000D+00  0.000000D+00  0.000000D+00  0.384891D+00
     16   0.000000D+00  0.000000D+00  0.000000D+00  0.000000D+00 -0.235895D+00
               231           232           233           234           235 
      1  -0.739282D+02 -0.738566D+02 -0.738566D+02 -0.737467D+02 -0.737467D+02
      2   0.000000D+00 -0.844826D-01  0.680248D-02  0.305751D-01 -0.109819D+00
      3   0.000000D+00 -0.680248D-02 -0.844826D-01 -0.109819D+00 -0.305751D-01
      4   0.000000D+00  0.000000D+00  0.000000D+00  0.000000D+00  0.000000D+00
      5   0.000000D+00  0.242465D+00 -0.195232D-01 -0.869513D-01  0.312309D+00
      6   0.000000D+00  0.195232D-01  0.242465D+00  0.312309D+00  0.869513D-01
      7   0.000000D+00  0.000000D+00  0.000000D+00  0.000000D+00  0.000000D+00
      8  -0.266016D+00  0.000000D+00  0.000000D+00  0.000000D+00  0.000000D+00
      9   0.163038D+00  0.000000D+00  0.000000D+00  0.000000D+00  0.000000D+00
     10   0.000000D+00  0.000000D+00  0.000000D+00  0.000000D+00  0.000000D+00
     11   0.000000D+00  0.000000D+00  0.000000D+00  0.000000D+00  0.000000D+00
     12   0.000000D+00  0.000000D+00  0.000000D+00  0.000000D+00  0.000000D+00
     13   0.000000D+00  0.000000D+00  0.000000D+00  0.000000D+00  0.000000D+00
     14   0.000000D+00  0.000000D+00  0.000000D+00  0.000000D+00  0.000000D+00
     15   0.235895D+00  0.000000D+00  0.000000D+00  0.000000D+00  0.000000D+00
     16   0.384891D+00  0.000000D+00  0.000000D+00  0.000000D+00  0.000000D+00
               236           237           238           239           240 
      1  -0.736894D+02 -0.736894D+02 -0.735167D+02 -0.734595D+02 -0.732688D+02
      2   0.000000D+00  0.000000D+00  0.000000D+00  0.000000D+00  0.000000D+00
      3   0.000000D+00  0.000000D+00  0.000000D+00  0.000000D+00  0.000000D+00
      4   0.000000D+00  0.000000D+00  0.000000D+00  0.712307D-02  0.000000D+00
      5   0.000000D+00  0.000000D+00  0.000000D+00  0.000000D+00  0.000000D+00
      6   0.000000D+00  0.000000D+00  0.000000D+00  0.000000D+00  0.000000D+00
      7   0.000000D+00  0.000000D+00  0.000000D+00 -0.472748D-01  0.000000D+00
      8   0.101041D-01  0.304744D-01  0.000000D+00  0.000000D+00  0.000000D+00
      9  -0.304744D-01  0.101041D-01  0.000000D+00  0.000000D+00  0.000000D+00
     10   0.000000D+00  0.000000D+00  0.000000D+00  0.000000D+00  0.000000D+00
     11   0.000000D+00  0.000000D+00 -0.353069D-01  0.000000D+00  0.153816D+00
     12   0.000000D+00  0.000000D+00 -0.353069D-01  0.000000D+00  0.153816D+00
     13   0.000000D+00  0.000000D+00 -0.107267D+01  0.000000D+00  0.104715D+01
     14   0.000000D+00  0.000000D+00  0.000000D+00  0.000000D+00  0.000000D+00
     15  -0.259639D+00  0.860860D-01  0.000000D+00  0.000000D+00  0.000000D+00
     16  -0.860860D-01 -0.259639D+00  0.000000D+00  0.000000D+00  0.000000D+00
               241           242           243           244           245 
      1  -0.730020D+02 -0.730020D+02 -0.727621D+02 -0.727065D+02 -0.725044D+02
      2   0.000000D+00  0.000000D+00  0.000000D+00  0.000000D+00  0.000000D+00
      3   0.000000D+00  0.000000D+00  0.000000D+00  0.000000D+00  0.000000D+00
      4   0.000000D+00  0.000000D+00 -0.526249D-01  0.000000D+00 -0.506201D-01
      5   0.000000D+00  0.000000D+00  0.000000D+00  0.000000D+00  0.000000D+00
      6   0.000000D+00  0.000000D+00  0.000000D+00  0.000000D+00  0.000000D+00
      7   0.000000D+00  0.000000D+00  0.204886D+00  0.000000D+00  0.206650D+00
      8   0.349049D+00  0.427874D-01  0.000000D+00  0.000000D+00  0.000000D+00
      9   0.427874D-01 -0.349049D+00  0.000000D+00  0.000000D+00  0.000000D+00
     10   0.000000D+00  0.000000D+00  0.000000D+00  0.000000D+00  0.000000D+00
     11   0.000000D+00  0.000000D+00  0.000000D+00 -0.161014D+00  0.000000D+00
     12   0.000000D+00  0.000000D+00  0.000000D+00 -0.161014D+00  0.000000D+00
     13   0.000000D+00  0.000000D+00  0.000000D+00  0.767855D+00  0.000000D+00
     14   0.000000D+00  0.000000D+00  0.000000D+00  0.000000D+00  0.000000D+00
     15   0.515228D-01 -0.420310D+00  0.000000D+00  0.000000D+00  0.000000D+00
     16  -0.420310D+00 -0.515228D-01  0.000000D+00  0.000000D+00  0.000000D+00
 Unable to Open any file for archive entry.
 1\1\GINC-HEL02\SP\RwB97XD TD-FC\Gen\C2H2\RR\12-Feb-2022\0\\#P TD(Nstat
 es=10000) wB97XD/Gen SCF(maxcycles=100) Int(Grid=ultrafine)\\xGDB7_000
 01_tier4.com\\0,1\C,0,0.,0.,0.603394\C,0,0.,0.,-0.603394\H,0,0.,0.,1.6
 77978\H,0,0.,0.,-1.677978\\Version=EM64L-G16RevC.01\State=1-SGG\HF=-77
 .2419462\RMSD=7.971e-10\PG=D*H [C*(H1C1.C1H1)]\\@
 The archive entry for this job was punched.


 HO!  SUCH BUGS AND GOBLINS IN MY LIFE!

                            -- HAMLET, ACT 5, SCENE 2
 Job cpu time:       0 days  0 hours  0 minutes 40.0 seconds.
 Elapsed time:       0 days  0 hours  0 minutes  5.3 seconds.
 File lengths (MBytes):  RWF=     81 Int=      0 D2E=      0 Chk=     20 Scr=      1
 Normal termination of Gaussian 16 at Sat Feb 12 22:22:48 2022.
