 Entering Gaussian System, Link 0=g16
 Input=bigQM7w_TDwB97XD_def2SVPD_000017.com
 Output=bigQM7w_TDwB97XD_def2SVPD_000017.log
 Initial command:
 /home/rr/g16/l1.exe "/scratch/rr/PBS_7839462.helios/Gau-63916.inp" -scrdir="/scratch/rr/PBS_7839462.helios/"
 Entering Link 1 = /home/rr/g16/l1.exe PID=     63924.
  
 Copyright (c) 1988-2019, Gaussian, Inc.  All Rights Reserved.
  
 This is part of the Gaussian(R) 16 program.  It is based on
 the Gaussian(R) 09 system (copyright 2009, Gaussian, Inc.),
 the Gaussian(R) 03 system (copyright 2003, Gaussian, Inc.),
 the Gaussian(R) 98 system (copyright 1998, Gaussian, Inc.),
 the Gaussian(R) 94 system (copyright 1995, Gaussian, Inc.),
 the Gaussian 92(TM) system (copyright 1992, Gaussian, Inc.),
 the Gaussian 90(TM) system (copyright 1990, Gaussian, Inc.),
 the Gaussian 88(TM) system (copyright 1988, Gaussian, Inc.),
 the Gaussian 86(TM) system (copyright 1986, Carnegie Mellon
 University), and the Gaussian 82(TM) system (copyright 1983,
 Carnegie Mellon University). Gaussian is a federally registered
 trademark of Gaussian, Inc.
  
 This software contains proprietary and confidential information,
 including trade secrets, belonging to Gaussian, Inc.
  
 This software is provided under written license and may be
 used, copied, transmitted, or stored only in accord with that
 written license.
  
 The following legend is applicable only to US Government
 contracts under FAR:
  
                    RESTRICTED RIGHTS LEGEND
  
 Use, reproduction and disclosure by the US Government is
 subject to restrictions as set forth in subparagraphs (a)
 and (c) of the Commercial Computer Software - Restricted
 Rights clause in FAR 52.227-19.
  
 Gaussian, Inc.
 340 Quinnipiac St., Bldg. 40, Wallingford CT 06492
  
  
 ---------------------------------------------------------------
 Warning -- This program may not be used in any manner that
 competes with the business of Gaussian, Inc. or will provide
 assistance to any competitor of Gaussian, Inc.  The licensee
 of this program is prohibited from giving any competitor of
 Gaussian, Inc. access to this program.  By using this program,
 the user acknowledges that Gaussian, Inc. is engaged in the
 business of creating and licensing software in the field of
 computational chemistry and represents and warrants to the
 licensee that it is not a competitor of Gaussian, Inc. and that
 it will not use this program in any manner prohibited above.
 ---------------------------------------------------------------
  

 Cite this work as:
 Gaussian 16, Revision C.01,
 M. J. Frisch, G. W. Trucks, H. B. Schlegel, G. E. Scuseria, 
 M. A. Robb, J. R. Cheeseman, G. Scalmani, V. Barone, 
 G. A. Petersson, H. Nakatsuji, X. Li, M. Caricato, A. V. Marenich, 
 J. Bloino, B. G. Janesko, R. Gomperts, B. Mennucci, H. P. Hratchian, 
 J. V. Ortiz, A. F. Izmaylov, J. L. Sonnenberg, D. Williams-Young, 
 F. Ding, F. Lipparini, F. Egidi, J. Goings, B. Peng, A. Petrone, 
 T. Henderson, D. Ranasinghe, V. G. Zakrzewski, J. Gao, N. Rega, 
 G. Zheng, W. Liang, M. Hada, M. Ehara, K. Toyota, R. Fukuda, 
 J. Hasegawa, M. Ishida, T. Nakajima, Y. Honda, O. Kitao, H. Nakai, 
 T. Vreven, K. Throssell, J. A. Montgomery, Jr., J. E. Peralta, 
 F. Ogliaro, M. J. Bearpark, J. J. Heyd, E. N. Brothers, K. N. Kudin, 
 V. N. Staroverov, T. A. Keith, R. Kobayashi, J. Normand, 
 K. Raghavachari, A. P. Rendell, J. C. Burant, S. S. Iyengar, 
 J. Tomasi, M. Cossi, J. M. Millam, M. Klene, C. Adamo, R. Cammi, 
 J. W. Ochterski, R. L. Martin, K. Morokuma, O. Farkas, 
 J. B. Foresman, and D. J. Fox, Gaussian, Inc., Wallingford CT, 2019.
 
 ******************************************
 Gaussian 16:  EM64L-G16RevC.01  3-Jul-2019
                12-Feb-2022 
 ******************************************
 %mem=64gb
 %nproc=8
 Will use up to    8 processors via shared memory.
 ----------------------------------------------------------------------
 #P TD(Nstates=10000) wB97XD/Gen SCF(maxcycles=100) Int(Grid=ultrafine)
 ----------------------------------------------------------------------
 1/38=1,172=1/1;
 2/12=2,17=6,18=5,40=1/2;
 3/5=7,11=9,25=1,30=1,74=-58,75=-5/1,2,3,8;
 4//1;
 5/5=2,7=100,38=5/2;
 8/6=1,10=1,108=10000/1;
 9/41=10000,42=1,70=2/14;
 6/7=2,8=2,9=2,10=2/1;
 99/5=1,9=1/99;
 Leave Link    1 at Sat Feb 12 22:22:42 2022, MaxMem=  8589934592 cpu:               0.4 elap:               0.1
 (Enter /home/rr/g16/l101.exe)
 ---------------------
 xGDB7_00001_tier4.com
 ---------------------
 Symbolic Z-matrix:
 Charge =  0 Multiplicity = 1
 6                    -1.11598  -0.46738   0. 
 6                     0.        0.55106   0. 
 9                     1.22327  -0.0798    0. 
 1                    -2.09327   0.03785   0. 
 1                    -1.05692  -1.1082    0.89158 
 1                    -1.05692  -1.1082   -0.89158 
 1                    -0.05325   1.19733   0.89254 
 1                    -0.05325   1.19733  -0.89254 
 
 ITRead=  0  0  0  0  0  0  0  0
 MicOpt= -1 -1 -1 -1 -1 -1 -1 -1
 NAtoms=      8 NQM=        8 NQMF=       0 NMMI=      0 NMMIF=      0
                NMic=       0 NMicF=      0.
                    Isotopes and Nuclear Properties:
 (Nuclear quadrupole moments (NQMom) in fm**2, nuclear magnetic moments (NMagM)
  in nuclear magnetons)

  Atom         1           2           3           4           5           6           7           8
 IAtWgt=          12          12          19           1           1           1           1           1
 AtmWgt=  12.0000000  12.0000000  18.9984033   1.0078250   1.0078250   1.0078250   1.0078250   1.0078250
 NucSpn=           0           0           1           1           1           1           1           1
 AtZEff=  -0.0000000  -0.0000000  -0.0000000  -0.0000000  -0.0000000  -0.0000000  -0.0000000  -0.0000000
 NQMom=    0.0000000   0.0000000   0.0000000   0.0000000   0.0000000   0.0000000   0.0000000   0.0000000
 NMagM=    0.0000000   0.0000000   2.6288670   2.7928460   2.7928460   2.7928460   2.7928460   2.7928460
 AtZNuc=   6.0000000   6.0000000   9.0000000   1.0000000   1.0000000   1.0000000   1.0000000   1.0000000
 Leave Link  101 at Sat Feb 12 22:22:42 2022, MaxMem=  8589934592 cpu:               0.8 elap:               0.1
 (Enter /home/rr/g16/l202.exe)
                          Input orientation:                          
 ---------------------------------------------------------------------
 Center     Atomic      Atomic             Coordinates (Angstroms)
 Number     Number       Type             X           Y           Z
 ---------------------------------------------------------------------
      1          6           0       -1.115976   -0.467377    0.000000
      2          6           0        0.000000    0.551060    0.000000
      3          9           0        1.223274   -0.079801    0.000000
      4          1           0       -2.093267    0.037854    0.000000
      5          1           0       -1.056924   -1.108199    0.891580
      6          1           0       -1.056924   -1.108199   -0.891580
      7          1           0       -0.053248    1.197330    0.892538
      8          1           0       -0.053248    1.197330   -0.892538
 ---------------------------------------------------------------------
                    Distance matrix (angstroms):
                    1          2          3          4          5
     1  C    0.000000
     2  C    1.510833   0.000000
     3  F    2.371140   1.376367   0.000000
     4  H    1.100162   2.155260   3.318627   0.000000
     5  H    1.099570   2.159894   2.655526   1.783917   0.000000
     6  H    1.099570   2.159894   2.655526   1.783917   1.783160
     7  H    2.167317   1.103234   2.014248   2.510515   2.514524
     8  H    2.167317   1.103234   2.014248   2.510515   3.083165
                    6          7          8
     6  H    0.000000
     7  H    3.083165   0.000000
     8  H    2.514524   1.785076   0.000000
 Stoichiometry    C2H5F
 Framework group  CS[SG(C2HF),X(H4)]
 Deg. of freedom    11
 Full point group                 CS      NOp   2
 Largest Abelian subgroup         CS      NOp   2
 Largest concise Abelian subgroup CS      NOp   2
                         Standard orientation:                         
 ---------------------------------------------------------------------
 Center     Atomic      Atomic             Coordinates (Angstroms)
 Number     Number       Type             X           Y           Z
 ---------------------------------------------------------------------
      1          6           0       -1.115976   -0.467377    0.000000
      2          6           0        0.000000    0.551060    0.000000
      3          9           0        1.223274   -0.079801    0.000000
      4          1           0       -2.093267    0.037854    0.000000
      5          1           0       -1.056924   -1.108199    0.891580
      6          1           0       -1.056924   -1.108199   -0.891580
      7          1           0       -0.053248    1.197330    0.892538
      8          1           0       -0.053248    1.197330   -0.892538
 ---------------------------------------------------------------------
 Rotational constants (GHZ):          36.5181864           9.4032172           8.2620844
 Leave Link  202 at Sat Feb 12 22:22:42 2022, MaxMem=  8589934592 cpu:               0.1 elap:               0.0
 (Enter /home/rr/g16/l301.exe)
 General basis read from cards:  (5D, 7F)
 Centers:       4      5      6      7      8
 S 3 1.00
     Exponent=  1.3010701000D+01 Coefficients=  1.9682158000D-02
     Exponent=  1.9622572000D+00 Coefficients=  1.3796524000D-01
     Exponent=  4.4453796000D-01 Coefficients=  4.7831935000D-01
 S 1 1.00
     Exponent=  1.2194962000D-01 Coefficients=  1.0000000000D+00
 P 1 1.00
     Exponent=  8.0000000000D-01 Coefficients=  1.0000000000D+00
 P 1 1.00
     Exponent=  1.1704099050D-01 Coefficients=  1.0000000000D+00
 ****
 Centers:       1      2
 S 5 1.00
     Exponent=  1.2384016938D+03 Coefficients=  5.4568832082D-03
     Exponent=  1.8629004992D+02 Coefficients=  4.0638409211D-02
     Exponent=  4.2251176346D+01 Coefficients=  1.8025593888D-01
     Exponent=  1.1676557932D+01 Coefficients=  4.6315121755D-01
     Exponent=  3.5930506482D+00 Coefficients=  4.4087173314D-01
 S 1 1.00
     Exponent=  4.0245147363D-01 Coefficients=  1.0000000000D+00
 S 1 1.00
     Exponent=  1.3090182668D-01 Coefficients=  1.0000000000D+00
 S 1 1.00
     Exponent=  6.7053540256D-02 Coefficients=  1.0000000000D+00
 P 3 1.00
     Exponent=  9.4680970621D+00 Coefficients=  3.8387871728D-02
     Exponent=  2.0103545142D+00 Coefficients=  2.1117025112D-01
     Exponent=  5.4771004707D-01 Coefficients=  5.1328172114D-01
 P 1 1.00
     Exponent=  1.5268613795D-01 Coefficients=  1.0000000000D+00
 D 1 1.00
     Exponent=  8.0000000000D-01 Coefficients=  1.0000000000D+00
 D 1 1.00
     Exponent=  1.1713185140D-01 Coefficients=  1.0000000000D+00
 ****
 Centers:       3
 S 5 1.00
     Exponent=  2.8948325990D+03 Coefficients= -5.3408255515D-03
     Exponent=  4.3541939120D+02 Coefficients= -3.9904258866D-02
     Exponent=  9.8843328866D+01 Coefficients= -1.7912768038D-01
     Exponent=  2.7485198001D+01 Coefficients= -4.6758090825D-01
     Exponent=  8.5405498171D+00 Coefficients= -4.4653131020D-01
 S 1 1.00
     Exponent=  1.0654578038D+00 Coefficients=  1.0000000000D+00
 S 1 1.00
     Exponent=  3.3247346748D-01 Coefficients=  1.0000000000D+00
 S 1 1.00
     Exponent=  9.8097752264D-02 Coefficients=  1.0000000000D+00
 P 3 1.00
     Exponent=  2.2696633924D+01 Coefficients= -4.5212874436D-02
     Exponent=  4.9872339257D+00 Coefficients= -2.3754317067D-01
     Exponent=  1.3491613954D+00 Coefficients= -5.1287353587D-01
 P 1 1.00
     Exponent=  3.4829881977D-01 Coefficients=  1.0000000000D+00
 P 1 1.00
     Exponent=  8.3372148304D-02 Coefficients=  1.0000000000D+00
 D 1 1.00
     Exponent=  1.4000000000D+00 Coefficients=  1.0000000000D+00
 D 1 1.00
     Exponent=  2.2301361948D-01 Coefficients=  1.0000000000D+00
 ****
 Ernie: Thresh=  0.10000D-02 Tol=  0.10000D-05 Strict=F.
 There are    72 symmetry adapted cartesian basis functions of A'  symmetry.
 There are    37 symmetry adapted cartesian basis functions of A"  symmetry.
 There are    66 symmetry adapted basis functions of A'  symmetry.
 There are    37 symmetry adapted basis functions of A"  symmetry.
   103 basis functions,   149 primitive gaussians,   109 cartesian basis functions
    13 alpha electrons       13 beta electrons
       nuclear repulsion energy        79.3055083472 Hartrees.
 IExCor= 4639 DFT=T Ex+Corr=wB97XD ExCW=0 ScaHFX=  1.000000
 ScaDFX=  1.000000  1.000000  1.000000  1.000000 ScalE2=  1.000000  1.000000
 IRadAn=      5 IRanWt=     -1 IRanGd=            0 ICorTp=0 IEmpDi=121
 HFx  wShort=  0.000000 wLong=  0.200000 cFull=  0.222036 cShort=  0.000000 cLong=  0.777964
 DFx  wShort=  0.000000 wLong=  0.200000 cFull=  0.000000 cShort=  0.000000 cLong=  1.000000
 NAtoms=    8 NActive=    8 NUniq=    6 SFac= 1.78D+00 NAtFMM=   60 NAOKFM=F Big=F
 Integral buffers will be    131072 words long.
 Raffenetti 1 integral format.
 Two-electron integral symmetry is turned on.
 R6Disp:  Grimme-D2 Dispersion energy=       -0.0019694105 Hartrees.
 Nuclear repulsion after empirical dispersion term =       79.3035389367 Hartrees.
 Leave Link  301 at Sat Feb 12 22:22:42 2022, MaxMem=  8589934592 cpu:               0.6 elap:               0.1
 (Enter /home/rr/g16/l302.exe)
 NPDir=0 NMtPBC=     1 NCelOv=     1 NCel=       1 NClECP=     1 NCelD=      1
         NCelK=      1 NCelE2=     1 NClLst=     1 CellRange=     0.0.
 One-electron integrals computed using PRISM.
 One-electron integral symmetry used in STVInt
 NBasis=   103 RedAO= T EigKep=  3.54D-04  NBF=    66    37
 NBsUse=   103 1.00D-06 EigRej= -1.00D+00 NBFU=    66    37
 Precomputing XC quadrature grid using
 IXCGrd= 4 IRadAn=           5 IRanWt=          -1 IRanGd=           0 AccXCQ= 0.00D+00.
 Generated NRdTot=       0 NPtTot=           0 NUsed=           0 NTot=          32
 NSgBfM=   109   109   109   109   109 MxSgAt=     8 MxSgA2=     8.
 Leave Link  302 at Sat Feb 12 22:22:42 2022, MaxMem=  8589934592 cpu:               1.0 elap:               0.2
 (Enter /home/rr/g16/l303.exe)
 DipDrv:  MaxL=1.
 Leave Link  303 at Sat Feb 12 22:22:42 2022, MaxMem=  8589934592 cpu:               0.2 elap:               0.1
 (Enter /home/rr/g16/l308.exe)
 Leave Link  308 at Sat Feb 12 22:22:42 2022, MaxMem=  8589934592 cpu:               0.2 elap:               0.1
 (Enter /home/rr/g16/l401.exe)
 ExpMin= 6.71D-02 ExpMax= 2.89D+03 ExpMxC= 4.35D+02 IAcc=3 IRadAn=         5 AccDes= 0.00D+00
 Harris functional with IExCor= 4639 and IRadAn=       5 diagonalized for initial guess.
 HarFok:  IExCor= 4639 AccDes= 0.00D+00 IRadAn=         5 IDoV= 1 UseB2=F ITyADJ=14
 ICtDFT=  3500011 ScaDFX=  1.000000  1.000000  1.000000  1.000000
 FoFCou: FMM=F IPFlag=           0 FMFlag=      100000 FMFlg1=           0
         NFxFlg=           0 DoJE=T BraDBF=F KetDBF=T FulRan=T
         wScrn=  0.000000 ICntrl=       500 IOpCl=  0 I1Cent=   200000004 NGrid=           0
         NMat0=    1 NMatS0=      1 NMatT0=    0 NMatD0=    1 NMtDS0=    0 NMtDT0=    0
 Petite list used in FoFCou.
 Harris En= -171.849488422848    
 JPrj=0 DoOrth=F DoCkMO=F.
 Initial guess orbital symmetries:
       Occupied  (A') (A') (A') (A') (A') (A') (A") (A') (A') (A')
                 (A") (A') (A")
       Virtual   (A') (A') (A") (A') (A') (A') (A") (A') (A") (A')
                 (A") (A') (A') (A") (A') (A') (A") (A') (A') (A')
                 (A") (A') (A") (A') (A") (A') (A") (A') (A') (A")
                 (A") (A') (A") (A') (A') (A') (A") (A') (A') (A")
                 (A') (A') (A') (A") (A') (A') (A") (A') (A') (A")
                 (A') (A") (A') (A') (A") (A') (A') (A") (A") (A')
                 (A") (A") (A') (A') (A") (A') (A") (A') (A") (A')
                 (A') (A") (A') (A') (A") (A') (A') (A') (A") (A')
                 (A') (A') (A") (A') (A") (A') (A") (A") (A') (A')
 The electronic state of the initial guess is 1-A'.
 Leave Link  401 at Sat Feb 12 22:22:43 2022, MaxMem=  8589934592 cpu:               2.3 elap:               0.3
 (Enter /home/rr/g16/l502.exe)
 Keep R1 ints in memory in symmetry-blocked form, NReq=43165308.
 FoFCou: FMM=F IPFlag=           0 FMFlag=           0 FMFlg1=           0
         NFxFlg=           0 DoJE=F BraDBF=F KetDBF=F FulRan=T
         wScrn=  0.000000 ICntrl=       600 IOpCl=  0 I1Cent=           0 NGrid=           0
         NMat0=    1 NMatS0=   5356 NMatT0=    0 NMatD0=    1 NMtDS0=    0 NMtDT0=    0
 Petite list used in FoFCou.
 Closed shell SCF:
 Using DIIS extrapolation, IDIIS=  1040.
 NGot=  8589934592 LenX=  8582666380 LenY=  8582654058
 Requested convergence on RMS density matrix=1.00D-08 within 100 cycles.
 Requested convergence on MAX density matrix=1.00D-06.
 Requested convergence on             energy=1.00D-06.
 No special actions if energy rises.
 Integral accuracy reduced to 1.0D-05 until final iterations.

 Cycle   1  Pass 0  IDiag  1:
 E= -178.770287553002    
 DIIS: error= 3.69D-02 at cycle   1 NSaved=   1.
 NSaved= 1 IEnMin= 1 EnMin= -178.770287553002     IErMin= 1 ErrMin= 3.69D-02
 ErrMax= 3.69D-02  0.00D+00 EMaxC= 1.00D-01 BMatC= 2.18D-01 BMatP= 2.18D-01
 IDIUse=3 WtCom= 6.31D-01 WtEn= 3.69D-01
 Coeff-Com:  0.100D+01
 Coeff-En:   0.100D+01
 Coeff:      0.100D+01
 Gap=     0.696 Goal=   None    Shift=    0.000
 GapD=    0.696 DampG=2.000 DampE=0.500 DampFc=1.0000 IDamp=-1.
 RMSDP=5.93D-03 MaxDP=1.45D-01              OVMax= 1.40D-01

 Cycle   2  Pass 0  IDiag  1:
 E= -178.765779323248     Delta-E=        0.004508229753 Rises=F Damp=F
 DIIS: error= 4.47D-02 at cycle   2 NSaved=   2.
 NSaved= 2 IEnMin= 1 EnMin= -178.770287553002     IErMin= 1 ErrMin= 3.69D-02
 ErrMax= 4.47D-02  0.00D+00 EMaxC= 1.00D-01 BMatC= 2.00D-01 BMatP= 2.18D-01
 IDIUse=3 WtCom= 5.53D-01 WtEn= 4.47D-01
 Coeff-Com:  0.488D+00 0.512D+00
 Coeff-En:   0.510D+00 0.490D+00
 Coeff:      0.498D+00 0.502D+00
 Gap=     0.540 Goal=   None    Shift=    0.000
 RMSDP=2.55D-03 MaxDP=8.95D-02 DE= 4.51D-03 OVMax= 7.24D-02

 Cycle   3  Pass 0  IDiag  1:
 E= -178.887117905996     Delta-E=       -0.121338582748 Rises=F Damp=F
 DIIS: error= 2.43D-03 at cycle   3 NSaved=   3.
 NSaved= 3 IEnMin= 3 EnMin= -178.887117905996     IErMin= 3 ErrMin= 2.43D-03
 ErrMax= 2.43D-03  0.00D+00 EMaxC= 1.00D-01 BMatC= 7.72D-04 BMatP= 2.00D-01
 IDIUse=3 WtCom= 9.76D-01 WtEn= 2.43D-02
 Coeff-Com:  0.886D-02 0.496D-01 0.942D+00
 Coeff-En:   0.000D+00 0.000D+00 0.100D+01
 Coeff:      0.865D-02 0.484D-01 0.943D+00
 Gap=     0.507 Goal=   None    Shift=    0.000
 RMSDP=4.38D-04 MaxDP=8.65D-03 DE=-1.21D-01 OVMax= 8.52D-03

 Cycle   4  Pass 0  IDiag  1:
 E= -178.887626216457     Delta-E=       -0.000508310460 Rises=F Damp=F
 DIIS: error= 1.12D-03 at cycle   4 NSaved=   4.
 NSaved= 4 IEnMin= 4 EnMin= -178.887626216457     IErMin= 4 ErrMin= 1.12D-03
 ErrMax= 1.12D-03  0.00D+00 EMaxC= 1.00D-01 BMatC= 2.00D-04 BMatP= 7.72D-04
 IDIUse=3 WtCom= 9.89D-01 WtEn= 1.12D-02
 Coeff-Com: -0.828D-02 0.275D-02 0.385D+00 0.620D+00
 Coeff-En:   0.000D+00 0.000D+00 0.460D-01 0.954D+00
 Coeff:     -0.818D-02 0.272D-02 0.381D+00 0.624D+00
 Gap=     0.509 Goal=   None    Shift=    0.000
 RMSDP=1.77D-04 MaxDP=5.11D-03 DE=-5.08D-04 OVMax= 2.90D-03

 Cycle   5  Pass 0  IDiag  1:
 E= -178.887795315712     Delta-E=       -0.000169099255 Rises=F Damp=F
 DIIS: error= 9.62D-05 at cycle   5 NSaved=   5.
 NSaved= 5 IEnMin= 5 EnMin= -178.887795315712     IErMin= 5 ErrMin= 9.62D-05
 ErrMax= 9.62D-05  0.00D+00 EMaxC= 1.00D-01 BMatC= 2.35D-06 BMatP= 2.00D-04
 IDIUse=1 WtCom= 1.00D+00 WtEn= 0.00D+00
 Coeff-Com: -0.474D-04-0.488D-02-0.625D-01-0.290D-01 0.110D+01
 Coeff:     -0.474D-04-0.488D-02-0.625D-01-0.290D-01 0.110D+01
 Gap=     0.508 Goal=   None    Shift=    0.000
 RMSDP=4.80D-05 MaxDP=5.00D-04 DE=-1.69D-04 OVMax= 7.57D-04

 Cycle   6  Pass 0  IDiag  1:
 E= -178.887798807353     Delta-E=       -0.000003491641 Rises=F Damp=F
 DIIS: error= 1.73D-05 at cycle   6 NSaved=   6.
 NSaved= 6 IEnMin= 6 EnMin= -178.887798807353     IErMin= 6 ErrMin= 1.73D-05
 ErrMax= 1.73D-05  0.00D+00 EMaxC= 1.00D-01 BMatC= 6.62D-08 BMatP= 2.35D-06
 IDIUse=1 WtCom= 1.00D+00 WtEn= 0.00D+00
 Coeff-Com:  0.254D-03-0.101D-02-0.217D-01-0.251D-01 0.170D+00 0.877D+00
 Coeff:      0.254D-03-0.101D-02-0.217D-01-0.251D-01 0.170D+00 0.877D+00
 Gap=     0.508 Goal=   None    Shift=    0.000
 RMSDP=7.18D-06 MaxDP=1.43D-04 DE=-3.49D-06 OVMax= 1.26D-04

 Initial convergence to 1.0D-05 achieved.  Increase integral accuracy.
 Cycle   7  Pass 1  IDiag  1:
 E= -178.887825567225     Delta-E=       -0.000026759872 Rises=F Damp=F
 DIIS: error= 1.69D-05 at cycle   1 NSaved=   1.
 NSaved= 1 IEnMin= 1 EnMin= -178.887825567225     IErMin= 1 ErrMin= 1.69D-05
 ErrMax= 1.69D-05  0.00D+00 EMaxC= 1.00D-01 BMatC= 4.77D-08 BMatP= 4.77D-08
 IDIUse=1 WtCom= 1.00D+00 WtEn= 0.00D+00
 Coeff-Com:  0.100D+01
 Coeff:      0.100D+01
 Gap=     0.508 Goal=   None    Shift=    0.000
 RMSDP=7.18D-06 MaxDP=1.43D-04 DE=-2.68D-05 OVMax= 5.47D-05

 Cycle   8  Pass 1  IDiag  1:
 E= -178.887825609134     Delta-E=       -0.000000041909 Rises=F Damp=F
 DIIS: error= 5.57D-06 at cycle   2 NSaved=   2.
 NSaved= 2 IEnMin= 2 EnMin= -178.887825609134     IErMin= 2 ErrMin= 5.57D-06
 ErrMax= 5.57D-06  0.00D+00 EMaxC= 1.00D-01 BMatC= 3.21D-09 BMatP= 4.77D-08
 IDIUse=1 WtCom= 1.00D+00 WtEn= 0.00D+00
 Coeff-Com:  0.697D-01 0.930D+00
 Coeff:      0.697D-01 0.930D+00
 Gap=     0.508 Goal=   None    Shift=    0.000
 RMSDP=1.25D-06 MaxDP=2.99D-05 DE=-4.19D-08 OVMax= 2.61D-05

 Cycle   9  Pass 1  IDiag  1:
 E= -178.887825611774     Delta-E=       -0.000000002640 Rises=F Damp=F
 DIIS: error= 3.48D-06 at cycle   3 NSaved=   3.
 NSaved= 3 IEnMin= 3 EnMin= -178.887825611774     IErMin= 3 ErrMin= 3.48D-06
 ErrMax= 3.48D-06  0.00D+00 EMaxC= 1.00D-01 BMatC= 1.23D-09 BMatP= 3.21D-09
 IDIUse=1 WtCom= 1.00D+00 WtEn= 0.00D+00
 Coeff-Com: -0.430D-01 0.364D+00 0.679D+00
 Coeff:     -0.430D-01 0.364D+00 0.679D+00
 Gap=     0.508 Goal=   None    Shift=    0.000
 RMSDP=4.97D-07 MaxDP=1.40D-05 DE=-2.64D-09 OVMax= 9.98D-06

 Cycle  10  Pass 1  IDiag  1:
 E= -178.887825612981     Delta-E=       -0.000000001207 Rises=F Damp=F
 DIIS: error= 3.15D-07 at cycle   4 NSaved=   4.
 NSaved= 4 IEnMin= 4 EnMin= -178.887825612981     IErMin= 4 ErrMin= 3.15D-07
 ErrMax= 3.15D-07  0.00D+00 EMaxC= 1.00D-01 BMatC= 1.70D-11 BMatP= 1.23D-09
 IDIUse=1 WtCom= 1.00D+00 WtEn= 0.00D+00
 Coeff-Com: -0.985D-02 0.353D-01 0.101D+00 0.874D+00
 Coeff:     -0.985D-02 0.353D-01 0.101D+00 0.874D+00
 Gap=     0.508 Goal=   None    Shift=    0.000
 RMSDP=7.62D-08 MaxDP=1.25D-06 DE=-1.21D-09 OVMax= 1.87D-06

 Cycle  11  Pass 1  IDiag  1:
 E= -178.887825613005     Delta-E=       -0.000000000024 Rises=F Damp=F
 DIIS: error= 2.99D-07 at cycle   5 NSaved=   5.
 NSaved= 5 IEnMin= 5 EnMin= -178.887825613005     IErMin= 5 ErrMin= 2.99D-07
 ErrMax= 2.99D-07  0.00D+00 EMaxC= 1.00D-01 BMatC= 8.19D-12 BMatP= 1.70D-11
 IDIUse=1 WtCom= 1.00D+00 WtEn= 0.00D+00
 Coeff-Com:  0.543D-03-0.245D-01-0.327D-01 0.409D+00 0.647D+00
 Coeff:      0.543D-03-0.245D-01-0.327D-01 0.409D+00 0.647D+00
 Gap=     0.508 Goal=   None    Shift=    0.000
 RMSDP=2.88D-08 MaxDP=6.92D-07 DE=-2.36D-11 OVMax= 6.82D-07

 Cycle  12  Pass 1  IDiag  1:
 E= -178.887825613006     Delta-E=       -0.000000000002 Rises=F Damp=F
 DIIS: error= 3.67D-08 at cycle   6 NSaved=   6.
 NSaved= 6 IEnMin= 6 EnMin= -178.887825613006     IErMin= 6 ErrMin= 3.67D-08
 ErrMax= 3.67D-08  0.00D+00 EMaxC= 1.00D-01 BMatC= 2.76D-13 BMatP= 8.19D-12
 IDIUse=1 WtCom= 1.00D+00 WtEn= 0.00D+00
 Coeff-Com:  0.121D-02-0.766D-02-0.191D-01-0.610D-01 0.997D-01 0.987D+00
 Coeff:      0.121D-02-0.766D-02-0.191D-01-0.610D-01 0.997D-01 0.987D+00
 Gap=     0.508 Goal=   None    Shift=    0.000
 RMSDP=1.11D-08 MaxDP=1.44D-07 DE=-1.71D-12 OVMax= 3.72D-07

 Cycle  13  Pass 1  IDiag  1:
 E= -178.887825613014     Delta-E=       -0.000000000008 Rises=F Damp=F
 DIIS: error= 5.27D-09 at cycle   7 NSaved=   7.
 NSaved= 7 IEnMin= 7 EnMin= -178.887825613014     IErMin= 7 ErrMin= 5.27D-09
 ErrMax= 5.27D-09  0.00D+00 EMaxC= 1.00D-01 BMatC= 6.28D-15 BMatP= 2.76D-13
 IDIUse=1 WtCom= 1.00D+00 WtEn= 0.00D+00
 Coeff-Com:  0.193D-03-0.749D-03-0.239D-02-0.186D-01-0.292D-02 0.148D+00
 Coeff-Com:  0.876D+00
 Coeff:      0.193D-03-0.749D-03-0.239D-02-0.186D-01-0.292D-02 0.148D+00
 Coeff:      0.876D+00
 Gap=     0.508 Goal=   None    Shift=    0.000
 RMSDP=2.14D-09 MaxDP=3.89D-08 DE=-8.19D-12 OVMax= 5.25D-08

 SCF Done:  E(RwB97XD) =  -178.887825613     A.U. after   13 cycles
            NFock= 13  Conv=0.21D-08     -V/T= 2.0095
 KE= 1.772044178329D+02 PE=-5.789757386632D+02 EE= 1.435799562806D+02
 Leave Link  502 at Sat Feb 12 22:22:45 2022, MaxMem=  8589934592 cpu:              18.8 elap:               2.5
 (Enter /home/rr/g16/l801.exe)
 DoSCS=F DFT=T ScalE2(SS,OS)=  1.000000  1.000000
 ExpMin= 6.71D-02 ExpMax= 2.89D+03 ExpMxC= 4.35D+02 IAcc=3 IRadAn=         5 AccDes= 0.00D+00
 HarFok:  IExCor=  205 AccDes= 0.00D+00 IRadAn=         5 IDoV=-2 UseB2=F ITyADJ=14
 ICtDFT= 12500011 ScaDFX=  1.000000  1.000000  1.000000  1.000000
 Largest valence mixing into a core orbital is  7.47D-05
 Largest core mixing into a valence orbital is  2.22D-05
 Range of M.O.s used for correlation:     4   103
 NBasis=   103 NAE=    13 NBE=    13 NFC=     3 NFV=     0
 NROrb=    100 NOA=    10 NOB=    10 NVA=    90 NVB=    90

 **** Warning!!: The largest alpha MO coefficient is  0.23337807D+02

 Leave Link  801 at Sat Feb 12 22:22:45 2022, MaxMem=  8589934592 cpu:               0.6 elap:               0.1
 (Enter /home/rr/g16/l914.exe)
 RHF ground state
 Keep R1, R2, and R3 ints in memory in symmetry-blocked form, NReq=894044380.
 FoFCou: FMM=F IPFlag=           0 FMFlag=           0 FMFlg1=           0
         NFxFlg=           0 DoJE=F BraDBF=F KetDBF=F FulRan=T
         wScrn=  0.000000 ICntrl=       600 IOpCl=  0 I1Cent=           0 NGrid=           0
         NMat0=    1 NMatS0=   5356 NMatT0=    0 NMatD0=    1 NMtDS0=    0 NMtDT0=    0
 Petite list used in FoFCou.
 MDV=  8589934592 DFT=T DoStab=F Mixed=T DoRPA=T DoScal=F NonHer=T
 Making orbital integer symmetry assigments:
 Orbital symmetries:
       Occupied  (A') (A') (A') (A') (A') (A') (A') (A") (A') (A")
                 (A') (A') (A")
       Virtual   (A') (A') (A') (A") (A') (A') (A") (A') (A") (A')
                 (A") (A') (A') (A") (A') (A') (A') (A") (A') (A')
                 (A") (A') (A") (A') (A") (A') (A") (A') (A') (A")
                 (A") (A') (A") (A') (A') (A') (A") (A') (A') (A")
                 (A') (A') (A") (A') (A') (A') (A") (A') (A') (A")
                 (A') (A') (A") (A') (A") (A') (A") (A') (A") (A')
                 (A") (A") (A') (A") (A') (A') (A') (A") (A") (A')
                 (A') (A") (A') (A') (A") (A') (A') (A') (A") (A')
                 (A') (A') (A") (A') (A") (A') (A") (A") (A') (A')
   900 initial guesses have been made.
 Convergence on wavefunction:    0.001000000000000
 Davidson Disk Diagonalization:  ConvIn= 1.00D-03 SkipCon=T Conv= 1.00D-03.
 Max sub-space:  5400 roots to seek:  1800 dimension of matrix:         1800
 *** WARNING: Number of orthogonal guesses is          900
 Iteration     1 Dimension   900 NMult     0 NNew    900
 CISAX will form   900 AO SS matrices at one time.
 NMat=   900 NSing=   900 JSym2X=-1.
 New state      7 was old state      9
 New state      8 was old state      7
 New state      9 was old state     10
 New state     10 was old state      8
 New state     12 was old state     13
 New state     13 was old state     14
 New state     14 was old state     12
 New state     16 was old state     17
 New state     17 was old state     16
 New state     19 was old state     20
 New state     20 was old state     23
 New state     21 was old state     19
 New state     22 was old state     24
 New state     23 was old state     21
 New state     24 was old state     26
 New state     25 was old state     22
 New state     26 was old state     29
 New state     27 was old state     28
 New state     28 was old state     27
 New state     29 was old state     30
 New state     30 was old state     25
 New state     31 was old state     35
 New state     33 was old state     39
 New state     34 was old state     38
 New state     35 was old state     36
 New state     36 was old state     34
 New state     37 was old state     33
 New state     38 was old state     37
 New state     39 was old state     31
 New state     40 was old state     46
 New state     41 was old state     42
 New state     42 was old state     43
 New state     43 was old state     40
 New state     44 was old state     45
 New state     45 was old state     44
 New state     46 was old state     41
 New state     48 was old state     50
 New state     50 was old state     48
 New state     51 was old state     54
 New state     52 was old state     64
 New state     53 was old state     56
 New state     54 was old state     55
 New state     55 was old state     57
 New state     56 was old state     51
 New state     57 was old state     58
 New state     58 was old state     53
 New state     59 was old state     60
 New state     60 was old state     61
 New state     61 was old state     59
 New state     63 was old state     65
 New state     64 was old state     66
 New state     65 was old state     63
 New state     66 was old state     68
 New state     67 was old state     52
 New state     68 was old state     67
 New state     69 was old state     72
 New state     70 was old state     71
 New state     71 was old state     69
 New state     72 was old state     70
 New state     74 was old state     83
 New state     75 was old state     74
 New state     76 was old state     79
 New state     78 was old state     75
 New state     79 was old state     80
 New state     80 was old state     82
 New state     81 was old state     88
 New state     82 was old state     81
 New state     83 was old state     87
 New state     84 was old state     86
 New state     85 was old state     78
 New state     86 was old state     84
 New state     87 was old state     85
 New state     88 was old state     76
 New state     90 was old state     97
 New state     91 was old state     90
 New state     92 was old state     94
 New state     93 was old state     91
 New state     94 was old state     99
 New state     95 was old state    101
 New state     96 was old state    105
 New state     97 was old state     92
 New state     98 was old state     96
 New state     99 was old state    107
 New state    100 was old state     93
 New state    101 was old state    100
 New state    103 was old state     95
 New state    105 was old state     98
 New state    106 was old state    109
 New state    107 was old state    110
 New state    108 was old state    103
 New state    109 was old state    113
 New state    110 was old state    106
 New state    113 was old state    114
 New state    114 was old state    116
 New state    115 was old state    120
 New state    116 was old state    119
 New state    117 was old state    121
 New state    118 was old state    117
 New state    119 was old state    122
 New state    120 was old state    115
 New state    121 was old state    118
 New state    122 was old state    108
 New state    124 was old state    127
 New state    125 was old state    131
 New state    126 was old state    124
 New state    127 was old state    125
 New state    128 was old state    126
 New state    130 was old state    128
 New state    131 was old state    132
 New state    132 was old state    130
 New state    133 was old state    134
 New state    134 was old state    141
 New state    135 was old state    144
 New state    137 was old state    143
 New state    138 was old state    139
 New state    139 was old state    135
 New state    140 was old state    133
 New state    141 was old state    137
 New state    143 was old state    140
 New state    144 was old state    147
 New state    147 was old state    151
 New state    148 was old state    138
 New state    149 was old state    150
 New state    150 was old state    155
 New state    151 was old state    152
 New state    152 was old state    153
 New state    153 was old state    157
 New state    154 was old state    149
 New state    155 was old state    167
 New state    156 was old state    170
 New state    157 was old state    160
 New state    158 was old state    163
 New state    159 was old state    156
 New state    160 was old state    162
 New state    161 was old state    159
 New state    162 was old state    161
 New state    163 was old state    158
 New state    164 was old state    165
 New state    165 was old state    168
 New state    166 was old state    169
 New state    167 was old state    172
 New state    168 was old state    175
 New state    169 was old state    166
 New state    170 was old state    171
 New state    171 was old state    173
 New state    172 was old state    164
 New state    173 was old state    174
 New state    174 was old state    188
 New state    175 was old state    179
 New state    176 was old state    178
 New state    177 was old state    176
 New state    178 was old state    187
 New state    179 was old state    180
 New state    180 was old state    182
 New state    182 was old state    189
 New state    183 was old state    177
 New state    185 was old state    183
 New state    186 was old state    185
 New state    187 was old state    195
 New state    188 was old state    190
 New state    189 was old state    197
 New state    190 was old state    192
 New state    191 was old state    200
 New state    192 was old state    186
 New state    193 was old state    191
 New state    194 was old state    201
 New state    195 was old state    194
 New state    196 was old state    193
 New state    197 was old state    206
 New state    198 was old state    219
 New state    199 was old state    196
 New state    200 was old state    198
 New state    201 was old state    203
 New state    202 was old state    204
 New state    203 was old state    208
 New state    204 was old state    199
 New state    205 was old state    202
 New state    206 was old state    214
 New state    207 was old state    205
 New state    208 was old state    218
 New state    209 was old state    207
 New state    210 was old state    213
 New state    211 was old state    210
 New state    212 was old state    226
 New state    213 was old state    216
 New state    214 was old state    215
 New state    215 was old state    224
 New state    216 was old state    222
 New state    218 was old state    225
 New state    219 was old state    209
 New state    220 was old state    211
 New state    221 was old state    220
 New state    222 was old state    212
 New state    223 was old state    231
 New state    224 was old state    221
 New state    225 was old state    234
 New state    226 was old state    233
 New state    227 was old state    223
 New state    228 was old state    227
 New state    229 was old state    239
 New state    230 was old state    228
 New state    231 was old state    230
 New state    232 was old state    237
 New state    233 was old state    236
 New state    234 was old state    229
 New state    235 was old state    240
 New state    236 was old state    244
 New state    237 was old state    238
 New state    238 was old state    232
 New state    239 was old state    241
 No map to state    240
 New state    241 was old state    235
 New state    244 was old state    246
 New state    245 was old state    247
 New state    246 was old state    251
 New state    247 was old state    250
 New state    248 was old state    256
 New state    249 was old state    255
 New state    250 was old state    252
 New state    251 was old state    248
 New state    252 was old state    254
 New state    253 was old state    249
 New state    254 was old state    260
 New state    255 was old state    257
 New state    256 was old state    259
 New state    257 was old state    245
 New state    258 was old state    253
 New state    259 was old state    269
 New state    260 was old state    258
 New state    261 was old state    265
 New state    263 was old state    266
 New state    265 was old state    263
 New state    266 was old state    267
 New state    267 was old state    261
 New state    269 was old state    271
 New state    270 was old state    273
 New state    271 was old state    278
 New state    272 was old state    270
 New state    273 was old state    275
 New state    275 was old state    272
 New state    276 was old state    277
 New state    277 was old state    280
 New state    278 was old state    282
 New state    279 was old state    276
 New state    280 was old state    281
 New state    281 was old state    288
 New state    282 was old state    284
 New state    284 was old state    285
 New state    285 was old state    289
 New state    286 was old state    279
 New state    287 was old state    286
 New state    288 was old state    290
 New state    289 was old state    287
 New state    290 was old state    305
 New state    291 was old state    296
 New state    292 was old state    291
 New state    293 was old state    292
 New state    294 was old state    293
 New state    295 was old state    300
 New state    296 was old state    294
 New state    297 was old state    304
 New state    298 was old state    301
 New state    299 was old state    295
 New state    300 was old state    298
 New state    301 was old state    303
 New state    302 was old state    307
 New state    303 was old state    306
 New state    304 was old state    311
 New state    305 was old state    299
 New state    306 was old state    302
 New state    307 was old state    308
 New state    308 was old state    314
 New state    309 was old state    310
 New state    310 was old state    315
 New state    311 was old state    313
 New state    312 was old state    309
 New state    313 was old state    317
 New state    314 was old state    328
 New state    315 was old state    312
 New state    316 was old state    326
 New state    317 was old state    323
 New state    318 was old state    316
 New state    319 was old state    318
 New state    321 was old state    319
 New state    322 was old state    321
 New state    323 was old state    324
 New state    324 was old state    331
 New state    325 was old state    327
 New state    326 was old state    325
 New state    327 was old state    322
 New state    328 was old state    335
 New state    330 was old state    332
 New state    331 was old state    340
 New state    332 was old state    330
 New state    333 was old state    334
 New state    334 was old state    337
 New state    335 was old state    345
 New state    336 was old state    338
 New state    337 was old state    333
 New state    338 was old state    363
 New state    339 was old state    336
 New state    340 was old state    339
 New state    343 was old state    346
 New state    344 was old state    348
 New state    345 was old state    347
 New state    346 was old state    351
 New state    347 was old state    343
 New state    348 was old state    344
 New state    351 was old state    352
 New state    352 was old state    357
 New state    353 was old state    360
 New state    354 was old state    356
 New state    355 was old state    370
 New state    356 was old state    355
 New state    357 was old state    362
 New state    358 was old state    354
 New state    359 was old state    361
 New state    360 was old state    364
 New state    361 was old state    353
 New state    362 was old state    375
 New state    363 was old state    365
 New state    364 was old state    371
 New state    365 was old state    359
 New state    366 was old state    358
 New state    367 was old state    368
 New state    368 was old state    373
 New state    369 was old state    367
 New state    370 was old state    369
 New state    371 was old state    376
 New state    372 was old state    383
 New state    373 was old state    374
 New state    374 was old state    372
 New state    375 was old state    380
 New state    376 was old state    366
 New state    377 was old state    381
 New state    378 was old state    382
 New state    379 was old state    377
 New state    380 was old state    385
 New state    381 was old state    387
 New state    382 was old state    378
 New state    383 was old state    389
 New state    384 was old state    379
 New state    385 was old state    388
 New state    386 was old state    393
 New state    387 was old state    396
 New state    388 was old state    391
 New state    389 was old state    390
 New state    390 was old state    384
 New state    391 was old state    394
 New state    393 was old state    416
 New state    394 was old state    404
 New state    395 was old state    399
 New state    396 was old state    395
 New state    397 was old state    411
 New state    398 was old state    386
 New state    399 was old state    407
 New state    400 was old state    405
 New state    401 was old state    403
 New state    402 was old state    410
 New state    403 was old state    398
 New state    404 was old state    417
 New state    405 was old state    412
 New state    406 was old state    397
 New state    407 was old state    400
 New state    408 was old state    413
 New state    409 was old state    402
 New state    410 was old state    406
 New state    411 was old state    409
 New state    412 was old state    418
 New state    413 was old state    401
 New state    415 was old state    419
 New state    416 was old state    426
 New state    417 was old state    415
 New state    418 was old state    408
 New state    419 was old state    425
 New state    420 was old state    423
 New state    422 was old state    429
 New state    423 was old state    427
 New state    424 was old state    428
 New state    425 was old state    420
 New state    426 was old state    431
 New state    427 was old state    422
 New state    428 was old state    430
 New state    429 was old state    424
 New state    430 was old state    432
 New state    431 was old state    435
 New state    432 was old state    440
 New state    433 was old state    441
 New state    435 was old state    442
 New state    436 was old state    437
 New state    437 was old state    433
 New state    438 was old state    439
 New state    439 was old state    438
 New state    440 was old state    444
 New state    441 was old state    450
 New state    442 was old state    443
 New state    443 was old state    436
 New state    444 was old state    446
 New state    445 was old state    448
 New state    446 was old state    453
 New state    448 was old state    445
 New state    449 was old state    456
 New state    450 was old state    452
 New state    452 was old state    459
 New state    453 was old state    449
 New state    454 was old state    469
 New state    455 was old state    458
 New state    456 was old state    457
 New state    457 was old state    460
 New state    458 was old state    455
 New state    459 was old state    462
 New state    460 was old state    464
 New state    461 was old state    454
 New state    462 was old state    467
 New state    463 was old state    468
 New state    464 was old state    461
 New state    465 was old state    463
 New state    466 was old state    473
 New state    467 was old state    471
 New state    468 was old state    475
 New state    469 was old state    465
 New state    470 was old state    483
 New state    471 was old state    478
 New state    472 was old state    466
 New state    473 was old state    472
 New state    474 was old state    470
 No map to state    475
 New state    476 was old state    479
 New state    478 was old state    481
 New state    479 was old state    474
 New state    480 was old state    476
 New state    481 was old state    485
 New state    482 was old state    484
 New state    483 was old state    498
 New state    484 was old state    489
 New state    485 was old state    487
 New state    487 was old state    490
 New state    488 was old state    491
 New state    489 was old state    494
 New state    490 was old state    482
 New state    491 was old state    492
 New state    492 was old state    496
 New state    493 was old state    480
 New state    494 was old state    493
 New state    495 was old state    497
 New state    496 was old state    495
 New state    497 was old state    501
 New state    498 was old state    502
 New state    499 was old state    488
 New state    501 was old state    503
 New state    502 was old state    506
 New state    503 was old state    499
 New state    504 was old state    507
 New state    506 was old state    512
 New state    507 was old state    510
 New state    509 was old state    504
 New state    510 was old state    513
 New state    512 was old state    517
 New state    513 was old state    516
 New state    514 was old state    509
 New state    515 was old state    518
 New state    516 was old state    519
 New state    517 was old state    523
 New state    518 was old state    514
 New state    519 was old state    522
 New state    520 was old state    515
 New state    521 was old state    525
 New state    522 was old state    524
 New state    523 was old state    526
 New state    524 was old state    520
 New state    525 was old state    528
 New state    526 was old state    521
 New state    528 was old state    532
 New state    529 was old state    530
 New state    530 was old state    533
 New state    531 was old state    529
 New state    532 was old state    531
 New state    533 was old state    534
 New state    534 was old state    535
 No map to state    535
 New state    539 was old state    541
 New state    540 was old state    539
 New state    541 was old state    542
 New state    542 was old state    543
 New state    543 was old state    540
 New state    545 was old state    546
 New state    546 was old state    547
 New state    547 was old state    548
 New state    548 was old state    545
 New state    549 was old state    550
 New state    550 was old state    549
 New state    551 was old state    553
 New state    552 was old state    555
 New state    553 was old state    551
 New state    554 was old state    552
 New state    555 was old state    556
 New state    556 was old state    554
 New state    557 was old state    558
 New state    558 was old state    566
 New state    559 was old state    557
 New state    560 was old state    561
 New state    561 was old state    567
 New state    562 was old state    559
 New state    563 was old state    564
 New state    564 was old state    560
 New state    566 was old state    562
 New state    567 was old state    563
 New state    568 was old state    570
 New state    570 was old state    572
 New state    571 was old state    574
 New state    572 was old state    573
 New state    573 was old state    568
 New state    574 was old state    571
 New state    575 was old state    578
 New state    576 was old state    575
 New state    577 was old state    576
 New state    578 was old state    580
 New state    580 was old state    577
 New state    581 was old state    583
 New state    583 was old state    586
 New state    586 was old state    590
 New state    587 was old state    589
 New state    588 was old state    591
 New state    589 was old state    581
 New state    590 was old state    587
 New state    591 was old state    588
 New state    592 was old state    599
 New state    593 was old state    596
 New state    594 was old state    597
 New state    596 was old state    598
 New state    597 was old state    592
 New state    598 was old state    601
 New state    599 was old state    593
 New state    601 was old state    607
 New state    602 was old state    594
 New state    603 was old state    604
 New state    604 was old state    606
 New state    606 was old state    603
 New state    607 was old state    602
 New state    609 was old state    610
 New state    610 was old state    609
 New state    611 was old state    612
 New state    612 was old state    611
 New state    617 was old state    619
 New state    618 was old state    620
 New state    619 was old state    626
 New state    620 was old state    623
 New state    621 was old state    625
 New state    622 was old state    617
 New state    623 was old state    629
 New state    624 was old state    621
 New state    625 was old state    618
 New state    626 was old state    631
 New state    627 was old state    630
 New state    628 was old state    624
 New state    629 was old state    622
 New state    630 was old state    628
 New state    631 was old state    633
 New state    633 was old state    638
 New state    634 was old state    627
 New state    636 was old state    634
 New state    637 was old state    642
 New state    638 was old state    641
 New state    639 was old state    637
 New state    640 was old state    636
 New state    641 was old state    644
 New state    642 was old state    639
 New state    644 was old state    640
 New state    646 was old state    647
 New state    647 was old state    651
 New state    649 was old state    646
 New state    651 was old state    652
 New state    652 was old state    649
 New state    653 was old state    654
 New state    654 was old state    658
 New state    655 was old state    657
 New state    656 was old state    655
 New state    657 was old state    656
 New state    658 was old state    653
 New state    659 was old state    661
 New state    660 was old state    659
 New state    661 was old state    662
 New state    662 was old state    660
 New state    663 was old state    667
 New state    664 was old state    663
 New state    665 was old state    666
 New state    666 was old state    664
 New state    667 was old state    672
 New state    668 was old state    665
 New state    669 was old state    670
 New state    670 was old state    668
 New state    672 was old state    679
 New state    673 was old state    674
 New state    674 was old state    675
 New state    675 was old state    669
 New state    679 was old state    680
 New state    680 was old state    681
 New state    681 was old state    683
 New state    683 was old state    684
 New state    684 was old state    685
 New state    685 was old state    686
 New state    686 was old state    687
 New state    687 was old state    688
 New state    688 was old state    689
 New state    689 was old state    690
 New state    690 was old state    691
 New state    691 was old state    693
 New state    693 was old state    695
 New state    695 was old state    697
 New state    697 was old state    700
 New state    699 was old state    701
 New state    700 was old state    699
 New state    701 was old state    702
 New state    702 was old state    703
 New state    703 was old state    704
 New state    704 was old state    710
 New state    706 was old state    707
 New state    707 was old state    708
 New state    708 was old state    706
 New state    710 was old state    711
 New state    711 was old state    712
 New state    712 was old state    718
 New state    713 was old state    714
 New state    714 was old state    713
 New state    715 was old state    726
 New state    716 was old state    715
 New state    718 was old state    716
 New state    719 was old state    721
 New state    720 was old state    723
 New state    721 was old state    722
 New state    722 was old state    719
 New state    723 was old state    733
 New state    725 was old state    720
 New state    726 was old state    725
 New state    727 was old state    728
 New state    728 was old state    727
 New state    729 was old state    730
 New state    730 was old state    731
 New state    731 was old state    734
 New state    733 was old state    729
 New state    734 was old state    739
 New state    735 was old state    740
 New state    739 was old state    744
 New state    740 was old state    741
 New state    741 was old state    742
 New state    742 was old state    743
 New state    743 was old state    735
 New state    744 was old state    747
 New state    747 was old state    748
 New state    748 was old state    749
 New state    749 was old state    750
 New state    750 was old state    752
 New state    752 was old state    753
 New state    753 was old state    755
 New state    754 was old state    756
 New state    755 was old state    757
 New state    756 was old state    754
 New state    757 was old state    758
 New state    758 was old state    759
 New state    759 was old state    762
 New state    760 was old state    761
 New state    761 was old state    764
 New state    762 was old state    760
 New state    764 was old state    767
 New state    766 was old state    768
 New state    767 was old state    766
 New state    768 was old state    771
 New state    771 was old state    778
 New state    773 was old state    776
 New state    774 was old state    773
 New state    775 was old state    774
 New state    776 was old state    775
 New state    778 was old state    779
 New state    779 was old state    780
 No map to state    780
 New state    781 was old state    783
 New state    783 was old state    781
 New state    784 was old state    785
 New state    785 was old state    786
 New state    786 was old state    784
 New state    789 was old state    790
 New state    790 was old state    789
 New state    793 was old state    794
 New state    794 was old state    793
 New state    802 was old state    803
 New state    803 was old state    802
 New state    806 was old state    808
 New state    807 was old state    810
 New state    808 was old state    807
 New state    810 was old state    806
 New state    812 was old state    816
 New state    813 was old state    814
 New state    814 was old state    812
 New state    815 was old state    813
 New state    816 was old state    815
 New state    817 was old state    818
 New state    818 was old state    817
 New state    821 was old state    822
 New state    822 was old state    821
 New state    826 was old state    829
 New state    828 was old state    826
 New state    829 was old state    828
 New state    833 was old state    834
 New state    834 was old state    833
 New state    837 was old state    838
 New state    838 was old state    841
 New state    839 was old state    843
 New state    840 was old state    839
 New state    841 was old state    837
 New state    842 was old state    840
 New state    843 was old state    844
 New state    844 was old state    842
 New state    845 was old state    854
 New state    846 was old state    845
 New state    847 was old state    852
 New state    848 was old state    855
 New state    849 was old state    848
 New state    850 was old state    846
 New state    851 was old state    849
 New state    852 was old state    853
 New state    853 was old state    850
 New state    854 was old state    847
 New state    855 was old state    851
 New state    856 was old state    859
 New state    859 was old state    856
 New state    860 was old state    866
 New state    861 was old state    867
 New state    862 was old state    863
 New state    863 was old state    865
 New state    865 was old state    861
 New state    866 was old state    868
 New state    867 was old state    862
 New state    868 was old state    860
 New state    869 was old state    871
 New state    870 was old state    873
 New state    871 was old state    870
 New state    872 was old state    869
 New state    873 was old state    876
 New state    874 was old state    875
 New state    875 was old state    872
 New state    876 was old state    874
 New state    889 was old state    890
 New state    890 was old state    889
 New state    897 was old state    898
 New state    898 was old state    899
 New state    899 was old state    897
 Excitation Energies [eV] at current iteration:
 Root      1 :     9.254800541362069
 Root      2 :     9.676994242966312
 Root      3 :    10.090598302662490
 Root      4 :    10.424108762616170
 Root      5 :    10.519675141419280
 Root      6 :    10.832742750142660
 Root      7 :    10.904014169779520
 Root      8 :    10.924382709349950
 Root      9 :    11.154519921110160
 Root     10 :    11.244192464340780
 Root     11 :    11.607237172082500
 Root     12 :    11.812807913204200
 Root     13 :    11.989224179363880
 Root     14 :    11.998546704973840
 Root     15 :    12.048279528338470
 Root     16 :    12.154579153443830
 Root     17 :    12.210643685465970
 Root     18 :    12.224674999952050
 Root     19 :    12.543675814750260
 Root     20 :    12.582586183589760
 Root     21 :    12.605704978575190
 Root     22 :    12.675645362686690
 Root     23 :    12.846048693449050
 Root     24 :    12.865749589136520
 Root     25 :    13.053773331869380
 Root     26 :    13.104003412812930
 Root     27 :    13.151387290273200
 Root     28 :    13.254106585659340
 Root     29 :    13.305161585181400
 Root     30 :    13.397887580678480
 Root     31 :    13.472668499236840
 Root     32 :    13.475296738498920
 Root     33 :    13.615014320825660
 Root     34 :    13.644820642782380
 Root     35 :    13.734194238133690
 Root     36 :    13.762043343621900
 Root     37 :    13.903411187592290
 Root     38 :    14.018338450159460
 Root     39 :    14.066374891874030
 Root     40 :    14.077351925739060
 Root     41 :    14.108129745153620
 Root     42 :    14.222229633930530
 Root     43 :    14.386909943499720
 Root     44 :    14.493106627601160
 Root     45 :    14.493835640771600
 Root     46 :    14.564442326959210
 Root     47 :    14.594179788579940
 Root     48 :    14.797540565024650
 Root     49 :    14.887149705408280
 Root     50 :    14.930328296809830
 Root     51 :    14.970258052619440
 Root     52 :    15.093905372001410
 Root     53 :    15.210813026722510
 Root     54 :    15.229052926719920
 Root     55 :    15.317710941435910
 Root     56 :    15.336852265428750
 Root     57 :    15.338838958209810
 Root     58 :    15.434447568227270
 Root     59 :    15.488487074446020
 Root     60 :    15.518724114362410
 Root     61 :    15.558842025585720
 Root     62 :    15.599837224490430
 Root     63 :    15.673670006806820
 Root     64 :    15.682365935718360
 Root     65 :    15.818058788969350
 Root     66 :    15.821714752632890
 Root     67 :    15.914718514425970
 Root     68 :    15.943685941496940
 Root     69 :    16.064147757612510
 Root     70 :    16.137401895789660
 Root     71 :    16.362637150042500
 Root     72 :    16.396812544198160
 Root     73 :    16.473909139282340
 Root     74 :    16.575861932426230
 Root     75 :    16.642049258551470
 Root     76 :    16.655689960922590
 Root     77 :    16.688679802405640
 Root     78 :    16.754243462025120
 Root     79 :    16.755584774654420
 Root     80 :    16.831821998545910
 Root     81 :    16.897403438763160
 Root     82 :    16.900472694626580
 Root     83 :    16.931858038883760
 Root     84 :    16.989269586541760
 Root     85 :    16.998042185147530
 Root     86 :    17.055386920254050
 Root     87 :    17.114898121942160
 Root     88 :    17.178450858539550
 Root     89 :    17.183225035751980
 Root     90 :    17.450227117776240
 Root     91 :    17.478256125207460
 Root     92 :    17.487871124741040
 Root     93 :    17.609312157603420
 Root     94 :    17.621800537268070
 Root     95 :    17.776386432309170
 Root     96 :    17.788381615636550
 Root     97 :    17.848140917031570
 Root     98 :    17.859064448724470
 Root     99 :    17.962805614470890
 Root    100 :    17.986855728667220
 Root    101 :    18.014521636505670
 Root    102 :    18.054763196996820
 Root    103 :    18.065344012161660
 Root    104 :    18.084085323111310
 Root    105 :    18.089358210172440
 Root    106 :    18.177165804470810
 Root    107 :    18.230375746225340
 Root    108 :    18.334657057497100
 Root    109 :    18.348847501782480
 Root    110 :    18.432720910278770
 Root    111 :    18.441127676434700
 Root    112 :    18.469221885640670
 Root    113 :    18.520697086313020
 Root    114 :    18.539895504361770
 Root    115 :    18.574848836723330
 Root    116 :    18.610031157736220
 Root    117 :    18.661461593642260
 Root    118 :    18.671291222996500
 Root    119 :    18.680736738054500
 Root    120 :    18.710642080668330
 Root    121 :    18.783413956081700
 Root    122 :    18.828292653378360
 Root    123 :    18.968751066262650
 Root    124 :    19.042002495084790
 Root    125 :    19.127826086966480
 Root    126 :    19.134838748725510
 Root    127 :    19.162952715141960
 Root    128 :    19.255148145130110
 Root    129 :    19.366954761071510
 Root    130 :    19.433321809703230
 Root    131 :    19.460935542802810
 Root    132 :    19.525321643709470
 Root    133 :    19.540443146642310
 Root    134 :    19.607274282751730
 Root    135 :    19.678108903888080
 Root    136 :    19.787095092738930
 Root    137 :    19.787475769896850
 Root    138 :    19.815871425982320
 Root    139 :    19.822229051184190
 Root    140 :    19.840249916853850
 Root    141 :    19.894386330638400
 Root    142 :    19.970415583757930
 Root    143 :    19.973965070728810
 Root    144 :    20.038500793993300
 Root    145 :    20.064800467143030
 Root    146 :    20.066206339785980
 Root    147 :    20.132264150290170
 Root    148 :    20.160587456218990
 Root    149 :    20.274644547870730
 Root    150 :    20.327825497584580
 Root    151 :    20.394643994909430
 Root    152 :    20.406832110896870
 Root    153 :    20.489575518525510
 Root    154 :    20.504133408462380
 Root    155 :    20.587149378989280
 Root    156 :    20.624687335345940
 Root    157 :    20.642195870415440
 Root    158 :    20.800078056407640
 Root    159 :    20.812791944337000
 Root    160 :    20.844824515501240
 Root    161 :    20.868841212858650
 Root    162 :    20.915634827834090
 Root    163 :    20.968449327681360
 Root    164 :    21.037475009685040
 Root    165 :    21.055488972512240
 Root    166 :    21.191495810494170
 Root    167 :    21.274437842117440
 Root    168 :    21.301982870117540
 Root    169 :    21.342389737673380
 Root    170 :    21.360875057478160
 Root    171 :    21.388548955398310
 Root    172 :    21.410658097800680
 Root    173 :    21.417274770030130
 Root    174 :    21.441100931522210
 Root    175 :    21.542406814609340
 Root    176 :    21.546180495924710
 Root    177 :    21.574649567982040
 Root    178 :    21.644392216532240
 Root    179 :    21.720328777293620
 Root    180 :    21.727701848073480
 Root    181 :    21.768648170825190
 Root    182 :    21.817338663274490
 Root    183 :    21.854879473597280
 Root    184 :    21.915716554349490
 Root    185 :    21.930962412593960
 Root    186 :    21.992681654440170
 Root    187 :    21.999514992175870
 Root    188 :    22.009759275047810
 Root    189 :    22.121428975126940
 Root    190 :    22.210469837071000
 Root    191 :    22.266268166891630
 Root    192 :    22.325884949056490
 Root    193 :    22.359079163840240
 Root    194 :    22.367529554493740
 Root    195 :    22.449654850187840
 Root    196 :    22.482310988528260
 Root    197 :    22.525598162050810
 Root    198 :    22.570822511871230
 Root    199 :    22.621282737137660
 Root    200 :    22.668153687003200
 Root    201 :    22.705215735723810
 Root    202 :    22.760520310702670
 Root    203 :    22.774375503880460
 Root    204 :    22.795495109108060
 Root    205 :    22.811874258024580
 Root    206 :    22.884683875521400
 Root    207 :    22.919311718371810
 Root    208 :    22.948423337870420
 Root    209 :    22.993028908471970
 Root    210 :    23.017253091640820
 Root    211 :    23.060758714785520
 Root    212 :    23.132720242876380
 Root    213 :    23.164421206590880
 Root    214 :    23.166340703746220
 Root    215 :    23.219513914624010
 Root    216 :    23.234171757171090
 Root    217 :    23.270604360764460
 Root    218 :    23.345795001424520
 Root    219 :    23.350925452529520
 Root    220 :    23.379141870472440
 Root    221 :    23.387192280389560
 Root    222 :    23.423973325993320
 Root    223 :    23.449858080489790
 Root    224 :    23.459396996450710
 Root    225 :    23.562405218716050
 Root    226 :    23.563415026736700
 Root    227 :    23.615087695241510
 Root    228 :    23.661914863196320
 Root    229 :    23.724464350563300
 Root    230 :    23.734643788079250
 Root    231 :    23.831494637827420
 Root    232 :    23.859521852915810
 Root    233 :    23.876899813104820
 Root    234 :    23.892242055956300
 Root    235 :    23.922617124262630
 Root    236 :    23.977470458431090
 Root    237 :    24.050734611596500
 Root    238 :    24.088308128378200
 Root    239 :    24.091617675841400
 Root    240 :    24.174847540080540
 Root    241 :    24.213776055427890
 Root    242 :    24.272999493011950
 Root    243 :    24.322397453600410
 Root    244 :    24.359692978084050
 Root    245 :    24.412599786373530
 Root    246 :    24.548460068761890
 Root    247 :    24.597180261226810
 Root    248 :    24.656338530949440
 Root    249 :    24.668549726025840
 Root    250 :    24.800440844824550
 Root    251 :    24.842207699059020
 Root    252 :    24.907256616891870
 Root    253 :    24.950243652199240
 Root    254 :    25.021365237593470
 Root    255 :    25.066946532087770
 Root    256 :    25.086642897922310
 Root    257 :    25.114578208348250
 Root    258 :    25.171623000900040
 Root    259 :    25.326978053014630
 Root    260 :    25.327863443259300
 Root    261 :    25.448118825272360
 Root    262 :    25.461207725153320
 Root    263 :    25.545010640060360
 Root    264 :    25.572728169502760
 Root    265 :    25.610608183687750
 Root    266 :    25.639455551421370
 Root    267 :    25.671584930281510
 Root    268 :    25.734457592886980
 Root    269 :    25.822881086758380
 Root    270 :    25.895115505040270
 Root    271 :    25.910574432964870
 Root    272 :    25.964116136737540
 Root    273 :    26.024181909675840
 Root    274 :    26.091592498827560
 Root    275 :    26.093524413334790
 Root    276 :    26.298856912692270
 Root    277 :    26.314284372794790
 Root    278 :    26.316553574082970
 Root    279 :    26.460879019681760
 Root    280 :    26.619845453448700
 Root    281 :    26.641196177893120
 Root    282 :    26.674169144648090
 Root    283 :    26.677490781170420
 Root    284 :    26.695899816920850
 Root    285 :    26.776769339661960
 Root    286 :    26.779591608520920
 Root    287 :    26.862424106789860
 Root    288 :    26.880119028171210
 Root    289 :    27.014493425297070
 Root    290 :    27.079020024738790
 Root    291 :    27.085853520484740
 Root    292 :    27.147258505419180
 Root    293 :    27.297912160137930
 Root    294 :    27.348724716493510
 Root    295 :    27.438656186466770
 Root    296 :    27.458962771603360
 Root    297 :    27.507471329393840
 Root    298 :    27.581836962485430
 Root    299 :    27.651373376078350
 Root    300 :    27.756342277386000
 Root    301 :    27.843724026060900
 Root    302 :    27.863017878038010
 Root    303 :    27.871701465005730
 Root    304 :    27.982405077524610
 Root    305 :    28.000373248777900
 Root    306 :    28.077469310143270
 Root    307 :    28.307247365148950
 Root    308 :    28.311692143613550
 Root    309 :    28.414215796619060
 Root    310 :    28.497842480135740
 Root    311 :    28.657150434455960
 Root    312 :    28.687000622079130
 Root    313 :    28.756777922152780
 Root    314 :    28.818523348745600
 Root    315 :    28.845891492062830
 Root    316 :    29.170716044999680
 Root    317 :    29.403888908557810
 Root    318 :    29.412663926859530
 Root    319 :    29.659492270766240
 Root    320 :    29.743354710769410
 Root    321 :    29.789355644927420
 Root    322 :    29.877809498007430
 Root    323 :    29.937956006728480
 Root    324 :    29.976366005951280
 Root    325 :    30.036878593122510
 Root    326 :    30.114322475336380
 Root    327 :    30.121967490389260
 Root    328 :    30.155379591190590
 Root    329 :    30.214355430504170
 Root    330 :    30.304161472926630
 Root    331 :    30.359045367953780
 Root    332 :    30.378289166963600
 Root    333 :    30.788672998239840
 Root    334 :    30.825680589713510
 Root    335 :    30.937640331456590
 Root    336 :    30.993387672296590
 Root    337 :    31.022407201403350
 Root    338 :    31.081569931802530
 Root    339 :    31.123916420321310
 Root    340 :    31.179870280225210
 Root    341 :    31.234508023266590
 Root    342 :    31.257915950975570
 Root    343 :    31.325065835303690
 Root    344 :    31.483795534931680
 Root    345 :    31.601875331430080
 Root    346 :    31.684384703750460
 Root    347 :    31.736099050658100
 Root    348 :    31.741048585089140
 Root    349 :    31.904771251717090
 Root    350 :    31.999220167308340
 Root    351 :    32.030535737458640
 Root    352 :    32.111367067729280
 Root    353 :    32.178423780683850
 Root    354 :    32.317824431756250
 Root    355 :    32.342585942616720
 Root    356 :    32.563852860206200
 Root    357 :    32.657494726300410
 Root    358 :    32.749278143164910
 Root    359 :    32.859032456198540
 Root    360 :    32.875145287561260
 Root    361 :    32.963072355393860
 Root    362 :    32.981402474889340
 Root    363 :    33.039112127005590
 Root    364 :    33.105627438664730
 Root    365 :    33.116857535362420
 Root    366 :    33.130217859365980
 Root    367 :    33.215802075205290
 Root    368 :    33.263516765375010
 Root    369 :    33.412037298240320
 Root    370 :    33.524411094770150
 Root    371 :    33.612565756478300
 Root    372 :    33.684491444248660
 Root    373 :    33.903873840406330
 Root    374 :    33.922026962345480
 Root    375 :    33.961980267558520
 Root    376 :    34.009532020254550
 Root    377 :    34.067757815742810
 Root    378 :    34.166535563245980
 Root    379 :    34.245980073663620
 Root    380 :    34.260278363317890
 Root    381 :    34.299480819503390
 Root    382 :    34.348316644520640
 Root    383 :    34.481335756578080
 Root    384 :    34.527097374880950
 Root    385 :    34.623105464588130
 Root    386 :    34.684176565261380
 Root    387 :    34.740671871997710
 Root    388 :    34.823118609088410
 Root    389 :    34.848559225688460
 Root    390 :    34.877357131322400
 Root    391 :    34.903257147941110
 Root    392 :    34.966437457788680
 Root    393 :    34.995936739615230
 Root    394 :    35.036144349730350
 Root    395 :    35.064983202220970
 Root    396 :    35.354768150531910
 Root    397 :    35.422066988236100
 Root    398 :    35.440195136839120
 Root    399 :    35.467087125540190
 Root    400 :    35.582947024623910
 Root    401 :    35.612478030560180
 Root    402 :    35.634831258123680
 Root    403 :    35.681659642640700
 Root    404 :    35.699796893222040
 Root    405 :    35.724865616543500
 Root    406 :    35.768428843112670
 Root    407 :    35.771148363066610
 Root    408 :    35.862169137041190
 Root    409 :    35.959728341646920
 Root    410 :    36.022283963498360
 Root    411 :    36.147335593981100
 Root    412 :    36.182939308404730
 Root    413 :    36.258513170082250
 Root    414 :    36.368920413822050
 Root    415 :    36.384650071321390
 Root    416 :    36.488925833955600
 Root    417 :    36.685040493619350
 Root    418 :    36.694848619207980
 Root    419 :    36.779010070699460
 Root    420 :    36.923806751220120
 Root    421 :    37.077652458254330
 Root    422 :    37.091952675754610
 Root    423 :    37.130360732001530
 Root    424 :    37.174064428246810
 Root    425 :    37.208189040225710
 Root    426 :    37.384467918117470
 Root    427 :    37.422179205701880
 Root    428 :    37.441443450239450
 Root    429 :    37.499136305324730
 Root    430 :    37.639412302010890
 Root    431 :    37.674845132099090
 Root    432 :    37.716982892308900
 Root    433 :    37.940897549112430
 Root    434 :    38.146526844228070
 Root    435 :    38.269623642761790
 Root    436 :    38.308143371940410
 Root    437 :    38.363943191688680
 Root    438 :    38.388427479666000
 Root    439 :    38.520647410882750
 Root    440 :    38.597799761841880
 Root    441 :    38.611888735676910
 Root    442 :    38.628696783500510
 Root    443 :    38.758099811651630
 Root    444 :    38.836013289725230
 Root    445 :    38.938987677919760
 Root    446 :    39.209169648100100
 Root    447 :    39.380422515835650
 Root    448 :    39.415545919573650
 Root    449 :    39.526406054812130
 Root    450 :    39.595003260851540
 Root    451 :    39.627169195901660
 Root    452 :    39.753359503658270
 Root    453 :    39.792374172824400
 Root    454 :    39.849980367200040
 Root    455 :    39.961850875550090
 Root    456 :    40.061197118890580
 Root    457 :    40.139065045369930
 Root    458 :    40.217599253593010
 Root    459 :    40.295285738602620
 Root    460 :    40.312604131414860
 Root    461 :    40.346408924288190
 Root    462 :    40.419943974349240
 Root    463 :    40.551432190978490
 Root    464 :    40.577498651244970
 Root    465 :    40.629223537742310
 Root    466 :    40.752271697980750
 Root    467 :    40.891263910926090
 Root    468 :    40.984202169814400
 Root    469 :    41.065194179155720
 Root    470 :    41.105780215543430
 Root    471 :    41.351668326729960
 Root    472 :    41.445109696473950
 Root    473 :    41.474992198610560
 Root    474 :    41.512165468756120
 Root    475 :    41.647751861109600
 Root    476 :    41.750469702356020
 Root    477 :    41.848908285852020
 Root    478 :    42.023603406817220
 Root    479 :    42.106110419035040
 Root    480 :    42.214693290663190
 Root    481 :    42.220088064958370
 Root    482 :    42.244269371433180
 Root    483 :    42.447163434244720
 Root    484 :    42.576119486211150
 Root    485 :    42.598335286956120
 Root    486 :    42.662259322969820
 Root    487 :    42.674247380284720
 Root    488 :    42.759115343550920
 Root    489 :    42.806430940061520
 Root    490 :    42.833821601531430
 Root    491 :    42.879548555583050
 Root    492 :    42.897035871738100
 Root    493 :    42.918996538344080
 Root    494 :    43.045220896420520
 Root    495 :    43.119800658269880
 Root    496 :    43.261613656945950
 Root    497 :    43.423344751059860
 Root    498 :    43.609945576070450
 Root    499 :    43.650074725316930
 Root    500 :    43.765184182479590
 Root    501 :    43.805814705444180
 Root    502 :    44.124971551209090
 Root    503 :    44.157036925957550
 Root    504 :    44.289174172066220
 Root    505 :    44.388678054585230
 Root    506 :    44.446734305757540
 Root    507 :    44.452745582551410
 Root    508 :    44.753155369874530
 Root    509 :    44.858443781505900
 Root    510 :    44.955832064914750
 Root    511 :    44.971711015863160
 Root    512 :    45.332815297790450
 Root    513 :    45.425581786879790
 Root    514 :    45.521981764947850
 Root    515 :    45.546899957240380
 Root    516 :    45.583199921124940
 Root    517 :    45.722435122776300
 Root    518 :    45.770098315727100
 Root    519 :    46.017608541870940
 Root    520 :    46.219897066833600
 Root    521 :    46.378807544532240
 Root    522 :    46.570352178880330
 Root    523 :    46.578432524493460
 Root    524 :    46.670156521197190
 Root    525 :    46.749849569118790
 Root    526 :    46.761110783950470
 Root    527 :    47.080277570121590
 Root    528 :    47.106704064102900
 Root    529 :    47.156909243433790
 Root    530 :    47.244952524230000
 Root    531 :    47.393225748219860
 Root    532 :    47.430740063551940
 Root    533 :    47.502125926998790
 Root    534 :    47.886033540112260
 Root    535 :    49.122059487652390
 Root    536 :    50.036952574030480
 Root    537 :    50.041537704604710
 Root    538 :    50.282767717357500
 Root    539 :    50.435041955284010
 Root    540 :    50.449900137067980
 Root    541 :    50.838661647211750
 Root    542 :    50.874253333329840
 Root    543 :    50.901251567278930
 Root    544 :    51.194609953696630
 Root    545 :    51.578211421595650
 Root    546 :    51.684269797402260
 Root    547 :    51.754982406045240
 Root    548 :    51.763761067876790
 Root    549 :    52.181785473324550
 Root    550 :    52.311695320044060
 Root    551 :    52.407673166112590
 Root    552 :    52.520118781417980
 Root    553 :    52.598172456125410
 Root    554 :    52.639460199047900
 Root    555 :    52.653350209593480
 Root    556 :    52.992085682192080
 Root    557 :    53.221588136371300
 Root    558 :    53.228791964702130
 Root    559 :    53.442463889152390
 Root    560 :    53.607622140236440
 Root    561 :    53.717677697430300
 Root    562 :    53.763262683766990
 Root    563 :    53.820794257778210
 Root    564 :    53.901634220523610
 Root    565 :    53.920477397712530
 Root    566 :    53.991845574621350
 Root    567 :    54.230591477777960
 Root    568 :    54.342230552643810
 Root    569 :    54.498239997548520
 Root    570 :    54.697601013042660
 Root    571 :    54.945899254194280
 Root    572 :    54.967241760704060
 Root    573 :    54.975964876307010
 Root    574 :    55.159150252703720
 Root    575 :    55.328633614607870
 Root    576 :    55.476307153654000
 Root    577 :    55.619581453148950
 Root    578 :    55.826134355425460
 Root    579 :    55.838044502512060
 Root    580 :    55.883553545245150
 Root    581 :    56.081697882481460
 Root    582 :    56.421096893642850
 Root    583 :    56.505025454268440
 Root    584 :    56.551306198016340
 Root    585 :    56.613755024739250
 Root    586 :    56.736784458929390
 Root    587 :    56.803448514558440
 Root    588 :    56.887485770705420
 Root    589 :    57.171073437005660
 Root    590 :    57.243454762815510
 Root    591 :    57.424319110423740
 Root    592 :    57.928406811333570
 Root    593 :    58.212574967793830
 Root    594 :    58.284205620843000
 Root    595 :    58.361887783103160
 Root    596 :    58.616312478270570
 Root    597 :    58.666258748177900
 Root    598 :    58.687017879829710
 Root    599 :    58.795918868175260
 Root    600 :    58.891607951789470
 Root    601 :    59.006742729099160
 Root    602 :    59.074889091210070
 Root    603 :    59.128088589136210
 Root    604 :    59.194873288897190
 Root    605 :    59.279102142559720
 Root    606 :    59.395189347355480
 Root    607 :    59.480686033333310
 Root    608 :    59.707899044358780
 Root    609 :    59.752466656307850
 Root    610 :    59.924657857696470
 Root    611 :    59.991300931860340
 Root    612 :    60.122981066196790
 Root    613 :    60.193431867689870
 Root    614 :    60.211687483145530
 Root    615 :    60.374227724620500
 Root    616 :    60.706852682868040
 Root    617 :    61.313591969570640
 Root    618 :    61.413207353426710
 Root    619 :    61.522535690023340
 Root    620 :    61.587611866188550
 Root    621 :    61.608066682746900
 Root    622 :    61.720492898221310
 Root    623 :    61.734181362465680
 Root    624 :    61.781183784506350
 Root    625 :    61.849700715468100
 Root    626 :    61.886614840221120
 Root    627 :    61.909950874112660
 Root    628 :    61.935774716501260
 Root    629 :    62.041720446373490
 Root    630 :    62.042964991223000
 Root    631 :    62.308848796764540
 Root    632 :    62.376317071377660
 Root    633 :    62.501115498566460
 Root    634 :    62.536499453227430
 Root    635 :    62.583496956027810
 Root    636 :    62.658889761244400
[...]
     14  -0.439169D+00  0.000000D+00  0.000000D+00  0.139535D+00 -0.355454D+00
     15   0.000000D+00  0.107129D+00  0.369097D+00  0.000000D+00  0.000000D+00
     16   0.000000D+00  0.118736D-01  0.113291D+00  0.000000D+00  0.000000D+00
               831           832           833           834           835 
      1  -0.175323D+03 -0.175313D+03 -0.175306D+03 -0.175302D+03 -0.175288D+03
      2   0.000000D+00 -0.333071D-01  0.000000D+00 -0.150630D-01  0.000000D+00
      3   0.000000D+00 -0.166244D-01  0.000000D+00  0.150472D-01  0.000000D+00
      4  -0.312068D-01  0.000000D+00 -0.242941D-01  0.000000D+00 -0.593618D-01
      5   0.000000D+00  0.999573D-01  0.000000D+00  0.106573D+00  0.000000D+00
      6   0.000000D+00  0.547849D-01  0.000000D+00 -0.489084D-01  0.000000D+00
      7   0.142376D+00  0.000000D+00  0.714551D-01  0.000000D+00  0.160568D+00
      8  -0.755565D-01  0.000000D+00  0.113234D+00  0.000000D+00  0.144249D-01
      9  -0.379545D+00  0.000000D+00 -0.186913D+00  0.000000D+00  0.302111D+00
     10   0.000000D+00  0.177749D+00  0.000000D+00  0.277273D-01  0.000000D+00
     11   0.000000D+00  0.450598D+00  0.000000D+00  0.423737D+00  0.000000D+00
     12   0.000000D+00  0.297008D+00  0.000000D+00 -0.787549D+00  0.000000D+00
     13   0.000000D+00 -0.235458D-02  0.000000D+00 -0.761622D+00  0.000000D+00
     14   0.000000D+00  0.146366D+00  0.000000D+00 -0.262990D+00  0.000000D+00
     15   0.561827D+00  0.000000D+00  0.151251D+00  0.000000D+00 -0.361593D+00
     16  -0.157695D+00  0.000000D+00  0.192542D+00  0.000000D+00  0.430193D-01
               836           837           838           839           840 
      1  -0.175261D+03 -0.175240D+03 -0.175239D+03 -0.175238D+03 -0.175220D+03
      2  -0.434850D-01 -0.560192D-01  0.000000D+00  0.329337D-01  0.159023D-01
      3   0.780838D-02  0.107469D-01  0.000000D+00 -0.925066D-02  0.480191D-01
      4   0.000000D+00  0.000000D+00  0.902646D-02  0.000000D+00  0.000000D+00
      5   0.174399D+00  0.140337D+00  0.000000D+00 -0.920522D-01 -0.240467D-01
      6  -0.659110D-01 -0.442637D-01  0.000000D+00  0.356547D-01 -0.111110D+00
      7   0.000000D+00  0.000000D+00 -0.277529D-01  0.000000D+00  0.000000D+00
      8   0.000000D+00  0.000000D+00  0.196374D-02  0.000000D+00  0.000000D+00
      9   0.000000D+00  0.000000D+00  0.620760D-01  0.000000D+00  0.000000D+00
     10  -0.243300D+00  0.312748D+00  0.000000D+00 -0.676406D-01  0.191426D+00
     11   0.517612D+00 -0.429585D+00  0.000000D+00 -0.764573D-02  0.234199D+00
     12  -0.243175D+00  0.371322D+00  0.000000D+00 -0.188762D+00  0.697856D-01
     13  -0.591530D+00 -0.732752D-01  0.000000D+00  0.399905D-01  0.187811D-01
     14  -0.563876D+00  0.120741D+00  0.000000D+00  0.697219D-01  0.323280D+00
     15   0.000000D+00  0.000000D+00 -0.611376D-01  0.000000D+00  0.000000D+00
     16   0.000000D+00  0.000000D+00 -0.210789D-02  0.000000D+00  0.000000D+00
               841           842           843           844           845 
      1  -0.175215D+03 -0.175205D+03 -0.175155D+03 -0.175151D+03 -0.175148D+03
      2   0.217157D-01  0.000000D+00  0.000000D+00  0.839404D-01  0.000000D+00
      3  -0.136947D-01  0.000000D+00  0.000000D+00  0.172115D+00  0.000000D+00
      4   0.000000D+00  0.341598D-01  0.152617D+00  0.000000D+00 -0.226126D-01
      5  -0.756959D-01  0.000000D+00  0.000000D+00 -0.273078D+00  0.000000D+00
      6   0.586928D-01  0.000000D+00  0.000000D+00 -0.569562D+00  0.000000D+00
      7   0.000000D+00 -0.115616D+00 -0.518135D+00  0.000000D+00  0.722103D-01
      8   0.000000D+00  0.303963D+00 -0.839011D-01  0.000000D+00 -0.152149D-01
      9   0.000000D+00 -0.235732D+00  0.127592D+01  0.000000D+00 -0.982704D-01
     10   0.177301D+00  0.000000D+00  0.000000D+00 -0.108513D+01  0.000000D+00
     11  -0.230445D+00  0.000000D+00  0.000000D+00 -0.117937D+01  0.000000D+00
     12   0.944509D-01  0.000000D+00  0.000000D+00 -0.534503D-01  0.000000D+00
     13   0.212828D+00  0.000000D+00  0.000000D+00  0.270503D-01  0.000000D+00
     14   0.228110D+00  0.000000D+00  0.000000D+00 -0.105450D+01  0.000000D+00
     15   0.000000D+00  0.251967D+00 -0.126479D+01  0.000000D+00  0.121907D+00
     16   0.000000D+00  0.679862D-01 -0.856499D-01  0.000000D+00 -0.756359D-01
               846           847           848           849           850 
      1  -0.175147D+03 -0.175139D+03 -0.175129D+03 -0.175117D+03 -0.175113D+03
      2   0.000000D+00  0.175751D-01  0.000000D+00 -0.191442D-01  0.000000D+00
      3   0.000000D+00  0.936076D-01  0.000000D+00  0.306256D-01  0.000000D+00
      4   0.116321D+00  0.000000D+00 -0.405315D-01  0.000000D+00  0.146568D-01
      5   0.000000D+00 -0.632560D-01  0.000000D+00  0.613204D-01  0.000000D+00
      6   0.000000D+00 -0.315374D+00  0.000000D+00 -0.101936D+00  0.000000D+00
      7  -0.386850D+00  0.000000D+00  0.137948D+00  0.000000D+00 -0.319982D-01
      8   0.118491D+00  0.000000D+00 -0.179145D-01  0.000000D+00 -0.596494D-01
      9   0.624226D+00  0.000000D+00 -0.268244D+00  0.000000D+00 -0.660907D-01
     10   0.000000D+00 -0.718531D+00  0.000000D+00  0.826410D-01  0.000000D+00
     11   0.000000D+00 -0.141020D-01  0.000000D+00 -0.955130D-01  0.000000D+00
     12   0.000000D+00 -0.958051D-01  0.000000D+00  0.150732D+00  0.000000D+00
     13   0.000000D+00 -0.283002D-01  0.000000D+00 -0.120560D+00  0.000000D+00
     14   0.000000D+00 -0.643959D+00  0.000000D+00 -0.183656D-01  0.000000D+00
     15  -0.520118D+00  0.000000D+00  0.196084D+00  0.000000D+00  0.139005D+00
     16   0.500076D-01  0.000000D+00  0.599721D-01  0.000000D+00 -0.963325D-01
               851           852           853           854           855 
      1  -0.175112D+03 -0.175108D+03 -0.175102D+03 -0.175102D+03 -0.175100D+03
      2   0.000000D+00  0.262641D-01  0.000000D+00  0.231453D-01  0.321234D-01
      3   0.000000D+00 -0.623358D-01  0.000000D+00  0.238115D-01  0.643323D-01
      4  -0.103444D-02  0.000000D+00  0.916063D-01  0.000000D+00  0.000000D+00
      5   0.000000D+00 -0.873818D-01  0.000000D+00 -0.918195D-01 -0.104870D+00
      6   0.000000D+00  0.173405D+00  0.000000D+00 -0.853348D-01 -0.214586D+00
      7   0.732425D-02  0.000000D+00 -0.304091D+00  0.000000D+00  0.000000D+00
      8   0.334463D-01  0.000000D+00 -0.358386D-02  0.000000D+00  0.000000D+00
      9  -0.328744D-01  0.000000D+00  0.734809D+00  0.000000D+00  0.000000D+00
     10   0.000000D+00 -0.389339D+00  0.000000D+00 -0.266579D+00 -0.553131D+00
     11   0.000000D+00  0.280205D+00  0.000000D+00 -0.354719D+00 -0.162777D+00
     12   0.000000D+00 -0.182852D+00  0.000000D+00  0.120466D+00 -0.955891D-01
     13   0.000000D+00  0.123462D+00  0.000000D+00  0.165970D+00 -0.155492D-01
     14   0.000000D+00 -0.201361D+00  0.000000D+00 -0.261497D+00 -0.533950D+00
     15  -0.312308D-01  0.000000D+00 -0.658715D+00  0.000000D+00  0.000000D+00
     16  -0.180717D-01  0.000000D+00 -0.475167D-01  0.000000D+00  0.000000D+00
               856           857           858           859           860 
      1  -0.175073D+03 -0.175065D+03 -0.175062D+03 -0.175050D+03 -0.175033D+03
      2   0.000000D+00 -0.350501D-01  0.000000D+00 -0.118935D+00  0.170718D-02
      3   0.000000D+00 -0.130646D+00  0.000000D+00  0.300916D-01 -0.255456D-01
      4   0.410857D-01  0.000000D+00 -0.131908D+00  0.000000D+00  0.000000D+00
      5   0.000000D+00  0.116270D+00  0.000000D+00  0.396274D+00 -0.541444D-02
      6   0.000000D+00  0.427363D+00  0.000000D+00 -0.104760D+00  0.806643D-01
      7  -0.142012D+00  0.000000D+00  0.402884D+00  0.000000D+00  0.000000D+00
      8   0.217464D-01  0.000000D+00 -0.159957D-01  0.000000D+00  0.000000D+00
      9   0.680059D+00  0.000000D+00 -0.140440D-01  0.000000D+00  0.000000D+00
     10   0.000000D+00  0.959659D+00  0.000000D+00 -0.201178D+00  0.102688D+00
     11   0.000000D+00  0.407594D+00  0.000000D+00  0.221488D+01  0.115615D+00
     12   0.000000D+00 -0.263202D-01  0.000000D+00  0.105610D+00  0.187822D+00
     13   0.000000D+00  0.407839D-01  0.000000D+00 -0.708101D-01 -0.876669D-01
     14   0.000000D+00  0.890404D+00  0.000000D+00 -0.538844D+00  0.146645D+00
     15  -0.555113D+00  0.000000D+00 -0.176730D-01  0.000000D+00  0.000000D+00
     16   0.238807D-01  0.000000D+00  0.155107D-01  0.000000D+00  0.000000D+00
               861           862           863           864           865 
      1  -0.175031D+03 -0.175020D+03 -0.175015D+03 -0.175012D+03 -0.175005D+03
      2   0.000000D+00  0.000000D+00 -0.110946D-02  0.000000D+00 -0.100546D+00
      3   0.000000D+00  0.000000D+00  0.833176D-03  0.000000D+00  0.775090D-01
      4  -0.798909D-02 -0.110979D-01  0.000000D+00  0.198304D-01  0.000000D+00
      5   0.000000D+00  0.000000D+00  0.141740D-01  0.000000D+00  0.357584D+00
      6   0.000000D+00  0.000000D+00  0.349620D-02  0.000000D+00 -0.266617D+00
      7   0.269766D-01  0.504754D-01  0.000000D+00 -0.696331D-01  0.000000D+00
      8   0.282061D-01  0.684166D-02  0.000000D+00  0.235007D-01  0.000000D+00
      9  -0.184824D-01 -0.226984D+00  0.000000D+00  0.110681D+00  0.000000D+00
     10   0.000000D+00  0.000000D+00 -0.379825D-01  0.000000D+00 -0.327561D+00
     11   0.000000D+00  0.000000D+00 -0.721262D-02  0.000000D+00  0.190853D+01
     12   0.000000D+00  0.000000D+00 -0.281188D-01  0.000000D+00  0.225983D+00
     13   0.000000D+00  0.000000D+00  0.232245D-01  0.000000D+00 -0.644028D-03
     14   0.000000D+00  0.000000D+00 -0.169724D-01  0.000000D+00 -0.647133D+00
     15   0.258298D-01  0.275619D+00  0.000000D+00 -0.937175D-01  0.000000D+00
     16  -0.824312D-01 -0.662978D-02  0.000000D+00 -0.383849D-01  0.000000D+00
               866           867           868           869           870 
      1  -0.175004D+03 -0.174966D+03 -0.174963D+03 -0.174944D+03 -0.174918D+03
      2   0.000000D+00  0.171211D+00  0.000000D+00  0.286317D-02  0.000000D+00
      3   0.000000D+00  0.305260D-01  0.000000D+00 -0.105282D+00  0.000000D+00
      4  -0.437965D-01  0.000000D+00 -0.116705D+00  0.000000D+00  0.212319D-01
      5   0.000000D+00 -0.594959D+00  0.000000D+00 -0.838459D-02  0.000000D+00
      6   0.000000D+00 -0.984763D-01  0.000000D+00  0.368850D+00  0.000000D+00
      7   0.135850D+00  0.000000D+00  0.386567D+00  0.000000D+00 -0.784818D-01
      8   0.296535D-01  0.000000D+00 -0.482492D-01  0.000000D+00  0.143898D-01
      9  -0.351790D+00  0.000000D+00 -0.885284D+00  0.000000D+00  0.241434D+00
     10   0.000000D+00 -0.317934D+00  0.000000D+00  0.824665D+00  0.000000D+00
     11   0.000000D+00 -0.252499D+01  0.000000D+00 -0.474130D+00  0.000000D+00
     12   0.000000D+00 -0.733677D-01  0.000000D+00 -0.825685D-01  0.000000D+00
     13   0.000000D+00  0.145224D-01  0.000000D+00 -0.625525D-03  0.000000D+00
     14   0.000000D+00 -0.158462D-01  0.000000D+00  0.751715D+00  0.000000D+00
     15   0.249155D+00  0.000000D+00  0.863152D+00  0.000000D+00 -0.173579D+00
     16   0.773547D-01  0.000000D+00 -0.406261D-01  0.000000D+00 -0.346917D-01
               871           872           873           874           875 
      1  -0.174915D+03 -0.174900D+03 -0.174877D+03 -0.174877D+03 -0.174865D+03
      2  -0.456531D-01 -0.211931D+00  0.000000D+00 -0.830260D-01  0.000000D+00
      3   0.269135D-01  0.191543D+00  0.000000D+00 -0.805540D-01  0.000000D+00
      4   0.000000D+00  0.000000D+00  0.233198D+00  0.000000D+00 -0.263291D+00
      5   0.166240D+00  0.753083D+00  0.000000D+00  0.296289D+00  0.000000D+00
      6  -0.883044D-01 -0.678429D+00  0.000000D+00  0.283199D+00  0.000000D+00
      7   0.000000D+00  0.000000D+00 -0.819591D+00  0.000000D+00  0.913326D+00
      8   0.000000D+00  0.000000D+00  0.178534D+00  0.000000D+00 -0.143599D+00
      9   0.000000D+00  0.000000D+00  0.192121D+01  0.000000D+00 -0.210181D+01
     10  -0.540393D-01 -0.153455D+01  0.000000D+00  0.707212D+00  0.000000D+00
     11   0.887525D+00  0.354469D+01  0.000000D+00  0.154680D+01  0.000000D+00
     12  -0.247783D+00  0.259100D+00  0.000000D+00  0.153291D-01  0.000000D+00
     13  -0.621500D-01  0.117330D+00  0.000000D+00 -0.129348D+00  0.000000D+00
     14  -0.124428D+00 -0.174457D+01  0.000000D+00  0.765466D+00  0.000000D+00
     15   0.000000D+00  0.000000D+00 -0.206725D+01  0.000000D+00  0.212517D+01
     16   0.000000D+00  0.000000D+00  0.980648D-01  0.000000D+00 -0.295583D+00
               876           877           878           879           880 
      1  -0.174852D+03 -0.174786D+03 -0.174772D+03 -0.174768D+03 -0.174724D+03
      2   0.183331D+00  0.000000D+00  0.888484D-02  0.243833D-01  0.746917D-03
      3   0.258710D+00  0.000000D+00 -0.125712D-01  0.814715D-01 -0.595018D-02
      4   0.000000D+00 -0.102410D+00  0.000000D+00  0.000000D+00  0.000000D+00
      5  -0.639960D+00  0.000000D+00 -0.207131D-01 -0.852672D-01 -0.857790D-02
      6  -0.899947D+00  0.000000D+00  0.565720D-01 -0.277666D+00  0.191504D-01
      7   0.000000D+00  0.352048D+00  0.000000D+00  0.000000D+00  0.000000D+00
      8   0.000000D+00 -0.519704D-01  0.000000D+00  0.000000D+00  0.000000D+00
      9   0.000000D+00 -0.800939D+00  0.000000D+00  0.000000D+00  0.000000D+00
     10  -0.225921D+01  0.000000D+00  0.240372D+00 -0.536833D+00 -0.267358D-01
     11  -0.324246D+01  0.000000D+00  0.171238D+00 -0.374061D+00 -0.363009D-02
     12   0.497774D+00  0.000000D+00 -0.305359D+00  0.636863D-01  0.119847D+00
     13  -0.921608D-01  0.000000D+00  0.105295D+00  0.641219D-01 -0.142479D+00
     14  -0.214963D+01  0.000000D+00  0.247143D+00 -0.553468D+00  0.331380D-01
     15   0.000000D+00  0.100285D+01  0.000000D+00  0.000000D+00  0.000000D+00
     16   0.000000D+00 -0.128788D+00  0.000000D+00  0.000000D+00  0.000000D+00
               881           882           883           884           885 
      1  -0.174722D+03 -0.174718D+03 -0.174675D+03 -0.174665D+03 -0.174641D+03
      2   0.000000D+00  0.000000D+00  0.000000D+00 -0.140723D+00  0.123588D-01
      3   0.000000D+00  0.000000D+00  0.000000D+00 -0.301264D+00  0.667282D-02
      4  -0.264494D-01 -0.248073D-01 -0.301808D+00  0.000000D+00  0.000000D+00
      5   0.000000D+00  0.000000D+00  0.000000D+00  0.521166D+00 -0.423491D-01
      6   0.000000D+00  0.000000D+00  0.000000D+00  0.110798D+01 -0.216907D-01
      7   0.890009D-01  0.912430D-01  0.111018D+01  0.000000D+00  0.000000D+00
      8   0.490586D-01  0.519282D-01 -0.816630D-01  0.000000D+00  0.000000D+00
      9  -0.729647D-01 -0.114144D+00 -0.233266D+01  0.000000D+00  0.000000D+00
     10   0.000000D+00  0.000000D+00  0.000000D+00  0.241011D+01 -0.125540D+00
     11   0.000000D+00  0.000000D+00  0.000000D+00  0.247066D+01  0.601844D-02
     12   0.000000D+00  0.000000D+00  0.000000D+00 -0.260873D+00 -0.165567D-01
     13   0.000000D+00  0.000000D+00  0.000000D+00 -0.449764D-01 -0.171305D+00
     14   0.000000D+00  0.000000D+00  0.000000D+00  0.241321D+01  0.971218D-02
     15   0.678308D-02  0.982250D-01  0.245424D+01  0.000000D+00  0.000000D+00
     16  -0.174978D+00 -0.909993D-01 -0.183719D+00  0.000000D+00  0.000000D+00
               886           887           888           889           890 
      1  -0.174641D+03 -0.174623D+03 -0.174611D+03 -0.174598D+03 -0.174589D+03
      2   0.000000D+00  0.423967D-01  0.000000D+00  0.000000D+00  0.101368D-01
      3   0.000000D+00  0.765740D-01  0.000000D+00  0.000000D+00 -0.168315D+00
      4  -0.665640D-01  0.000000D+00 -0.199431D-01 -0.245583D+00  0.000000D+00
      5   0.000000D+00 -0.151131D+00  0.000000D+00  0.000000D+00 -0.650879D-01
      6   0.000000D+00 -0.277089D+00  0.000000D+00  0.000000D+00  0.648720D+00
      7   0.241091D+00  0.000000D+00  0.614689D-01  0.912572D+00  0.000000D+00
      8   0.240773D-01  0.000000D+00  0.642257D-01 -0.131776D+00  0.000000D+00
      9  -0.514324D+00  0.000000D+00  0.522899D-01 -0.210844D+01  0.000000D+00
     10   0.000000D+00 -0.518186D+00  0.000000D+00  0.000000D+00  0.149827D+01
     11   0.000000D+00 -0.768529D+00  0.000000D+00  0.000000D+00  0.899625D-01
     12   0.000000D+00  0.131431D+00  0.000000D+00  0.000000D+00 -0.440829D+00
     13   0.000000D+00 -0.285194D-01  0.000000D+00  0.000000D+00  0.325273D-01
     14   0.000000D+00 -0.646008D+00  0.000000D+00  0.000000D+00  0.162919D+01
     15   0.638128D+00  0.000000D+00 -0.205026D+00  0.232104D+01  0.000000D+00
     16  -0.523626D-01  0.000000D+00  0.295892D-01 -0.204210D+00  0.000000D+00
               891           892           893           894           895 
      1  -0.174555D+03 -0.174523D+03 -0.174485D+03 -0.174371D+03 -0.174368D+03
      2  -0.189011D+00  0.000000D+00  0.278316D+00  0.111899D+00  0.248954D-01
      3  -0.891861D-01  0.000000D+00 -0.170550D+00 -0.471624D-01 -0.625949D-03
      4   0.000000D+00 -0.110239D+00  0.000000D+00  0.000000D+00  0.000000D+00
      5   0.733324D+00  0.000000D+00 -0.113462D+01 -0.525789D+00 -0.111284D+00
      6   0.330824D+00  0.000000D+00  0.692096D+00  0.230342D+00  0.909284D-02
      7   0.000000D+00  0.429073D+00  0.000000D+00  0.000000D+00  0.000000D+00
      8   0.000000D+00 -0.135954D+00  0.000000D+00  0.000000D+00  0.000000D+00
      9   0.000000D+00 -0.110809D+01  0.000000D+00  0.000000D+00  0.000000D+00
     10   0.988968D+00  0.000000D+00  0.147414D+01  0.417272D+00 -0.256991D-01
     11   0.344065D+01  0.000000D+00 -0.497693D+01 -0.315878D+01 -0.713806D+00
     12  -0.375836D+00  0.000000D+00 -0.183104D+00 -0.333676D-01 -0.639152D+00
     13   0.329808D-01  0.000000D+00  0.481840D-01 -0.144325D-02  0.706237D+00
     14   0.948839D+00  0.000000D+00  0.167796D+01  0.109058D+01 -0.160904D+00
     15   0.000000D+00  0.128305D+01  0.000000D+00  0.000000D+00  0.000000D+00
     16   0.000000D+00 -0.210528D+00  0.000000D+00  0.000000D+00  0.000000D+00
               896           897           898           899           900 
      1  -0.174365D+03 -0.174279D+03 -0.174259D+03 -0.174235D+03 -0.173872D+03
      2   0.000000D+00  0.000000D+00  0.293806D-01 -0.157114D-02  0.285198D-01
      3   0.000000D+00  0.000000D+00  0.595252D-01 -0.225899D-02 -0.944774D-02
      4  -0.311082D-02 -0.722160D-01  0.000000D+00  0.000000D+00  0.000000D+00
      5   0.000000D+00  0.000000D+00 -0.115677D+00 -0.432453D-01 -0.205607D+00
      6   0.000000D+00  0.000000D+00 -0.235138D+00  0.343305D-01  0.830627D-01
      7   0.906343D-02  0.281933D+00  0.000000D+00  0.000000D+00  0.000000D+00
      8   0.203209D-01 -0.343038D-01  0.000000D+00  0.000000D+00  0.000000D+00
      9   0.143811D-01 -0.631756D+00  0.000000D+00  0.000000D+00  0.000000D+00
     10   0.000000D+00  0.000000D+00 -0.540173D+00  0.145936D+00  0.171139D+00
     11   0.000000D+00  0.000000D+00 -0.120971D+00 -0.933339D+00 -0.631223D+00
     12   0.000000D+00  0.000000D+00 -0.271552D+00 -0.177638D+00 -0.721914D-01
     13   0.000000D+00  0.000000D+00 -0.712924D-01  0.919378D-01 -0.168822D+00
     14   0.000000D+00  0.000000D+00 -0.167862D+00  0.490403D+00 -0.191053D-01
     15   0.311513D+00  0.160714D+00  0.000000D+00  0.000000D+00  0.000000D+00
     16   0.649497D+00  0.217644D+00  0.000000D+00  0.000000D+00  0.000000D+00
 Unable to Open any file for archive entry.
 1\1\GINC-HEL02\SP\RwB97XD TD-FC\Gen\C2H5F1\RR\12-Feb-2022\0\\#P TD(Nst
 ates=10000) wB97XD/Gen SCF(maxcycles=100) Int(Grid=ultrafine)\\xGDB7_0
 0001_tier4.com\\0,1\C,0,-1.115976,-0.467377,0.\C,0,0.,0.55106,0.\F,0,1
 .223274,-0.079801,0.\H,0,-2.093267,0.037854,0.\H,0,-1.056924,-1.108199
 ,0.89158\H,0,-1.056924,-1.108199,-0.89158\H,0,-0.053248,1.19733,0.8925
 38\H,0,-0.053248,1.19733,-0.892538\\Version=EM64L-G16RevC.01\State=1-A
 '\HF=-178.8878256\RMSD=2.142e-09\PG=CS [SG(C2H1F1),X(H4)]\\@
 The archive entry for this job was punched.


 I am not a vegetarian because I love animals;
 I am a vegetarian because I hate plants.
                               -- A. Whitney Brown
 Job cpu time:       0 days  0 hours 11 minutes 18.4 seconds.
 Elapsed time:       0 days  0 hours  1 minutes 25.1 seconds.
 File lengths (MBytes):  RWF=   1039 Int=      0 D2E=      0 Chk=    234 Scr=      1
 Normal termination of Gaussian 16 at Sat Feb 12 22:24:07 2022.
