 Entering Gaussian System, Link 0=g16
 Input=bigQM7w_TDwB97XD_def2SVPD_000030.com
 Output=bigQM7w_TDwB97XD_def2SVPD_000030.log
 Initial command:
 /home/rr/g16/l1.exe "/scratch/rr/PBS_7839475.helios/Gau-139809.inp" -scrdir="/scratch/rr/PBS_7839475.helios/"
 Entering Link 1 = /home/rr/g16/l1.exe PID=    139826.
  
 Copyright (c) 1988-2019, Gaussian, Inc.  All Rights Reserved.
  
 This is part of the Gaussian(R) 16 program.  It is based on
 the Gaussian(R) 09 system (copyright 2009, Gaussian, Inc.),
 the Gaussian(R) 03 system (copyright 2003, Gaussian, Inc.),
 the Gaussian(R) 98 system (copyright 1998, Gaussian, Inc.),
 the Gaussian(R) 94 system (copyright 1995, Gaussian, Inc.),
 the Gaussian 92(TM) system (copyright 1992, Gaussian, Inc.),
 the Gaussian 90(TM) system (copyright 1990, Gaussian, Inc.),
 the Gaussian 88(TM) system (copyright 1988, Gaussian, Inc.),
 the Gaussian 86(TM) system (copyright 1986, Carnegie Mellon
 University), and the Gaussian 82(TM) system (copyright 1983,
 Carnegie Mellon University). Gaussian is a federally registered
 trademark of Gaussian, Inc.
  
 This software contains proprietary and confidential information,
 including trade secrets, belonging to Gaussian, Inc.
  
 This software is provided under written license and may be
 used, copied, transmitted, or stored only in accord with that
 written license.
  
 The following legend is applicable only to US Government
 contracts under FAR:
  
                    RESTRICTED RIGHTS LEGEND
  
 Use, reproduction and disclosure by the US Government is
 subject to restrictions as set forth in subparagraphs (a)
 and (c) of the Commercial Computer Software - Restricted
 Rights clause in FAR 52.227-19.
  
 Gaussian, Inc.
 340 Quinnipiac St., Bldg. 40, Wallingford CT 06492
  
  
 ---------------------------------------------------------------
 Warning -- This program may not be used in any manner that
 competes with the business of Gaussian, Inc. or will provide
 assistance to any competitor of Gaussian, Inc.  The licensee
 of this program is prohibited from giving any competitor of
 Gaussian, Inc. access to this program.  By using this program,
 the user acknowledges that Gaussian, Inc. is engaged in the
 business of creating and licensing software in the field of
 computational chemistry and represents and warrants to the
 licensee that it is not a competitor of Gaussian, Inc. and that
 it will not use this program in any manner prohibited above.
 ---------------------------------------------------------------
  

 Cite this work as:
 Gaussian 16, Revision C.01,
 M. J. Frisch, G. W. Trucks, H. B. Schlegel, G. E. Scuseria, 
 M. A. Robb, J. R. Cheeseman, G. Scalmani, V. Barone, 
 G. A. Petersson, H. Nakatsuji, X. Li, M. Caricato, A. V. Marenich, 
 J. Bloino, B. G. Janesko, R. Gomperts, B. Mennucci, H. P. Hratchian, 
 J. V. Ortiz, A. F. Izmaylov, J. L. Sonnenberg, D. Williams-Young, 
 F. Ding, F. Lipparini, F. Egidi, J. Goings, B. Peng, A. Petrone, 
 T. Henderson, D. Ranasinghe, V. G. Zakrzewski, J. Gao, N. Rega, 
 G. Zheng, W. Liang, M. Hada, M. Ehara, K. Toyota, R. Fukuda, 
 J. Hasegawa, M. Ishida, T. Nakajima, Y. Honda, O. Kitao, H. Nakai, 
 T. Vreven, K. Throssell, J. A. Montgomery, Jr., J. E. Peralta, 
 F. Ogliaro, M. J. Bearpark, J. J. Heyd, E. N. Brothers, K. N. Kudin, 
 V. N. Staroverov, T. A. Keith, R. Kobayashi, J. Normand, 
 K. Raghavachari, A. P. Rendell, J. C. Burant, S. S. Iyengar, 
 J. Tomasi, M. Cossi, J. M. Millam, M. Klene, C. Adamo, R. Cammi, 
 J. W. Ochterski, R. L. Martin, K. Morokuma, O. Farkas, 
 J. B. Foresman, and D. J. Fox, Gaussian, Inc., Wallingford CT, 2019.
 
 ******************************************
 Gaussian 16:  EM64L-G16RevC.01  3-Jul-2019
                12-Feb-2022 
 ******************************************
 %mem=64gb
 %nproc=8
 Will use up to    8 processors via shared memory.
 ----------------------------------------------------------------------
 #P TD(Nstates=10000) wB97XD/Gen SCF(maxcycles=100) Int(Grid=ultrafine)
 ----------------------------------------------------------------------
 1/38=1,172=1/1;
 2/12=2,17=6,18=5,40=1/2;
 3/5=7,11=9,25=1,30=1,74=-58,75=-5/1,2,3,8;
 4//1;
 5/5=2,7=100,38=5/2;
 8/6=1,10=1,108=10000/1;
 9/41=10000,42=1,70=2/14;
 6/7=2,8=2,9=2,10=2/1;
 99/5=1,9=1/99;
 Leave Link    1 at Sat Feb 12 21:40:24 2022, MaxMem=  8589934592 cpu:               0.4 elap:               0.1
 (Enter /home/rr/g16/l101.exe)
 ---------------------
 xGDB7_00001_tier4.com
 ---------------------
 Symbolic Z-matrix:
 Charge =  0 Multiplicity = 1
 6                     1.2424   0.         0. 
 6                    -0.21716   0.00001  -0.00002 
 6                    -1.42567   0.        0. 
 1                     1.63401   0.90155  -0.49394 
 1                     1.63399  -0.87857  -0.53377 
 1                     1.63396  -0.023     1.02776 
 1                    -2.49939  -0.00002   0.00003 
 
 ITRead=  0  0  0  0  0  0  0
 MicOpt= -1 -1 -1 -1 -1 -1 -1
 NAtoms=      7 NQM=        7 NQMF=       0 NMMI=      0 NMMIF=      0
                NMic=       0 NMicF=      0.
                    Isotopes and Nuclear Properties:
 (Nuclear quadrupole moments (NQMom) in fm**2, nuclear magnetic moments (NMagM)
  in nuclear magnetons)

  Atom         1           2           3           4           5           6           7
 IAtWgt=          12          12          12           1           1           1           1
 AtmWgt=  12.0000000  12.0000000  12.0000000   1.0078250   1.0078250   1.0078250   1.0078250
 NucSpn=           0           0           0           1           1           1           1
 AtZEff=  -0.0000000  -0.0000000  -0.0000000  -0.0000000  -0.0000000  -0.0000000  -0.0000000
 NQMom=    0.0000000   0.0000000   0.0000000   0.0000000   0.0000000   0.0000000   0.0000000
 NMagM=    0.0000000   0.0000000   0.0000000   2.7928460   2.7928460   2.7928460   2.7928460
 AtZNuc=   6.0000000   6.0000000   6.0000000   1.0000000   1.0000000   1.0000000   1.0000000
 Leave Link  101 at Sat Feb 12 21:40:24 2022, MaxMem=  8589934592 cpu:               0.7 elap:               0.1
 (Enter /home/rr/g16/l202.exe)
                          Input orientation:                          
 ---------------------------------------------------------------------
 Center     Atomic      Atomic             Coordinates (Angstroms)
 Number     Number       Type             X           Y           Z
 ---------------------------------------------------------------------
      1          6           0        1.242403   -0.000002    0.000002
      2          6           0       -0.217160    0.000007   -0.000017
      3          6           0       -1.425672    0.000000    0.000001
      4          1           0        1.634008    0.901553   -0.493944
      5          1           0        1.633994   -0.878573   -0.533766
      6          1           0        1.633962   -0.022997    1.027763
      7          1           0       -2.499390   -0.000016    0.000029
 ---------------------------------------------------------------------
                    Distance matrix (angstroms):
                    1          2          3          4          5
     1  C    0.000000
     2  C    1.459563   0.000000
     3  C    2.668075   1.208512   0.000000
     4  H    1.100063   2.117445   3.227758   0.000000
     5  H    1.100063   2.117442   3.227747   1.780571   0.000000
     6  H    1.100064   2.117431   3.227721   1.780557   1.780557
     7  H    3.741793   2.282230   1.073718   4.259321   4.259303
                    6          7
     6  H    0.000000
     7  H    4.259268   0.000000
 This structure is nearly, but not quite of a higher symmetry.
 Consider Symm=Loose if the higher symmetry is desired.
 Stoichiometry    C3H4
 Framework group  C1[X(C3H4)]
 Deg. of freedom    15
 Full point group                 C1      NOp   1
 Largest Abelian subgroup         C1      NOp   1
 Largest concise Abelian subgroup C1      NOp   1
                         Standard orientation:                         
 ---------------------------------------------------------------------
 Center     Atomic      Atomic             Coordinates (Angstroms)
 Number     Number       Type             X           Y           Z
 ---------------------------------------------------------------------
      1          6           0       -0.000062    0.008656   -1.242373
      2          6           0        0.000027   -0.001520    0.217155
      3          6           0        0.000068   -0.009931    1.425637
      4          1           0        0.500133   -0.886687   -1.640248
      5          1           0        0.527554    0.893630   -1.627834
      6          1           0       -1.027977    0.027218   -1.633762
      7          1           0        0.000092   -0.017394    2.499329
 ---------------------------------------------------------------------
 Rotational constants (GHZ):         158.1677323           8.5219703           8.5219654
 Leave Link  202 at Sat Feb 12 21:40:24 2022, MaxMem=  8589934592 cpu:               0.1 elap:               0.0
 (Enter /home/rr/g16/l301.exe)
 General basis read from cards:  (5D, 7F)
 Centers:       4      5      6      7
 S 3 1.00
     Exponent=  1.3010701000D+01 Coefficients=  1.9682158000D-02
     Exponent=  1.9622572000D+00 Coefficients=  1.3796524000D-01
     Exponent=  4.4453796000D-01 Coefficients=  4.7831935000D-01
 S 1 1.00
     Exponent=  1.2194962000D-01 Coefficients=  1.0000000000D+00
 P 1 1.00
     Exponent=  8.0000000000D-01 Coefficients=  1.0000000000D+00
 P 1 1.00
     Exponent=  1.1704099050D-01 Coefficients=  1.0000000000D+00
 ****
 Centers:       1      2      3
 S 5 1.00
     Exponent=  1.2384016938D+03 Coefficients=  5.4568832082D-03
     Exponent=  1.8629004992D+02 Coefficients=  4.0638409211D-02
     Exponent=  4.2251176346D+01 Coefficients=  1.8025593888D-01
     Exponent=  1.1676557932D+01 Coefficients=  4.6315121755D-01
     Exponent=  3.5930506482D+00 Coefficients=  4.4087173314D-01
 S 1 1.00
     Exponent=  4.0245147363D-01 Coefficients=  1.0000000000D+00
 S 1 1.00
     Exponent=  1.3090182668D-01 Coefficients=  1.0000000000D+00
 S 1 1.00
     Exponent=  6.7053540256D-02 Coefficients=  1.0000000000D+00
 P 3 1.00
     Exponent=  9.4680970621D+00 Coefficients=  3.8387871728D-02
     Exponent=  2.0103545142D+00 Coefficients=  2.1117025112D-01
     Exponent=  5.4771004707D-01 Coefficients=  5.1328172114D-01
 P 1 1.00
     Exponent=  1.5268613795D-01 Coefficients=  1.0000000000D+00
 D 1 1.00
     Exponent=  8.0000000000D-01 Coefficients=  1.0000000000D+00
 D 1 1.00
     Exponent=  1.1713185140D-01 Coefficients=  1.0000000000D+00
 ****
 Ernie: Thresh=  0.10000D-02 Tol=  0.10000D-05 Strict=F.
 There are    98 symmetry adapted cartesian basis functions of A   symmetry.
 There are    92 symmetry adapted basis functions of A   symmetry.
    92 basis functions,   136 primitive gaussians,    98 cartesian basis functions
    11 alpha electrons       11 beta electrons
       nuclear repulsion energy        58.5251223240 Hartrees.
 IExCor= 4639 DFT=T Ex+Corr=wB97XD ExCW=0 ScaHFX=  1.000000
 ScaDFX=  1.000000  1.000000  1.000000  1.000000 ScalE2=  1.000000  1.000000
 IRadAn=      5 IRanWt=     -1 IRanGd=            0 ICorTp=0 IEmpDi=121
 HFx  wShort=  0.000000 wLong=  0.200000 cFull=  0.222036 cShort=  0.000000 cLong=  0.777964
 DFx  wShort=  0.000000 wLong=  0.200000 cFull=  0.000000 cShort=  0.000000 cLong=  1.000000
 NAtoms=    7 NActive=    7 NUniq=    7 SFac= 1.00D+00 NAtFMM=   60 NAOKFM=F Big=F
 Integral buffers will be    131072 words long.
 Raffenetti 1 integral format.
 Two-electron integral symmetry is turned on.
 R6Disp:  Grimme-D2 Dispersion energy=       -0.0010739205 Hartrees.
 Nuclear repulsion after empirical dispersion term =       58.5240484034 Hartrees.
 Leave Link  301 at Sat Feb 12 21:40:24 2022, MaxMem=  8589934592 cpu:               0.5 elap:               0.1
 (Enter /home/rr/g16/l302.exe)
 NPDir=0 NMtPBC=     1 NCelOv=     1 NCel=       1 NClECP=     1 NCelD=      1
         NCelK=      1 NCelE2=     1 NClLst=     1 CellRange=     0.0.
 One-electron integrals computed using PRISM.
 One-electron integral symmetry used in STVInt
 NBasis=    92 RedAO= T EigKep=  3.92D-05  NBF=    92
 NBsUse=    92 1.00D-06 EigRej= -1.00D+00 NBFU=    92
 Precomputing XC quadrature grid using
 IXCGrd= 4 IRadAn=           5 IRanWt=          -1 IRanGd=           0 AccXCQ= 0.00D+00.
 Generated NRdTot=       0 NPtTot=           0 NUsed=           0 NTot=          32
 NSgBfM=    98    98    98    98    98 MxSgAt=     7 MxSgA2=     7.
 Leave Link  302 at Sat Feb 12 21:40:24 2022, MaxMem=  8589934592 cpu:               1.0 elap:               0.2
 (Enter /home/rr/g16/l303.exe)
 DipDrv:  MaxL=1.
 Leave Link  303 at Sat Feb 12 21:40:24 2022, MaxMem=  8589934592 cpu:               0.2 elap:               0.1
 (Enter /home/rr/g16/l308.exe)
 Leave Link  308 at Sat Feb 12 21:40:24 2022, MaxMem=  8589934592 cpu:               0.2 elap:               0.1
 (Enter /home/rr/g16/l401.exe)
 ExpMin= 6.71D-02 ExpMax= 1.24D+03 ExpMxC= 1.86D+02 IAcc=3 IRadAn=         5 AccDes= 0.00D+00
 Harris functional with IExCor= 4639 and IRadAn=       5 diagonalized for initial guess.
 HarFok:  IExCor= 4639 AccDes= 0.00D+00 IRadAn=         5 IDoV= 1 UseB2=F ITyADJ=14
 ICtDFT=  3500011 ScaDFX=  1.000000  1.000000  1.000000  1.000000
 FoFCou: FMM=F IPFlag=           0 FMFlag=      100000 FMFlg1=           0
         NFxFlg=           0 DoJE=T BraDBF=F KetDBF=T FulRan=T
         wScrn=  0.000000 ICntrl=       500 IOpCl=  0 I1Cent=   200000004 NGrid=           0
         NMat0=    1 NMatS0=      1 NMatT0=    0 NMatD0=    1 NMtDS0=    0 NMtDT0=    0
 Petite list used in FoFCou.
 Harris En= -111.013378020708    
 JPrj=0 DoOrth=F DoCkMO=F.
 Leave Link  401 at Sat Feb 12 21:40:25 2022, MaxMem=  8589934592 cpu:               2.9 elap:               0.4
 (Enter /home/rr/g16/l502.exe)
 Keep R1 ints in memory in canonical form, NReq=26088990.
 FoFCou: FMM=F IPFlag=           0 FMFlag=           0 FMFlg1=           0
         NFxFlg=           0 DoJE=F BraDBF=F KetDBF=F FulRan=T
         wScrn=  0.000000 ICntrl=       600 IOpCl=  0 I1Cent=           0 NGrid=           0
         NMat0=    1 NMatS0=   4278 NMatT0=    0 NMatD0=    1 NMtDS0=    0 NMtDT0=    0
 Symmetry not used in FoFCou.
 Two-electron integral symmetry not used.
 Closed shell SCF:
 Using DIIS extrapolation, IDIIS=  1040.
 NGot=  8589934592 LenX=  8571607774 LenY=  8571597729
 Requested convergence on RMS density matrix=1.00D-08 within 100 cycles.
 Requested convergence on MAX density matrix=1.00D-06.
 Requested convergence on             energy=1.00D-06.
 No special actions if energy rises.
 Integral accuracy reduced to 1.0D-05 until final iterations.

 Cycle   1  Pass 0  IDiag  1:
 E= -116.504141362194    
 DIIS: error= 2.99D-02 at cycle   1 NSaved=   1.
 NSaved= 1 IEnMin= 1 EnMin= -116.504141362194     IErMin= 1 ErrMin= 2.99D-02
 ErrMax= 2.99D-02  0.00D+00 EMaxC= 1.00D-01 BMatC= 6.14D-02 BMatP= 6.14D-02
 IDIUse=3 WtCom= 7.01D-01 WtEn= 2.99D-01
 Coeff-Com:  0.100D+01
 Coeff-En:   0.100D+01
 Coeff:      0.100D+01
 Gap=     0.410 Goal=   None    Shift=    0.000
 GapD=    0.410 DampG=2.000 DampE=0.500 DampFc=1.0000 IDamp=-1.
 RMSDP=1.76D-02 MaxDP=6.34D-01              OVMax= 5.04D-02

 Cycle   2  Pass 0  IDiag  1:
 E= -116.524560102293     Delta-E=       -0.020418740099 Rises=F Damp=F
 DIIS: error= 5.93D-03 at cycle   2 NSaved=   2.
 NSaved= 2 IEnMin= 2 EnMin= -116.524560102293     IErMin= 2 ErrMin= 5.93D-03
 ErrMax= 5.93D-03  0.00D+00 EMaxC= 1.00D-01 BMatC= 4.84D-03 BMatP= 6.14D-02
 IDIUse=3 WtCom= 9.41D-01 WtEn= 5.93D-02
 Coeff-Com:  0.129D+00 0.871D+00
 Coeff-En:   0.000D+00 0.100D+01
 Coeff:      0.121D+00 0.879D+00
 Gap=     0.453 Goal=   None    Shift=    0.000
 RMSDP=3.23D-03 MaxDP=1.44D-01 DE=-2.04D-02 OVMax= 3.73D-02

 Cycle   3  Pass 0  IDiag  1:
 E= -116.526612734506     Delta-E=       -0.002052632214 Rises=F Damp=F
 DIIS: error= 6.37D-03 at cycle   3 NSaved=   3.
 NSaved= 3 IEnMin= 3 EnMin= -116.526612734506     IErMin= 2 ErrMin= 5.93D-03
 ErrMax= 6.37D-03  0.00D+00 EMaxC= 1.00D-01 BMatC= 2.76D-03 BMatP= 4.84D-03
 IDIUse=3 WtCom= 9.36D-01 WtEn= 6.37D-02
 Coeff-Com:  0.139D-01 0.427D+00 0.559D+00
 Coeff-En:   0.000D+00 0.342D+00 0.658D+00
 Coeff:      0.131D-01 0.421D+00 0.566D+00
 Gap=     0.443 Goal=   None    Shift=    0.000
 RMSDP=9.74D-04 MaxDP=3.26D-02 DE=-2.05D-03 OVMax= 2.31D-02

 Cycle   4  Pass 0  IDiag  1:
 E= -116.529013955561     Delta-E=       -0.002401221055 Rises=F Damp=F
 DIIS: error= 1.99D-03 at cycle   4 NSaved=   4.
 NSaved= 4 IEnMin= 4 EnMin= -116.529013955561     IErMin= 4 ErrMin= 1.99D-03
 ErrMax= 1.99D-03  0.00D+00 EMaxC= 1.00D-01 BMatC= 2.53D-04 BMatP= 2.76D-03
 IDIUse=3 WtCom= 9.80D-01 WtEn= 1.99D-02
 Coeff-Com:  0.368D-03 0.154D+00 0.299D+00 0.547D+00
 Coeff-En:   0.000D+00 0.000D+00 0.000D+00 0.100D+01
 Coeff:      0.361D-03 0.151D+00 0.293D+00 0.556D+00
 Gap=     0.440 Goal=   None    Shift=    0.000
 RMSDP=2.84D-04 MaxDP=8.04D-03 DE=-2.40D-03 OVMax= 5.33D-03

 Cycle   5  Pass 0  IDiag  1:
 E= -116.529264433050     Delta-E=       -0.000250477489 Rises=F Damp=F
 DIIS: error= 1.59D-04 at cycle   5 NSaved=   5.
 NSaved= 5 IEnMin= 5 EnMin= -116.529264433050     IErMin= 5 ErrMin= 1.59D-04
 ErrMax= 1.59D-04  0.00D+00 EMaxC= 1.00D-01 BMatC= 2.00D-06 BMatP= 2.53D-04
 IDIUse=3 WtCom= 9.98D-01 WtEn= 1.59D-03
 Coeff-Com: -0.929D-03-0.168D-01-0.143D-01 0.481D-01 0.984D+00
 Coeff-En:   0.000D+00 0.000D+00 0.000D+00 0.000D+00 0.100D+01
 Coeff:     -0.927D-03-0.167D-01-0.143D-01 0.480D-01 0.984D+00
 Gap=     0.441 Goal=   None    Shift=    0.000
 RMSDP=1.03D-04 MaxDP=2.95D-03 DE=-2.50D-04 OVMax= 5.72D-04

 Cycle   6  Pass 0  IDiag  1:
 E= -116.529267563917     Delta-E=       -0.000003130867 Rises=F Damp=F
 DIIS: error= 2.78D-05 at cycle   6 NSaved=   6.
 NSaved= 6 IEnMin= 6 EnMin= -116.529267563917     IErMin= 6 ErrMin= 2.78D-05
 ErrMax= 2.78D-05  0.00D+00 EMaxC= 1.00D-01 BMatC= 7.90D-08 BMatP= 2.00D-06
 IDIUse=1 WtCom= 1.00D+00 WtEn= 0.00D+00
 Coeff-Com: -0.472D-04-0.107D-01-0.184D-01-0.273D-01 0.105D+00 0.952D+00
 Coeff:     -0.472D-04-0.107D-01-0.184D-01-0.273D-01 0.105D+00 0.952D+00
 Gap=     0.441 Goal=   None    Shift=    0.000
 RMSDP=2.05D-05 MaxDP=4.39D-04 DE=-3.13D-06 OVMax= 1.61D-04

 Cycle   7  Pass 0  IDiag  1:
 E= -116.529267705438     Delta-E=       -0.000000141521 Rises=F Damp=F
 DIIS: error= 1.09D-05 at cycle   7 NSaved=   7.
 NSaved= 7 IEnMin= 7 EnMin= -116.529267705438     IErMin= 7 ErrMin= 1.09D-05
 ErrMax= 1.09D-05  0.00D+00 EMaxC= 1.00D-01 BMatC= 1.08D-08 BMatP= 7.90D-08
 IDIUse=1 WtCom= 1.00D+00 WtEn= 0.00D+00
 Coeff-Com:  0.306D-04-0.282D-02-0.550D-02-0.120D-01-0.151D-01 0.331D+00
 Coeff-Com:  0.705D+00
 Coeff:      0.306D-04-0.282D-02-0.550D-02-0.120D-01-0.151D-01 0.331D+00
 Coeff:      0.705D+00
 Gap=     0.441 Goal=   None    Shift=    0.000
 RMSDP=2.71D-06 MaxDP=5.11D-05 DE=-1.42D-07 OVMax= 3.22D-05

 Initial convergence to 1.0D-05 achieved.  Increase integral accuracy.
 Cycle   8  Pass 1  IDiag  1:
 E= -116.529284229756     Delta-E=       -0.000016524317 Rises=F Damp=F
 DIIS: error= 1.80D-05 at cycle   1 NSaved=   1.
 NSaved= 1 IEnMin= 1 EnMin= -116.529284229756     IErMin= 1 ErrMin= 1.80D-05
 ErrMax= 1.80D-05  0.00D+00 EMaxC= 1.00D-01 BMatC= 3.07D-08 BMatP= 3.07D-08
 IDIUse=1 WtCom= 1.00D+00 WtEn= 0.00D+00
 Coeff-Com:  0.100D+01
 Coeff:      0.100D+01
 Gap=     0.441 Goal=   None    Shift=    0.000
 RMSDP=2.71D-06 MaxDP=5.11D-05 DE=-1.65D-05 OVMax= 3.94D-05

 Cycle   9  Pass 1  IDiag  1:
 E= -116.529284255468     Delta-E=       -0.000000025712 Rises=F Damp=F
 DIIS: error= 4.78D-06 at cycle   2 NSaved=   2.
 NSaved= 2 IEnMin= 2 EnMin= -116.529284255468     IErMin= 2 ErrMin= 4.78D-06
 ErrMax= 4.78D-06  0.00D+00 EMaxC= 1.00D-01 BMatC= 8.09D-10 BMatP= 3.07D-08
 IDIUse=1 WtCom= 1.00D+00 WtEn= 0.00D+00
 Coeff-Com: -0.269D-01 0.103D+01
 Coeff:     -0.269D-01 0.103D+01
 Gap=     0.441 Goal=   None    Shift=    0.000
 RMSDP=3.22D-06 MaxDP=9.89D-05 DE=-2.57D-08 OVMax= 1.49D-05

 Cycle  10  Pass 1  IDiag  1:
 E= -116.529284256198     Delta-E=       -0.000000000731 Rises=F Damp=F
 DIIS: error= 1.96D-06 at cycle   3 NSaved=   3.
 NSaved= 3 IEnMin= 3 EnMin= -116.529284256198     IErMin= 3 ErrMin= 1.96D-06
 ErrMax= 1.96D-06  0.00D+00 EMaxC= 1.00D-01 BMatC= 2.88D-10 BMatP= 8.09D-10
 IDIUse=1 WtCom= 1.00D+00 WtEn= 0.00D+00
 Coeff-Com: -0.369D-01 0.376D+00 0.661D+00
 Coeff:     -0.369D-01 0.376D+00 0.661D+00
 Gap=     0.441 Goal=   None    Shift=    0.000
 RMSDP=4.89D-07 MaxDP=2.08D-05 DE=-7.31D-10 OVMax= 6.37D-06

 Cycle  11  Pass 1  IDiag  1:
 E= -116.529284256483     Delta-E=       -0.000000000285 Rises=F Damp=F
 DIIS: error= 6.66D-07 at cycle   4 NSaved=   4.
 NSaved= 4 IEnMin= 4 EnMin= -116.529284256483     IErMin= 4 ErrMin= 6.66D-07
 ErrMax= 6.66D-07  0.00D+00 EMaxC= 1.00D-01 BMatC= 2.63D-11 BMatP= 2.88D-10
 IDIUse=1 WtCom= 1.00D+00 WtEn= 0.00D+00
 Coeff-Com: -0.140D-01 0.107D+00 0.284D+00 0.623D+00
 Coeff:     -0.140D-01 0.107D+00 0.284D+00 0.623D+00
 Gap=     0.441 Goal=   None    Shift=    0.000
 RMSDP=1.16D-07 MaxDP=3.08D-06 DE=-2.85D-10 OVMax= 2.32D-06

 Cycle  12  Pass 1  IDiag  1:
 E= -116.529284256506     Delta-E=       -0.000000000023 Rises=F Damp=F
 DIIS: error= 2.60D-07 at cycle   5 NSaved=   5.
 NSaved= 5 IEnMin= 5 EnMin= -116.529284256506     IErMin= 5 ErrMin= 2.60D-07
 ErrMax= 2.60D-07  0.00D+00 EMaxC= 1.00D-01 BMatC= 4.58D-12 BMatP= 2.63D-11
 IDIUse=1 WtCom= 1.00D+00 WtEn= 0.00D+00
 Coeff-Com:  0.112D-02-0.292D-01-0.500D-02 0.301D+00 0.732D+00
 Coeff:      0.112D-02-0.292D-01-0.500D-02 0.301D+00 0.732D+00
 Gap=     0.441 Goal=   None    Shift=    0.000
 RMSDP=6.43D-08 MaxDP=1.36D-06 DE=-2.30D-11 OVMax= 1.01D-06

 Cycle  13  Pass 1  IDiag  1:
 E= -116.529284256513     Delta-E=       -0.000000000007 Rises=F Damp=F
 DIIS: error= 3.68D-08 at cycle   6 NSaved=   6.
 NSaved= 6 IEnMin= 6 EnMin= -116.529284256513     IErMin= 6 ErrMin= 3.68D-08
 ErrMax= 3.68D-08  0.00D+00 EMaxC= 1.00D-01 BMatC= 1.31D-13 BMatP= 4.58D-12
 IDIUse=1 WtCom= 1.00D+00 WtEn= 0.00D+00
 Coeff-Com:  0.125D-02-0.149D-01-0.232D-01 0.260D-01 0.160D+00 0.851D+00
 Coeff:      0.125D-02-0.149D-01-0.232D-01 0.260D-01 0.160D+00 0.851D+00
 Gap=     0.441 Goal=   None    Shift=    0.000
 RMSDP=2.26D-08 MaxDP=5.87D-07 DE=-6.76D-12 OVMax= 1.59D-07

 Cycle  14  Pass 1  IDiag  1:
 E= -116.529284256511     Delta-E=        0.000000000001 Rises=F Damp=F
 DIIS: error= 1.23D-08 at cycle   7 NSaved=   7.
 NSaved= 7 IEnMin= 6 EnMin= -116.529284256513     IErMin= 7 ErrMin= 1.23D-08
 ErrMax= 1.23D-08  0.00D+00 EMaxC= 1.00D-01 BMatC= 9.41D-15 BMatP= 1.31D-13
 IDIUse=1 WtCom= 1.00D+00 WtEn= 0.00D+00
 Coeff-Com:  0.193D-03-0.962D-03-0.483D-02-0.168D-01-0.188D-01 0.201D+00
 Coeff-Com:  0.841D+00
 Coeff:      0.193D-03-0.962D-03-0.483D-02-0.168D-01-0.188D-01 0.201D+00
 Coeff:      0.841D+00
 Gap=     0.441 Goal=   None    Shift=    0.000
 RMSDP=5.52D-09 MaxDP=1.11D-07 DE= 1.48D-12 OVMax= 5.38D-08

 SCF Done:  E(RwB97XD) =  -116.529284257     A.U. after   14 cycles
            NFock= 14  Conv=0.55D-08     -V/T= 2.0131
 KE= 1.150250287778D+02 PE=-3.860190336177D+02 EE= 9.594067217992D+01
 Leave Link  502 at Sat Feb 12 21:40:28 2022, MaxMem=  8589934592 cpu:              24.6 elap:               3.3
 (Enter /home/rr/g16/l801.exe)
 DoSCS=F DFT=T ScalE2(SS,OS)=  1.000000  1.000000
 ExpMin= 6.71D-02 ExpMax= 1.24D+03 ExpMxC= 1.86D+02 IAcc=3 IRadAn=         5 AccDes= 0.00D+00
 HarFok:  IExCor=  205 AccDes= 0.00D+00 IRadAn=         5 IDoV=-2 UseB2=F ITyADJ=14
 ICtDFT= 12500011 ScaDFX=  1.000000  1.000000  1.000000  1.000000
 Largest valence mixing into a core orbital is  7.28D-05
 Largest core mixing into a valence orbital is  1.72D-05
 Range of M.O.s used for correlation:     4    92
 NBasis=    92 NAE=    11 NBE=    11 NFC=     3 NFV=     0
 NROrb=     89 NOA=     8 NOB=     8 NVA=    81 NVB=    81

 **** Warning!!: The largest alpha MO coefficient is  0.78493936D+02

 Leave Link  801 at Sat Feb 12 21:40:28 2022, MaxMem=  8589934592 cpu:               0.5 elap:               0.1
 (Enter /home/rr/g16/l914.exe)
 RHF ground state
 Keep R1, R2, and R3 ints in memory in canonical form, NReq=572606750.
 FoFCou: FMM=F IPFlag=           0 FMFlag=           0 FMFlg1=           0
         NFxFlg=           0 DoJE=F BraDBF=F KetDBF=F FulRan=T
         wScrn=  0.000000 ICntrl=       600 IOpCl=  0 I1Cent=           0 NGrid=           0
         NMat0=    1 NMatS0=   4278 NMatT0=    0 NMatD0=    1 NMtDS0=    0 NMtDT0=    0
 Symmetry not used in FoFCou.
 Two-electron integral symmetry not used.
 MDV=  8589934592 DFT=T DoStab=F Mixed=T DoRPA=T DoScal=F NonHer=T
 Making orbital integer symmetry assigments:
 Orbital symmetries:
       Occupied  (A) (A) (A) (A) (A) (A) (A) (A) (A) (A) (A)
       Virtual   (A) (A) (A) (A) (A) (A) (A) (A) (A) (A) (A) (A)
                 (A) (A) (A) (A) (A) (A) (A) (A) (A) (A) (A) (A)
                 (A) (A) (A) (A) (A) (A) (A) (A) (A) (A) (A) (A)
                 (A) (A) (A) (A) (A) (A) (A) (A) (A) (A) (A) (A)
                 (A) (A) (A) (A) (A) (A) (A) (A) (A) (A) (A) (A)
                 (A) (A) (A) (A) (A) (A) (A) (A) (A) (A) (A) (A)
                 (A) (A) (A) (A) (A) (A) (A) (A) (A)
   648 initial guesses have been made.
 Convergence on wavefunction:    0.001000000000000
 Davidson Disk Diagonalization:  ConvIn= 1.00D-03 SkipCon=T Conv= 1.00D-03.
 Max sub-space:  3888 roots to seek:  1296 dimension of matrix:         1296
 *** WARNING: Number of orthogonal guesses is          648
 Iteration     1 Dimension   648 NMult     0 NNew    648
 CISAX will form   648 AO SS matrices at one time.
 NMat=   648 NSing=   648 JSym2X= 0.
 New state      1 was old state      4
 New state      2 was old state      3
 New state      3 was old state      5
 New state      4 was old state      1
 New state      5 was old state      2
 New state      6 was old state      7
 New state      7 was old state      8
 New state      8 was old state      9
 New state      9 was old state     10
 New state     10 was old state      6
 New state     11 was old state     14
 New state     13 was old state     11
 New state     14 was old state     13
 New state     15 was old state     17
 New state     16 was old state     19
 New state     17 was old state     20
 New state     18 was old state     15
 New state     19 was old state     16
 New state     20 was old state     18
 New state     23 was old state     24
 New state     24 was old state     23
 New state     25 was old state     30
 New state     26 was old state     36
 New state     27 was old state     37
 New state     28 was old state     26
 New state     29 was old state     28
 New state     30 was old state     29
 New state     31 was old state     27
 New state     32 was old state     33
 New state     33 was old state     32
 New state     34 was old state     31
 New state     35 was old state     25
 New state     36 was old state     39
 New state     37 was old state     40
 New state     38 was old state     43
 New state     39 was old state     42
 New state     40 was old state     45
 New state     41 was old state     44
 New state     42 was old state     38
 New state     43 was old state     54
 New state     44 was old state     53
 New state     45 was old state     34
 New state     46 was old state     35
 New state     47 was old state     56
 New state     48 was old state     41
 New state     49 was old state     46
 New state     50 was old state     47
 New state     51 was old state     52
 New state     52 was old state     50
 New state     53 was old state     51
 New state     54 was old state     64
 New state     55 was old state     62
 New state     56 was old state     60
 New state     57 was old state     61
 New state     58 was old state     48
 New state     59 was old state     63
 New state     60 was old state     65
 New state     61 was old state     49
 New state     62 was old state     55
 New state     63 was old state     57
 New state     64 was old state     58
 New state     65 was old state     66
 New state     66 was old state     67
 New state     67 was old state     75
 New state     68 was old state     76
 New state     69 was old state     59
 New state     70 was old state     69
 New state     71 was old state     68
 New state     72 was old state     70
 New state     73 was old state     72
 New state     74 was old state     73
 New state     75 was old state     77
 New state     76 was old state     80
 New state     77 was old state     81
 New state     78 was old state     71
 New state     79 was old state     88
 New state     80 was old state     89
 New state     81 was old state     74
 New state     82 was old state     78
 New state     83 was old state     79
 New state     84 was old state     82
 New state     85 was old state     83
 New state     86 was old state     85
 New state     87 was old state     84
 New state     88 was old state     86
 New state     89 was old state     90
 New state     90 was old state     91
 New state     91 was old state     87
 New state     92 was old state     94
 New state     93 was old state     95
 New state     94 was old state     96
 New state     95 was old state     97
 New state     96 was old state     99
 New state     97 was old state     98
 New state     98 was old state    100
 New state     99 was old state     93
 New state    100 was old state     92
 New state    101 was old state    123
 New state    102 was old state    124
 New state    103 was old state    110
 New state    104 was old state    111
 New state    105 was old state    113
 New state    106 was old state    112
 New state    107 was old state    103
 New state    108 was old state    101
 New state    109 was old state    102
 New state    110 was old state    114
 New state    111 was old state    115
 New state    112 was old state    106
 New state    113 was old state    108
 New state    114 was old state    109
 New state    115 was old state    107
 New state    116 was old state    104
 New state    117 was old state    105
 New state    118 was old state    121
 New state    119 was old state    122
 New state    120 was old state    129
 New state    121 was old state    130
 New state    122 was old state    125
 New state    123 was old state    116
 New state    124 was old state    117
 New state    125 was old state    120
 New state    126 was old state    119
 New state    127 was old state    118
 New state    128 was old state    126
 New state    129 was old state    132
 New state    130 was old state    133
 New state    131 was old state    128
 New state    132 was old state    127
 New state    133 was old state    138
 New state    138 was old state    139
 New state    139 was old state    141
 New state    141 was old state    150
 New state    142 was old state    151
 New state    143 was old state    146
 New state    144 was old state    147
 New state    145 was old state    143
 New state    146 was old state    154
 New state    147 was old state    155
 New state    148 was old state    131
 New state    149 was old state    148
 New state    150 was old state    158
 New state    151 was old state    159
 New state    154 was old state    168
 New state    155 was old state    167
 New state    156 was old state    149
 New state    157 was old state    169
 New state    158 was old state    164
 New state    159 was old state    172
 New state    160 was old state    170
 New state    161 was old state    165
 New state    162 was old state    178
 New state    163 was old state    177
 New state    164 was old state    171
 New state    165 was old state    162
 New state    166 was old state    163
 New state    167 was old state    161
 New state    168 was old state    184
 New state    169 was old state    183
 New state    170 was old state    174
 New state    171 was old state    160
 New state    172 was old state    173
 New state    173 was old state    175
 New state    174 was old state    176
 New state    175 was old state    181
 New state    176 was old state    166
 New state    177 was old state    156
 New state    178 was old state    157
 New state    179 was old state    180
 New state    180 was old state    179
 New state    181 was old state    188
 New state    182 was old state    189
 New state    183 was old state    194
 New state    184 was old state    186
 New state    185 was old state    187
 New state    186 was old state    190
 New state    187 was old state    195
 New state    188 was old state    192
 New state    189 was old state    193
 New state    190 was old state    197
 New state    191 was old state    196
 New state    192 was old state    182
 New state    193 was old state    203
 New state    194 was old state    202
 New state    195 was old state    185
 New state    196 was old state    201
 New state    197 was old state    199
 New state    198 was old state    229
 New state    199 was old state    230
 New state    200 was old state    209
 New state    201 was old state    191
 New state    202 was old state    205
 New state    203 was old state    206
 New state    204 was old state    208
 New state    205 was old state    207
 New state    206 was old state    204
 New state    207 was old state    217
 New state    208 was old state    200
 New state    209 was old state    210
 New state    210 was old state    211
 New state    211 was old state    198
 New state    212 was old state    218
 New state    213 was old state    222
 New state    214 was old state    223
 New state    216 was old state    225
 New state    217 was old state    226
 New state    218 was old state    220
 New state    219 was old state    221
 New state    220 was old state    212
 New state    221 was old state    213
 New state    222 was old state    224
 New state    223 was old state    228
 New state    224 was old state    227
 New state    225 was old state    219
 New state    226 was old state    216
 New state    227 was old state    214
 New state    228 was old state    246
 New state    229 was old state    233
 New state    230 was old state    232
 New state    231 was old state    235
 New state    232 was old state    236
 New state    233 was old state    234
 New state    234 was old state    247
 New state    235 was old state    248
 New state    236 was old state    238
 New state    237 was old state    239
 New state    238 was old state    240
 New state    239 was old state    241
 New state    240 was old state    231
 New state    241 was old state    242
 New state    242 was old state    237
 New state    244 was old state    245
 New state    245 was old state    244
 New state    246 was old state    252
 New state    247 was old state    251
 New state    248 was old state    261
 New state    251 was old state    253
 New state    252 was old state    255
 New state    253 was old state    256
 New state    254 was old state    257
 New state    255 was old state    258
 No map to state    256
 No map to state    257
 New state    258 was old state    254
 New state    259 was old state    262
 New state    260 was old state    259
 New state    261 was old state    260
 New state    262 was old state    267
 New state    267 was old state    275
 New state    268 was old state    281
 New state    269 was old state    279
 New state    270 was old state    280
 New state    271 was old state    268
 New state    272 was old state    269
 New state    273 was old state    270
 New state    274 was old state    271
 New state    275 was old state    273
 New state    276 was old state    274
 New state    277 was old state    272
 New state    279 was old state    276
 New state    280 was old state    277
 New state    281 was old state    282
 New state    282 was old state    285
 New state    283 was old state    286
 New state    284 was old state    283
 New state    285 was old state    284
 New state    286 was old state    289
 New state    287 was old state    288
 New state    288 was old state    287
 New state    289 was old state    290
 New state    290 was old state    291
 New state    291 was old state    300
 New state    294 was old state    296
 New state    295 was old state    297
 New state    296 was old state    299
 New state    297 was old state    301
 New state    298 was old state    302
 New state    299 was old state    295
 New state    300 was old state    294
 New state    301 was old state    298
 New state    302 was old state    303
 New state    303 was old state    304
 New state    304 was old state    305
 New state    305 was old state    325
 New state    306 was old state    310
 New state    307 was old state    311
 New state    308 was old state    312
 New state    309 was old state    318
 New state    310 was old state    319
 New state    311 was old state    306
 New state    312 was old state    307
 New state    313 was old state    308
 New state    314 was old state    309
 New state    315 was old state    322
 New state    316 was old state    313
 New state    317 was old state    323
 New state    318 was old state    321
 New state    319 was old state    328
 New state    320 was old state    329
 New state    321 was old state    314
 New state    322 was old state    315
 New state    323 was old state    320
 New state    324 was old state    317
 New state    325 was old state    316
 New state    326 was old state    327
 New state    327 was old state    326
 New state    328 was old state    324
 New state    329 was old state    335
 New state    330 was old state    332
 New state    331 was old state    333
 New state    332 was old state    330
 New state    333 was old state    331
 New state    334 was old state    340
 New state    335 was old state    338
 New state    336 was old state    341
 New state    337 was old state    336
 New state    338 was old state    337
 New state    339 was old state    343
 New state    340 was old state    342
 New state    341 was old state    344
 New state    342 was old state    334
 New state    343 was old state    346
 New state    344 was old state    345
 No map to state    345
 New state    346 was old state    356
 New state    347 was old state    357
 New state    348 was old state    352
 New state    349 was old state    355
 New state    350 was old state    353
 New state    351 was old state    354
 New state    352 was old state    358
 New state    353 was old state    359
 New state    354 was old state    365
 New state    355 was old state    349
 New state    356 was old state    351
 New state    357 was old state    350
 New state    358 was old state    347
 New state    359 was old state    360
 New state    360 was old state    361
 New state    361 was old state    362
 New state    362 was old state    368
 New state    363 was old state    366
 New state    364 was old state    367
 New state    365 was old state    363
 New state    366 was old state    364
 New state    367 was old state    373
 New state    368 was old state    375
 New state    373 was old state    374
 New state    374 was old state    376
 New state    375 was old state    377
 New state    376 was old state    378
 New state    377 was old state    380
 New state    378 was old state    389
 New state    379 was old state    381
 New state    380 was old state    379
 New state    381 was old state    383
 New state    383 was old state    386
 New state    384 was old state    387
 New state    385 was old state    388
 New state    386 was old state    390
 New state    387 was old state    391
 New state    388 was old state    395
 New state    389 was old state    396
 New state    390 was old state    392
 New state    391 was old state    384
 New state    392 was old state    385
 New state    393 was old state    403
 New state    395 was old state    393
 New state    396 was old state    411
 New state    397 was old state    399
 New state    398 was old state    400
 New state    399 was old state    401
 New state    400 was old state    402
 New state    401 was old state    397
 New state    402 was old state    398
 New state    403 was old state    404
 New state    404 was old state    405
 New state    405 was old state    406
 New state    406 was old state    408
 New state    408 was old state    410
 New state    409 was old state    414
 New state    410 was old state    409
 New state    411 was old state    412
 New state    412 was old state    413
 New state    413 was old state    428
 New state    414 was old state    415
 New state    415 was old state    416
 New state    416 was old state    422
 New state    418 was old state    420
 New state    419 was old state    418
 New state    420 was old state    421
 New state    421 was old state    419
 No map to state    422
 New state    423 was old state    425
 New state    425 was old state    423
 New state    428 was old state    429
 New state    429 was old state    441
 New state    430 was old state    443
 New state    431 was old state    434
 New state    432 was old state    445
 New state    433 was old state    438
 New state    434 was old state    439
 New state    435 was old state    430
 New state    436 was old state    431
 New state    437 was old state    436
 New state    438 was old state    437
 New state    439 was old state    433
 New state    440 was old state    435
 New state    441 was old state    447
 New state    442 was old state    432
 New state    443 was old state    448
 New state    444 was old state    446
 New state    445 was old state    440
 New state    446 was old state    450
 New state    447 was old state    449
 No map to state    448
 New state    449 was old state    451
 New state    450 was old state    452
 New state    451 was old state    455
 New state    452 was old state    456
 New state    453 was old state    458
 New state    454 was old state    444
 New state    455 was old state    442
 New state    456 was old state    457
 New state    457 was old state    463
 New state    458 was old state    462
 New state    459 was old state    453
 New state    460 was old state    454
 New state    461 was old state    459
 New state    462 was old state    465
 New state    463 was old state    464
 New state    464 was old state    460
 New state    465 was old state    461
 New state    466 was old state    471
 New state    467 was old state    472
 New state    468 was old state    470
 New state    469 was old state    467
 New state    470 was old state    466
 New state    471 was old state    468
 New state    472 was old state    469
 New state    474 was old state    478
 New state    475 was old state    476
 New state    476 was old state    485
 New state    477 was old state    486
 New state    478 was old state    475
 New state    479 was old state    477
 New state    480 was old state    483
 New state    481 was old state    484
 New state    482 was old state    480
 New state    483 was old state    479
 New state    484 was old state    481
 New state    485 was old state    482
 New state    486 was old state    474
 New state    489 was old state    496
 New state    490 was old state    495
 New state    491 was old state    489
 New state    492 was old state    490
 New state    493 was old state    491
 New state    494 was old state    492
 New state    495 was old state    497
 New state    496 was old state    498
 New state    497 was old state    493
 New state    498 was old state    494
 New state    500 was old state    506
 New state    501 was old state    502
 New state    502 was old state    503
 New state    503 was old state    504
 New state    504 was old state    501
 New state    505 was old state    500
 New state    506 was old state    507
 New state    507 was old state    505
 New state    511 was old state    516
 New state    512 was old state    517
 New state    513 was old state    512
 New state    514 was old state    513
 New state    515 was old state    514
 New state    516 was old state    511
 New state    517 was old state    515
 New state    519 was old state    527
 New state    520 was old state    528
 New state    521 was old state    526
 New state    522 was old state    525
 New state    523 was old state    521
 New state    524 was old state    523
 New state    525 was old state    531
 New state    526 was old state    532
 New state    527 was old state    534
 New state    528 was old state    533
 New state    529 was old state    524
 New state    530 was old state    522
 New state    531 was old state    519
 New state    532 was old state    520
 New state    533 was old state    529
 New state    534 was old state    530
 New state    538 was old state    539
 New state    539 was old state    538
 New state    541 was old state    542
 New state    542 was old state    543
 New state    543 was old state    541
 New state    546 was old state    547
 New state    547 was old state    548
 New state    548 was old state    549
 New state    549 was old state    550
 New state    550 was old state    546
 New state    553 was old state    555
 New state    554 was old state    553
 New state    555 was old state    554
 New state    556 was old state    563
 New state    557 was old state    564
 New state    559 was old state    556
 New state    560 was old state    557
 New state    561 was old state    560
 New state    562 was old state    559
 New state    563 was old state    561
 New state    564 was old state    562
 New state    568 was old state    569
 New state    569 was old state    570
 New state    570 was old state    568
 New state    574 was old state    577
 New state    577 was old state    578
 New state    578 was old state    574
 New state    579 was old state    582
 New state    580 was old state    583
 New state    581 was old state    580
 New state    582 was old state    581
 New state    583 was old state    579
 New state    584 was old state    586
 New state    586 was old state    584
 New state    590 was old state    592
 New state    592 was old state    590
 New state    593 was old state    595
 New state    594 was old state    597
 New state    595 was old state    596
 New state    596 was old state    599
 New state    597 was old state    593
 New state    598 was old state    594
 New state    599 was old state    598
 New state    600 was old state    601
 New state    601 was old state    602
 New state    602 was old state    600
 New state    603 was old state    607
 New state    604 was old state    610
 New state    605 was old state    608
 New state    606 was old state    609
 New state    607 was old state    611
 New state    608 was old state    612
 New state    609 was old state    603
 New state    610 was old state    604
 New state    611 was old state    606
 New state    612 was old state    605
 New state    620 was old state    621
 New state    621 was old state    620
 New state    622 was old state    624
 New state    624 was old state    622
 New state    625 was old state    626
 New state    626 was old state    625
 New state    628 was old state    630
 New state    629 was old state    631
 New state    630 was old state    628
 New state    631 was old state    629
 New state    643 was old state    645
 New state    644 was old state    643
 New state    645 was old state    644
 Excitation Energies [eV] at current iteration:
 Root      1 :     6.655799128099649
 Root      2 :     6.908671405212321
 Root      3 :     6.908673272431682
 Root      4 :     7.616104327936650
 Root      5 :     7.616188743258420
 Root      6 :     8.713062180747514
 Root      7 :     8.713076314517489
 Root      8 :     9.377587448013818
 Root      9 :     9.377639525322641
 Root     10 :     9.711937801936337
 Root     11 :    10.555194988253210
 Root     12 :    10.585429590669760
 Root     13 :    10.585443436505100
 Root     14 :    10.930781645476360
 Root     15 :    11.141758815010790
 Root     16 :    11.159207114606960
 Root     17 :    11.159265472206500
 Root     18 :    11.257159773162820
 Root     19 :    11.257174734587650
 Root     20 :    11.263212671249600
 Root     21 :    11.872727473879680
 Root     22 :    11.872781243959390
 Root     23 :    12.084328204452240
 Root     24 :    12.084353925758740
 Root     25 :    12.106219849266310
 Root     26 :    12.146827612306020
 Root     27 :    12.146848657821590
 Root     28 :    12.234564332126980
 Root     29 :    12.339887162901890
 Root     30 :    12.339891319142980
 Root     31 :    12.587558410418420
 Root     32 :    12.606097782723710
 Root     33 :    12.606101382593010
 Root     34 :    12.915571751737730
 Root     35 :    13.030434394277980
 Root     36 :    13.506064652100040
 Root     37 :    13.506130734867170
 Root     38 :    13.555960223780600
 Root     39 :    13.639563802314060
 Root     40 :    13.920263157038030
 Root     41 :    13.920268740925900
 Root     42 :    14.018180379191040
 Root     43 :    14.351547089510800
 Root     44 :    14.351554260644810
 Root     45 :    14.410403311526070
 Root     46 :    14.410448803018630
 Root     47 :    14.461740650029310
 Root     48 :    14.483162245232870
 Root     49 :    14.496560172425200
 Root     50 :    14.496583751349220
 Root     51 :    14.621230354607250
 Root     52 :    14.621264120481250
 Root     53 :    14.686387447905580
 Root     54 :    14.867118951594300
 Root     55 :    14.895200578458630
 Root     56 :    14.910204165814020
 Root     57 :    14.910219126087960
 Root     58 :    15.145593744371610
 Root     59 :    15.164282005345220
 Root     60 :    15.164285650779980
 Root     61 :    15.257830392828980
 Root     62 :    15.466272339020800
 Root     63 :    15.552942841863800
 Root     64 :    15.552972814703190
 Root     65 :    15.781599629953650
 Root     66 :    15.781618535482090
 Root     67 :    15.874485383706320
 Root     68 :    15.874508673478440
 Root     69 :    15.962550808342250
 Root     70 :    16.009637693236140
 Root     71 :    16.009654767168170
 Root     72 :    16.093826027512100
 Root     73 :    16.108369235419170
 Root     74 :    16.108384497369470
 Root     75 :    16.422568758006410
 Root     76 :    16.436641495353290
 Root     77 :    16.436673332839880
 Root     78 :    16.686806989321210
 Root     79 :    16.880465562631870
 Root     80 :    16.880476810002100
 Root     81 :    16.976619671674210
 Root     82 :    17.058578369602240
 Root     83 :    17.058597285839530
 Root     84 :    17.094613349890950
 Root     85 :    17.094622243101770
 Root     86 :    17.137664041853950
 Root     87 :    17.137703750885220
 Root     88 :    17.210733677521240
 Root     89 :    17.263266003162250
 Root     90 :    17.263289708357050
 Root     91 :    17.291608302041200
 Root     92 :    17.414015593751240
 Root     93 :    17.414058128290340
 Root     94 :    17.733768411453780
 Root     95 :    17.769778144543750
 Root     96 :    17.769781439075580
 Root     97 :    17.830383446351660
 Root     98 :    18.028518085777990
 Root     99 :    18.123789123328950
 Root    100 :    18.123829466591670
 Root    101 :    18.527645288463820
 Root    102 :    18.527648182263860
 Root    103 :    18.564761535072420
 Root    104 :    18.578296600194780
 Root    105 :    18.638888561988820
 Root    106 :    18.638925459561310
 Root    107 :    18.769838820955280
 Root    108 :    18.826588683821460
 Root    109 :    18.826603446418780
 Root    110 :    18.841890342954230
 Root    111 :    18.841949760728530
 Root    112 :    18.875987653880560
 Root    113 :    18.951915341214960
 Root    114 :    18.951940568302620
 Root    115 :    18.952790152770100
 Root    116 :    19.087990905870780
 Root    117 :    19.087999101397550
 Root    118 :    19.313493836290050
 Root    119 :    19.313549695915260
 Root    120 :    19.421249057111790
 Root    121 :    19.421251670264920
 Root    122 :    19.493804088741580
 Root    123 :    19.620100572875770
 Root    124 :    19.620102553461380
 Root    125 :    19.675410203489290
 Root    126 :    19.731653072728690
 Root    127 :    19.741619361497620
 Root    128 :    19.942624504949250
 Root    129 :    20.178640506566870
 Root    130 :    20.178706124167280
 Root    131 :    20.298990970225060
 Root    132 :    20.299006763144150
 Root    133 :    20.337992010600000
 Root    134 :    20.347435448478730
 Root    135 :    20.347458988555520
 Root    136 :    20.381541746681680
 Root    137 :    20.422379414871770
 Root    138 :    20.549488351862720
 Root    139 :    20.573440476253920
 Root    140 :    20.573457029461380
 Root    141 :    20.617112770763870
 Root    142 :    20.617127378391610
 Root    143 :    20.683281687597170
 Root    144 :    20.683309188623070
 Root    145 :    20.751510867338750
 Root    146 :    20.807526667442310
 Root    147 :    20.807529213329850
 Root    148 :    20.831985138853610
 Root    149 :    20.870810329842430
 Root    150 :    20.914382402314680
 Root    151 :    20.914394493628340
 Root    152 :    20.936049331314890
 Root    153 :    20.936054115486210
 Root    154 :    21.057720512879330
 Root    155 :    21.057736909200420
 Root    156 :    21.184575294838910
 Root    157 :    21.462285070010090
 Root    158 :    21.568932842684900
 Root    159 :    21.700206171123400
 Root    160 :    21.700219868670860
 Root    161 :    21.721135497565660
 Root    162 :    21.733079108773670
 Root    163 :    21.733086657696600
 Root    164 :    21.790818251126530
 Root    165 :    21.834190740743940
 Root    166 :    21.834230474599700
 Root    167 :    21.878221943421590
 Root    168 :    21.943482271074620
 Root    169 :    21.943495677194780
 Root    170 :    21.987376558992110
 Root    171 :    22.070957908563120
 Root    172 :    22.212652449533880
 Root    173 :    22.212682718389870
 Root    174 :    22.278766395486530
 Root    175 :    22.280019488179740
 Root    176 :    22.339025316904180
 Root    177 :    22.388639091602400
 Root    178 :    22.388701521713070
 Root    179 :    22.512444404208920
 Root    180 :    22.512467486491190
 Root    181 :    22.777609810736830
 Root    182 :    22.777704003735720
 Root    183 :    22.840235058739160
 Root    184 :    23.045348194203170
 Root    185 :    23.045377094197450
 Root    186 :    23.144352471919410
 Root    187 :    23.271842463046100
 Root    188 :    23.273661814266700
 Root    189 :    23.273736164919520
 Root    190 :    23.376067148029480
 Root    191 :    23.376083272553470
 Root    192 :    23.401831312275430
 Root    193 :    23.490123300612960
 Root    194 :    23.490202344562930
 Root    195 :    23.591221804658920
 Root    196 :    23.867015907289260
 Root    197 :    23.902648980371870
 Root    198 :    23.958690374157340
 Root    199 :    23.958729599667270
 Root    200 :    24.020418412620040
 Root    201 :    24.225535485832590
 Root    202 :    24.356581234676050
 Root    203 :    24.356608417526230
 Root    204 :    24.483451528272760
 Root    205 :    24.483461204769180
 Root    206 :    24.583447949964530
 Root    207 :    24.596906049805680
 Root    208 :    24.603065893798270
 Root    209 :    24.635943618135140
 Root    210 :    24.636028559620190
 Root    211 :    24.694341181744050
 Root    212 :    24.801775286834270
 Root    213 :    24.942323569867940
 Root    214 :    24.942361688409290
 Root    215 :    24.948492277483080
 Root    216 :    25.043370549164170
 Root    217 :    25.043399711272480
 Root    218 :    25.167784946531340
 Root    219 :    25.167861786347630
 Root    220 :    25.186477368504390
 Root    221 :    25.186500125264230
 Root    222 :    25.205637519061610
 Root    223 :    25.281062780949250
 Root    224 :    25.281154363765480
 Root    225 :    25.401906550421220
 Root    226 :    25.503967493842880
 Root    227 :    25.504087527504060
 Root    228 :    25.622105743343280
 Root    229 :    25.707191537583910
 Root    230 :    25.707278658655920
 Root    231 :    25.931957740632100
 Root    232 :    25.932008414807870
 Root    233 :    26.187617419594470
 Root    234 :    26.196103560289580
 Root    235 :    26.196220707875810
 Root    236 :    26.336914997801330
 Root    237 :    26.336955968426970
 Root    238 :    26.564713617235400
 Root    239 :    26.564727827976250
 Root    240 :    26.586747598345970
 Root    241 :    26.589897774280690
 Root    242 :    26.733539297980520
 Root    243 :    26.909651029320980
 Root    244 :    27.068346867703010
 Root    245 :    27.068363323202450
 Root    246 :    27.110653283338390
 Root    247 :    27.110688884299150
 Root    248 :    27.270922684696880
 Root    249 :    27.759267357525450
 Root    250 :    27.759398699019990
 Root    251 :    27.958972777451780
 Root    252 :    28.108590934215350
 Root    253 :    28.108673661523570
 Root    254 :    28.206901107830070
 Root    255 :    28.206953520829550
 Root    256 :    28.336732301982410
 Root    257 :    28.336798131472660
 Root    258 :    28.470504686487670
 Root    259 :    28.689373726027270
 Root    260 :    28.702699307671690
 Root    261 :    28.805985232042140
 Root    262 :    28.919804482537550
 Root    263 :    29.082278318526840
 Root    264 :    29.082303735175350
 Root    265 :    29.293508078082160
 Root    266 :    29.293540689069260
 Root    267 :    29.304456396950720
 Root    268 :    29.318958645964830
 Root    269 :    29.318992444630130
 Root    270 :    29.474912282266460
 Root    271 :    29.532982907555220
 Root    272 :    29.533063682846670
 Root    273 :    29.664453214734830
 Root    274 :    29.664507632402160
 Root    275 :    29.887205790638390
 Root    276 :    29.887232748539440
 Root    277 :    30.050561970865420
 Root    278 :    30.222380113211200
 Root    279 :    30.264500193040970
 Root    280 :    30.264564759666120
 Root    281 :    30.625742382643040
 Root    282 :    30.821019953582420
 Root    283 :    30.821123717522280
 Root    284 :    30.829774071099470
 Root    285 :    30.920821838988710
 Root    286 :    31.347851818156980
 Root    287 :    31.507359302456760
 Root    288 :    31.731718994762000
 Root    289 :    31.810173218861030
 Root    290 :    31.810247969341880
 Root    291 :    32.037170857681810
 Root    292 :    32.342051586338130
 Root    293 :    32.342121183793830
 Root    294 :    32.436996731266590
 Root    295 :    32.437034342016320
 Root    296 :    32.463053691624210
 Root    297 :    32.463061328214070
 Root    298 :    32.516148892132710
 Root    299 :    32.619942694036790
 Root    300 :    32.620022885981410
 Root    301 :    32.686027761771770
 Root    302 :    33.034046148057560
 Root    303 :    33.067686869767760
 Root    304 :    33.067781935987510
 Root    305 :    33.233031072896690
 Root    306 :    33.495278810276300
 Root    307 :    33.495313676308290
 Root    308 :    33.653709573473510
 Root    309 :    33.794174308543400
 Root    310 :    33.794231177299980
 Root    311 :    33.858675992410230
 Root    312 :    33.858746786835470
 Root    313 :    34.198916867832300
 Root    314 :    34.198941976086640
 Root    315 :    34.331196383974360
 Root    316 :    34.478138826591110
 Root    317 :    34.484380543108790
 Root    318 :    34.484438758704240
 Root    319 :    34.511366378484290
 Root    320 :    34.511384700581470
 Root    321 :    34.561207370557090
 Root    322 :    34.561269001438140
 Root    323 :    34.628056814513510
 Root    324 :    34.829115637399620
 Root    325 :    34.829134542545920
 Root    326 :    34.914169197102740
 Root    327 :    34.914187285718680
 Root    328 :    34.967038472670230
 Root    329 :    35.260921064918430
 Root    330 :    35.502118113143410
 Root    331 :    35.502136027220080
 Root    332 :    36.046072296138280
 Root    333 :    36.046167940414260
 Root    334 :    36.099337966760260
 Root    335 :    36.099361216657480
 Root    336 :    36.267181970148510
 Root    337 :    36.344689453850540
 Root    338 :    36.344737302354780
 Root    339 :    36.555747273431550
 Root    340 :    36.555757851197130
 Root    341 :    36.628322320881670
 Root    342 :    36.836684983114740
 Root    343 :    36.992372727912730
 Root    344 :    36.992406869018220
 Root    345 :    37.446665910934520
 Root    346 :    38.064725748235400
 Root    347 :    38.064770750984100
 Root    348 :    38.210758816139570
 Root    349 :    38.235281765727190
 Root    350 :    38.235312092699580
 Root    351 :    38.309974317467170
 Root    352 :    38.312501643509980
 Root    353 :    38.312555956804660
 Root    354 :    38.653261047051900
 Root    355 :    38.803455723240520
 Root    356 :    38.831065321517710
 Root    357 :    38.831087230881320
 Root    358 :    39.042652479557920
 Root    359 :    39.046424247771360
 Root    360 :    39.046482268967540
 Root    361 :    39.684431216415920
 Root    362 :    39.891657567147100
 Root    363 :    39.956069918638360
 Root    364 :    39.956136480316990
 Root    365 :    40.138669338040980
 Root    366 :    40.138690930718870
 Root    367 :    40.291902403645200
 Root    368 :    40.651138848084040
 Root    369 :    40.831961899037830
 Root    370 :    40.832034181187940
 Root    371 :    41.059356252258370
 Root    372 :    41.059458848282940
 Root    373 :    41.510035520361090
 Root    374 :    41.688086971842290
 Root    375 :    41.688143244661080
 Root    376 :    41.689464006937000
 Root    377 :    42.146750749580990
 Root    378 :    42.630785629334730
 Root    379 :    43.142785033442300
 Root    380 :    43.167178807576530
 Root    381 :    43.280785893371100
 Root    382 :    43.280807336418210
 Root    383 :    43.421823353870340
 Root    384 :    43.432073935109900
 Root    385 :    43.432236100912110
 Root    386 :    43.627554679790250
 Root    387 :    43.627640859525330
 Root    388 :    43.962823157267030
 Root    389 :    43.962895998431820
 Root    390 :    44.125813096116810
 Root    391 :    44.204762285589750
 Root    392 :    44.204820257454620
 Root    393 :    44.291196415191610
 Root    394 :    44.368802180041270
 Root    395 :    44.368837022057280
 Root    396 :    44.555042741591120
 Root    397 :    45.427502560882530
 Root    398 :    45.557044386797520
 Root    399 :    45.557134679225030
 Root    400 :    45.955956814836830
 Root    401 :    46.066679812509240
 Root    402 :    46.066926619842290
 Root    403 :    46.405667310381410
 Root    404 :    46.405683930705960
 Root    405 :    46.509891873337250
 Root    406 :    46.936817121922270
 Root    407 :    46.936820260971320
 Root    408 :    47.018865402417070
 Root    409 :    47.389576305930150
 Root    410 :    47.920749309644880
 Root    411 :    47.940400366785980
 Root    412 :    47.940483718030970
 Root    413 :    48.392673692632130
 Root    414 :    48.420362858133700
 Root    415 :    48.420427188525350
 Root    416 :    48.428519621062850
 Root    417 :    48.929116763027900
 Root    418 :    48.998528173754790
 Root    419 :    48.998554209268920
 Root    420 :    49.143162770827180
 Root    421 :    49.383506247671920
 Root    422 :    49.762664942416430
 Root    423 :    50.039532767782990
 Root    424 :    50.039546868792680
 Root    425 :    50.165313983707920
 Root    426 :    50.485431619799530
 Root    427 :    50.485679567315520
 Root    428 :    51.169736082690640
 Root    429 :    51.200785460332280
 Root    430 :    51.221439607464820
 Root    431 :    52.130668570319020
 Root    432 :    52.156689643373460
 Root    433 :    52.171555519302170
 Root    434 :    52.171568212200260
 Root    435 :    52.181445530590950
 Root    436 :    52.181496176836800
 Root    437 :    52.413868666258810
 Root    438 :    52.413970122891090
 Root    439 :    52.477387537538490
 Root    440 :    52.477515806982280
 Root    441 :    52.718279465007440
 Root    442 :    52.865511676476390
 Root    443 :    52.873796697695840
 Root    444 :    52.873821260485530
 Root    445 :    53.166483939012270
 Root    446 :    53.463473738819400
 Root    447 :    53.463571662081310
 Root    448 :    53.473763000213080
 Root    449 :    54.523912807579710
 Root    450 :    54.523939797898490
 Root    451 :    54.889162639404800
 Root    452 :    54.889171479032430
 Root    453 :    54.972318234862830
 Root    454 :    55.220199020711870
 Root    455 :    55.220214267340370
 Root    456 :    55.368580326168650
 Root    457 :    55.378987494946680
 Root    458 :    55.379006228276220
 Root    459 :    55.617757370636060
 Root    460 :    55.617803542392820
 Root    461 :    55.823137983507960
 Root    462 :    56.062156042426800
 Root    463 :    56.280333776144150
 Root    464 :    56.794456285802220
 Root    465 :    56.794566747091560
 Root    466 :    57.113325762335360
 Root    467 :    57.113354056673620
 Root    468 :    57.370370677304920
 Root    469 :    57.536688817610810
 Root    470 :    57.543776166530780
 Root    471 :    57.822293733253460
 Root    472 :    57.822295883610320
 Root    473 :    58.309546788678520
 Root    474 :    58.991975641873190
 Root    475 :    59.010285147935990
 Root    476 :    59.054854134688250
 Root    477 :    59.054902218300550
 Root    478 :    59.206319188101430
 Root    479 :    59.206375050185290
 Root    480 :    59.557048320953480
 Root    481 :    59.557181259624340
 Root    482 :    59.780501928359130
 Root    483 :    59.812884150155540
 Root    484 :    59.812934704049060
 Root    485 :    59.815203680119860
 Root    486 :    59.957446679899410
 Root    487 :    60.357373188841860
 Root    488 :    60.357438482649290
 Root    489 :    60.374451356142220
 Root    490 :    60.380390264707390
 Root    491 :    60.757869999189320
 Root    492 :    60.758171590112500
 Root    493 :    61.744822546989870
 Root    494 :    61.744872909319210
 Root    495 :    62.037334559031810
 Root    496 :    62.037416876792910
 Root    497 :    62.185971589670530
 Root    498 :    62.185992376704270
 Root    499 :    62.295061034455730
 Root    500 :    62.557234112197220
 Root    501 :    62.599509952635040
 Root    502 :    62.599601092362480
 Root    503 :    62.680820834957780
 Root    504 :    62.862677806848380
 Root    505 :    62.862743371281720
 Root    506 :    63.042875797571420
 Root    507 :    63.042955723886670
 Root    508 :    63.369208915014260
 Root    509 :    63.539821232449900
 Root    510 :    63.539919814452750
 Root    511 :    63.988307000614450
 Root    512 :    63.988348537077900
 Root    513 :    64.485248628344960
 Root    514 :    64.485265905880230
 Root    515 :    64.514952927242020
 Root    516 :    64.765157467856800
 Root    517 :    65.065511207744620
 Root    518 :    65.747963130298340
 Root    519 :    65.982202308502350
 Root    520 :    65.982244672964460
 Root    521 :    66.149498186766070
 Root    522 :    66.149542461538790
 Root    523 :    66.487399552059640
 Root    524 :    66.491439825100830
 Root    525 :    66.568875034999100
 Root    526 :    66.568912657240130
 Root    527 :    66.592186584400410
 Root    528 :    66.592259530263730
 Root    529 :    66.641675582538210
 Root    530 :    66.641773618875150
 Root    531 :    66.935481602194330
 Root    532 :    66.935558501929210
 Root    533 :    67.143259657345870
 Root    534 :    67.143295211683760
 Root    535 :    67.572773203034360
 Root    536 :    68.389270103280230
 Root    537 :    68.389408240884360
 Root    538 :    68.717984211833350
 Root    539 :    68.845737029677640
 Root    540 :    68.845741978755290
 Root    541 :    69.105219659972330
 Root    542 :    69.105264829943040
 Root    543 :    69.121371561220780
 Root    544 :    69.613470804001520
 Root    545 :    69.613672442398150
 Root    546 :    70.171108060355350
 Root    547 :    70.171161386035220
 Root    548 :    70.669160137759580
 Root    549 :    70.669188658489990
 Root    550 :    70.697348282998860
 Root    551 :    71.366195185203220
 Root    552 :    71.366256599754440
 Root    553 :    71.896303858470830
 Root    554 :    71.951404138204550
 Root    555 :    71.951667072491030
 Root    556 :    72.376812318686590
 Root    557 :    72.376841868090320
 Root    558 :    73.007892869436520
 Root    559 :    73.211534747026550
 Root    560 :    73.211662395510870
 Root    561 :    73.721409897497580
 Root    562 :    73.764032858175840
 Root    563 :    73.764043535844510
 Root    564 :    74.141737305889460
 Root    565 :    74.629873101422060
 Root    566 :    74.825631959232380
 Root    567 :    74.825740759280850
 Root    568 :    75.450910064561190
 Root    569 :    75.450988979711340
 Root    570 :    75.571525493844690
 Root    571 :    76.453817517583810
 Root    572 :    76.454081249073330
 Root    573 :    76.628931919786940
 Root    574 :    77.099869161016340
 Root    575 :    77.551986948488790
 Root    576 :    77.552048686271860
 Root    577 :    77.553329127046040
 Root    578 :    77.798305318607080
 Root    579 :    78.251355636974180
 Root    580 :    78.251477305719480
 Root    581 :    78.556136684119290
 Root    582 :    78.556337273222820
 Root    583 :    78.787883621007170
 Root    584 :    80.414945165627320
 Root    585 :    80.808046519152280
 Root    586 :    80.808047513910520
 Root    587 :    81.418494462843950
 Root    588 :    81.418592264962330
 Root    589 :    82.595884735511550
 Root    590 :    84.064098448738580
 Root    591 :    84.064119221656240
 Root    592 :    84.391637823718340
 Root    593 :    85.052508464712740
 Root    594 :    85.062372464684860
 Root    595 :    85.062392880103390
 Root    596 :    85.235867734102260
 Root    597 :    85.371664393704170
 Root    598 :    85.371731335518650
 Root    599 :    85.798581708686630
 Root    600 :    87.469415319855440
 Root    601 :    87.469490437354450
 Root    602 :    88.652230114621620
 Root    603 :    89.692981000931620
 Root    604 :    89.695138384230260
 Root    605 :    89.695189262197670
 Root    606 :    89.755840133892010
 Root    607 :    90.362601182786530
 Root    608 :    90.362775356651300
 Root    609 :    90.477315914752570
 Root    610 :    90.493650424912840
 Root    611 :    90.493672444062570
 Root    612 :    90.509403542971640
 Root    613 :    90.773035506877350
 Root    614 :    90.773044920252300
 Root    615 :    92.328931515818980
 Root    616 :    92.727008381116690
 Root    617 :    92.727153901663610
 Root    618 :    93.636157573481810
 Root    619 :    93.636382266450040
 Root    620 :    93.694276960030720
 Root    621 :    93.941815174932940
 Root    622 :    94.357416109643170
 Root    623 :    94.357477382264620
 Root    624 :    94.499604268990570
 Root    625 :    96.042260087444720
 Root    626 :    96.042275769418580
 Root    627 :    96.662819617935810
 Root    628 :    97.183388928798960
 Root    629 :    97.183556105135820
 Root    630 :    98.044402547177360
 Root    631 :    98.044491572369990
 Root    632 :    98.358866959736160
 Root    633 :    99.182662252528460
 Root    634 :    99.182828815994360
 Root    635 :   101.709322685581100
 Root    636 :   101.709359261813400
 Root    637 :   103.228114749828800
 Root    638 :   103.770230824133300
 Root    639 :   103.770303325783100
 Root    640 :   105.208626275236700
 Root    641 :   110.685759852493200
 Root    642 :   110.685770046733200
 Root    643 :   117.089796901319600
 Root    644 :   117.109284764887600
 Root    645 :   117.109342566587300
 Root    646 :   118.328972110201700
 Root    647 :   123.744936231546400
 Root    648 :   126.087772644026400
 Convergence achieved for final wavefunctions.
 ***********************************************************************
 Excited states from <AA,BB:AA,BB> singles matrix:
 ***********************************************************************
 
 1PDM for each excited state written to RWF  633
 Ground to excited state transition densities written to RWF  633
 Ground to excited state transition electric dipole moments (Au):
       state          X           Y           Z        Dip. S.      Osc.
         1         0.0000      0.0000      0.0000      0.0000      0.0000
         2         0.0601     -0.0126     -0.0001      0.0038      0.0006
         3        -0.0126     -0.0601     -0.0004      0.0038      0.0006
         4        -0.4099     -0.0374     -0.0002      0.1694      0.0316
         5         0.0374     -0.4099     -0.0029      0.1694      0.0316
         6        -0.3021     -0.0238     -0.0002      0.0918      0.0196
         7         0.0238     -0.3021     -0.0021      0.0918      0.0196
         8        -0.5734     -0.0384     -0.0003      0.3303      0.0759
         9         0.0384     -0.5734     -0.0039      0.3303      0.0759
        10         0.0001     -0.0143      2.0562      4.2280      1.0060
        11        -0.0000      0.0000      0.0000      0.0000      0.0000
        12        -0.1285      0.0097      0.0002      0.0166      0.0043
        13         0.0097      0.1285      0.0009      0.0166      0.0043
        14         0.0001     -0.0074      1.0687      1.1423      0.3059
        15         0.0001     -0.0000     -0.0000      0.0000      0.0000
        16        -0.0864     -0.0126     -0.0000      0.0076      0.0021
        17         0.0126     -0.0864     -0.0005      0.0076      0.0021
        18         0.1885     -0.1208     -0.0011      0.0501      0.0138
        19         0.1208      0.1885      0.0009      0.0501      0.0138
        20         0.0007     -0.0003      0.1108      0.0123      0.0034
        21        -0.6657      0.0526      0.0004      0.4460      0.1297
        22        -0.0526     -0.6657     -0.0046      0.4459      0.1297
        23         0.3213     -0.0435     -0.0003      0.1051      0.0311
        24         0.0435      0.3215      0.0022      0.1052      0.0312
        25         0.0001      0.0006      0.0000      0.0000      0.0000
        26         0.0878      0.0058      0.0000      0.0077      0.0023
        27        -0.0058      0.0875      0.0006      0.0077      0.0023
        28        -0.0000      0.0000     -0.0000      0.0000      0.0000
        29        -0.1175     -0.0510     -0.0003      0.0164      0.0050
        30        -0.0509      0.1176      0.0008      0.0164      0.0050
        31        -0.0005      0.0013     -0.1577      0.0249      0.0077
        32         0.0091     -0.2105     -0.0016      0.0444      0.0137
        33        -0.2105     -0.0091      0.0003      0.0444      0.0137
        34         0.0000     -0.0034      0.4827      0.2330      0.0737
        35        -0.0000      0.0055     -0.7875      0.6201      0.1980
        36        -0.0075      0.0004      0.0000      0.0001      0.0000
        37        -0.0004     -0.0075     -0.0000      0.0001      0.0000
        38        -0.0000     -0.0001     -0.0000      0.0000      0.0000
        39         0.0001      0.0022     -0.3087      0.0953      0.0319
        40        -0.6218     -0.0825     -0.0006      0.3934      0.1342
        41         0.0825     -0.6218     -0.0043      0.3934      0.1342
        42         0.0001     -0.0014      0.1942      0.0377      0.0130
        43         0.3209     -0.2494     -0.0018      0.1652      0.0581
        44        -0.2494     -0.3209     -0.0022      0.1652      0.0581
        45        -0.0021      0.0001      0.0001      0.0000      0.0000
        46        -0.0001     -0.0020     -0.0000      0.0000      0.0000
        47        -0.0000     -0.0001     -0.0000      0.0000      0.0000
        48         0.0001     -0.0066      0.9352      0.8746      0.3103
        49        -0.2047     -0.0532     -0.0001      0.0447      0.0159
        50         0.0532     -0.2046     -0.0020      0.0447      0.0159
        51        -0.0894     -0.0039      0.0000      0.0080      0.0029
        52         0.0040     -0.0895     -0.0006      0.0080      0.0029
        53        -0.0001     -0.0001      0.0000      0.0000      0.0000
        54        -0.0001     -0.0002     -0.0000      0.0000      0.0000
        55        -0.0007     -0.0013      0.1587      0.0252      0.0092
        56        -0.2436      0.6875      0.0048      0.5320      0.1943
        57         0.6874      0.2436      0.0019      0.5319      0.1943
        58         0.0002      0.0017     -0.2565      0.0658      0.0244
        59        -0.0601      0.2066      0.0013      0.0463      0.0172
        60         0.2066      0.0601      0.0005      0.0463      0.0172
        61         0.0000     -0.0025      0.3579      0.1281      0.0479
        62        -0.0002     -0.0014      0.1996      0.0398      0.0151
        63        -0.9659      0.0288      0.0002      0.9338      0.3558
        64        -0.0288     -0.9660     -0.0067      0.9340      0.3559
        65        -0.5032      0.1159      0.0009      0.2666      0.1031
        66        -0.1159     -0.5031     -0.0035      0.2666      0.1031
        67        -0.0617      0.0128      0.0001      0.0040      0.0015
        68        -0.0129     -0.0616     -0.0004      0.0040      0.0015
        69        -0.0001     -0.0004      0.0510      0.0026      0.0010
        70         0.0753      0.7333      0.0051      0.5434      0.2131
        71         0.7334     -0.0754     -0.0005      0.5435      0.2132
        72        -0.0005     -0.0027     -0.0000      0.0000      0.0000
        73         0.7117     -0.3323     -0.0024      0.6170      0.2435
        74        -0.3324     -0.7117     -0.0049      0.6170      0.2435
        75        -0.0000      0.0012     -0.1657      0.0275      0.0110
        76         0.1295      0.0081     -0.0000      0.0168      0.0068
        77        -0.0081      0.1295      0.0009      0.0168      0.0068
        78        -0.0000     -0.0019      0.2654      0.0704      0.0288
        79         0.0614     -0.0167     -0.0001      0.0040      0.0017
        80         0.0167      0.0613      0.0005      0.0040      0.0017
        81        -0.0000      0.0028     -0.3970      0.1576      0.0655
        82        -0.0009      0.0111      0.0001      0.0001      0.0001
        83        -0.0113     -0.0009     -0.0000      0.0001      0.0001
        84        -0.4910     -0.1754     -0.0012      0.2719      0.1139
        85         0.1754     -0.4910     -0.0034      0.2718      0.1138
        86         0.0798      0.0042      0.0001      0.0064      0.0027
        87         0.0042     -0.0799     -0.0006      0.0064      0.0027
        88         0.0001     -0.0028      0.4075      0.1660      0.0700
        89        -0.3153     -0.0146     -0.0000      0.0997      0.0421
        90         0.0146     -0.3154     -0.0022      0.0997      0.0422
        91        -0.0000      0.0001     -0.0000      0.0000      0.0000
        92        -0.0142      0.4304      0.0030      0.1854      0.0791
        93         0.4305      0.0142      0.0002      0.1855      0.0791
        94        -0.0001     -0.0001      0.0000      0.0000      0.0000
        95        -0.1571      0.2264      0.0015      0.0760      0.0331
        96        -0.2264     -0.1571     -0.0011      0.0759      0.0331
        97        -0.0001     -0.0010      0.1432      0.0205      0.0090
        98         0.0000      0.0096     -1.3819      1.9097      0.8435
        99        -0.2621      0.0136     -0.0001      0.0689      0.0306
       100        -0.0136     -0.2621     -0.0018      0.0689      0.0306
       101         0.0232      0.0340      0.0003      0.0017      0.0008
       102         0.0340     -0.0231     -0.0000      0.0017      0.0008
       103         0.0002     -0.0011      0.1514      0.0229      0.0104
       104        -0.0000     -0.0001      0.0000      0.0000      0.0000
       105        -0.1225     -0.0151      0.0000      0.0152      0.0070
       106         0.0151     -0.1225     -0.0009      0.0152      0.0070
       107        -0.0001     -0.0001      0.0162      0.0003      0.0001
[...]
      8   0.352703D-05 -0.506068D-05 -0.168196D-05 -0.158731D-05 -0.321642D-05
      9  -0.957832D-02 -0.740033D-05  0.250314D-04 -0.265307D+00  0.338913D-01
     10  -0.131034D-01 -0.861831D-04 -0.330970D-05 -0.339656D-01 -0.265448D+00
     11  -0.129544D-02  0.350177D+00  0.401969D+00 -0.337745D-04 -0.608299D-04
     12   0.347647D-01  0.321904D+00  0.157119D+00 -0.284283D+00  0.170713D-01
     13  -0.373089D-01  0.321643D+00  0.157132D+00  0.284313D+00 -0.170961D-01
     14   0.606667D-01  0.241644D-03  0.741395D-05 -0.262317D-01 -0.204997D+00
     15  -0.443137D-01 -0.194858D-03 -0.286435D-04  0.204891D+00 -0.261699D-01
     16  -0.429365D-01 -0.155285D-03  0.636196D-05  0.171153D-01  0.284361D+00
               581           582           583           584           585 
      1  -0.113642D+03 -0.113642D+03 -0.113634D+03 -0.113574D+03 -0.113560D+03
      2   0.135781D-04 -0.811108D-05  0.236068D-01  0.918711D-01  0.190025D-05
      3   0.454951D-03  0.176679D-01  0.532083D-05  0.000000D+00  0.102717D-01
      4   0.176401D-01 -0.460457D-03 -0.479041D-05  0.253420D-05 -0.696706D-02
      5  -0.292268D-04  0.193175D-04 -0.731131D-01 -0.232695D+00 -0.720023D-05
      6  -0.947176D-03 -0.368493D-01 -0.129965D-04  0.000000D+00 -0.272490D-01
      7  -0.367773D-01  0.961350D-03  0.123996D-04 -0.588010D-05  0.184823D-01
      8  -0.334973D-05 -0.462995D-05  0.000000D+00  0.000000D+00 -0.151919D-05
      9  -0.636688D+00  0.165129D-01 -0.714651D-04  0.112173D-04  0.132116D+00
     10   0.165337D-01  0.636593D+00 -0.244098D-04  0.208444D-04  0.194839D+00
     11  -0.453999D-04  0.410402D-04  0.603404D+00 -0.559962D+00  0.453057D-04
     12  -0.742035D-01  0.691443D-02  0.575417D-01  0.638028D-01  0.623605D-01
     13   0.741755D-01 -0.689966D-02  0.575665D-01  0.638062D-01 -0.623682D-01
     14   0.150351D-01  0.578685D+00 -0.266936D-04  0.192591D-04  0.207202D+00
     15   0.578782D+00 -0.150112D-01  0.841208D-04 -0.696543D-05 -0.140488D+00
     16  -0.693469D-02 -0.741072D-01  0.661253D-05  0.486995D-05 -0.798519D-01
               586           587           588           589           590 
      1  -0.113560D+03 -0.113537D+03 -0.113537D+03 -0.113494D+03 -0.113440D+03
      2  -0.268937D-05 -0.214689D-05  0.000000D+00 -0.431565D-01  0.183796D-05
      3   0.696604D-02  0.181358D-01  0.660583D-01 -0.138482D-05  0.629486D-01
      4   0.102739D-01 -0.660626D-01  0.181385D-01  0.670091D-05 -0.341414D-01
      5   0.963802D-05  0.492673D-05 -0.118162D-05  0.117452D+00 -0.459519D-05
      6  -0.184796D-01 -0.476233D-01 -0.173464D+00  0.370425D-05 -0.132572D+00
      7  -0.272545D-01  0.173474D+00 -0.476296D-01 -0.162704D-04  0.719006D-01
      8  -0.170863D-05  0.000000D+00  0.000000D+00  0.000000D+00 -0.112164D-05
      9  -0.194807D+00  0.283267D+00 -0.777676D-01 -0.402439D-05 -0.811446D-01
     10   0.132126D+00  0.777648D-01  0.283250D+00  0.648845D-05 -0.149615D+00
     11  -0.407232D-04 -0.988705D-05 -0.119783D-04 -0.489760D+00  0.370265D-05
     12  -0.798563D-01 -0.223450D-01  0.454085D-02 -0.117981D-01 -0.418947D-02
     13   0.798646D-01  0.223345D-01 -0.454189D-02 -0.117881D-01  0.419552D-02
     14   0.140509D+00  0.995816D-01  0.362711D+00  0.823955D-05 -0.268887D+00
     15   0.207152D+00 -0.362716D+00  0.995812D-01 -0.288783D-05  0.145826D+00
     16  -0.623627D-01  0.455867D-02  0.223587D-01  0.000000D+00  0.661980D-02
               591           592           593           594           595 
      1  -0.113440D+03 -0.113428D+03 -0.113404D+03 -0.113403D+03 -0.113403D+03
      2   0.393724D-05 -0.409992D-01 -0.930057D-01 -0.483380D-04  0.217075D-04
      3   0.341430D-01  0.235189D-05  0.693132D-05 -0.170486D-02  0.320540D-01
      4   0.629390D-01  0.175068D-05 -0.421538D-05  0.320573D-01  0.170511D-02
      5  -0.129682D-04  0.107072D+00  0.304762D+00  0.155931D-03 -0.708345D-04
      6  -0.719054D-01 -0.538428D-05 -0.169719D-04  0.442822D-02 -0.832539D-01
      7  -0.132547D+00 -0.414138D-05  0.121185D-04 -0.832615D-01 -0.442834D-02
      8   0.000000D+00  0.000000D+00  0.109252D-05 -0.109745D-05 -0.483409D-05
      9   0.149583D+00 -0.105477D-04  0.563174D-05  0.109119D+00  0.580642D-02
     10  -0.811473D-01 -0.100684D-04 -0.203707D-04  0.580694D-02 -0.109139D+00
     11  -0.729466D-05 -0.609414D+00  0.160637D+00 -0.624572D-04 -0.502012D-04
     12   0.662699D-02 -0.187146D-02 -0.660056D-01  0.433592D-01 -0.592123D-03
     13  -0.663256D-02 -0.188516D-02 -0.659812D-01 -0.433960D-01  0.621815D-03
     14  -0.145840D+00 -0.482965D-05 -0.218346D-04  0.796477D-02 -0.149751D+00
     15  -0.268825D+00  0.340522D-05  0.176213D-04 -0.149731D+00 -0.796838D-02
     16   0.419065D-02  0.000000D+00  0.144927D-04  0.603435D-03  0.433808D-01
               596           597           598           599           600 
      1  -0.113397D+03 -0.113392D+03 -0.113392D+03 -0.113376D+03 -0.113315D+03
      2   0.000000D+00  0.668486D-05  0.437220D-05  0.113893D+00  0.346253D-05
      3  -0.976373D-05 -0.146240D-01 -0.204885D-01  0.000000D+00  0.224749D-01
      4   0.000000D+00  0.204890D-01 -0.146240D-01  0.447616D-05 -0.560559D-01
      5  -0.204951D-05 -0.232709D-04 -0.122197D-04 -0.370197D+00 -0.102822D-04
      6   0.255217D-04  0.374448D-01  0.524602D-01 -0.179077D-05 -0.561449D-01
      7   0.000000D+00 -0.524620D-01  0.374443D-01 -0.977623D-05  0.140035D+00
      8  -0.814121D-02  0.203617D-05  0.411883D-05  0.000000D+00  0.000000D+00
      9   0.290948D-05  0.163332D+00 -0.116576D+00  0.321326D-04 -0.790774D-02
     10   0.360305D-04  0.116558D+00  0.163298D+00  0.431774D-05 -0.315918D-02
     11   0.232356D-05  0.724072D-04 -0.351801D-04  0.147555D+01 -0.134585D-05
     12   0.000000D+00 -0.877327D-01  0.541324D-01 -0.430427D-01  0.792490D-01
     13   0.000000D+00  0.877201D-01 -0.541165D-01 -0.430547D-01 -0.792341D-01
     14   0.236027D-04  0.243451D+00  0.341072D+00 -0.551467D-05  0.800947D-02
     15  -0.130337D-04 -0.341090D+00  0.243463D+00 -0.758670D-05 -0.199571D-01
     16  -0.349757D-04  0.541328D-01  0.877318D-01  0.000000D+00 -0.257555D-01
               601           602           603           604           605 
      1  -0.113315D+03 -0.113271D+03 -0.113233D+03 -0.113233D+03 -0.113233D+03
      2   0.000000D+00 -0.674578D-02  0.215543D-05 -0.610861D-05 -0.410732D-05
      3   0.560511D-01 -0.195600D-05 -0.507133D-02  0.946575D-01 -0.360823D-01
      4   0.224761D-01  0.000000D+00  0.254245D-02 -0.359915D-01 -0.947838D-01
      5   0.168018D-05  0.236175D-01 -0.281221D-04  0.962361D-04  0.847880D-04
      6  -0.140022D+00  0.547089D-05  0.146983D-01 -0.274369D+00  0.104586D+00
      7  -0.561480D-01 -0.248117D-05 -0.736891D-02  0.104325D+00  0.274739D+00
      8  -0.380849D-05  0.000000D+00  0.676210D-02  0.377866D-03  0.388167D-04
      9   0.316532D-02 -0.164218D-04  0.149383D-01 -0.211359D+00 -0.556583D+00
     10  -0.788379D-02  0.323559D-05  0.297653D-01 -0.555835D+00  0.211865D+00
     11   0.828079D-05  0.537522D+00  0.369878D-03 -0.137369D-02 -0.132269D-02
     12  -0.257566D-01 -0.286665D-01  0.282442D-02 -0.413380D-01 -0.900592D-01
     13   0.257529D-01 -0.286692D-01 -0.278811D-02  0.412001D-01  0.899368D-01
     14   0.199710D-01  0.200998D-05  0.307617D-01 -0.574132D+00  0.218839D+00
     15   0.800592D-02  0.301053D-04 -0.154314D-01  0.218311D+00  0.574893D+00
     16  -0.792419D-01 -0.126172D-05 -0.476923D-02  0.898582D-01 -0.413562D-01
               606           607           608           609           610 
      1  -0.113231D+03 -0.113209D+03 -0.113209D+03 -0.113204D+03 -0.113204D+03
      2   0.834247D-02 -0.138040D-05  0.214879D-05  0.000000D+00 -0.705626D-04
      3   0.706076D-04  0.203171D-01  0.125843D-02  0.646094D-04  0.183959D-02
      4  -0.133015D-03  0.125575D-02 -0.203123D-01  0.959410D-05  0.169565D-01
      5  -0.957586D-01  0.600782D-05 -0.855500D-05  0.000000D+00  0.229813D-03
      6  -0.204106D-03 -0.439871D-01 -0.272554D-02 -0.199121D-03 -0.548797D-02
      7   0.387763D-03 -0.271806D-02  0.439755D-01 -0.309891D-04 -0.505822D-01
      8  -0.165600D-05 -0.133036D-04  0.150932D-05 -0.226394D-01  0.292068D-04
      9  -0.791267D-03  0.563712D-02 -0.911036D-01  0.112602D-03  0.109188D+00
     10  -0.394050D-03 -0.909832D-01 -0.562814D-02 -0.457163D-03 -0.118638D-01
     11   0.121522D+01 -0.272508D-04  0.200322D-04  0.127030D-05 -0.321303D-02
     12   0.604614D-01  0.400749D-03  0.757273D-01  0.429725D-04  0.688811D-01
     13   0.607350D-01 -0.404814D-03 -0.757328D-01 -0.429655D-04 -0.688204D-01
     14  -0.425147D-03 -0.334961D+00 -0.207256D-01 -0.691941D-03 -0.189733D-01
     15   0.819062D-03 -0.207324D-01  0.335073D+00 -0.162004D-03 -0.174627D+00
     16   0.493309D-04 -0.757544D-01  0.402238D-03  0.327374D-03  0.121882D-01
               611           612           613           614           615 
      1  -0.113204D+03 -0.113203D+03 -0.113193D+03 -0.113193D+03 -0.113136D+03
      2   0.304883D-04 -0.167874D-01  0.165530D-05  0.000000D+00 -0.176528D-01
      3   0.169780D-01  0.159892D-04 -0.541339D-01 -0.103140D+00 -0.221661D-05
      4  -0.184381D-02 -0.640723D-04 -0.103143D+00  0.541364D-01  0.244676D-05
      5  -0.996865D-04  0.542220D-01 -0.645016D-05 -0.149702D-05  0.453861D-01
      6  -0.506411D-01 -0.485228D-04  0.148383D+00  0.282709D+00  0.631625D-05
      7   0.549899D-02  0.189869D-03  0.282716D+00 -0.148389D+00 -0.727339D-05
      8   0.996330D-04  0.000000D+00  0.604842D-05  0.433071D-05  0.000000D+00
      9  -0.118303D-01 -0.457967D-03  0.263468D+00 -0.138278D+00  0.269161D-04
     10  -0.109275D+00 -0.153029D-03 -0.138296D+00 -0.263487D+00  0.260144D-04
     11   0.144303D-02 -0.843643D+00  0.760310D-05  0.546109D-04  0.653919D+00
     12  -0.121942D-01  0.923361D-02  0.236456D-01 -0.145029D-01 -0.123559D+00
     13   0.121681D-01  0.980350D-02 -0.236536D-01  0.145154D-01 -0.123569D+00
     14  -0.174803D+00 -0.223222D-03 -0.837382D-01 -0.159553D+00  0.157808D-04
     15   0.189345D-01  0.705615D-03 -0.159502D+00  0.837169D-01 -0.389044D-05
     16   0.688290D-01  0.745313D-04  0.145050D-01  0.236293D-01  0.000000D+00
               616           617           618           619           620 
      1  -0.113122D+03 -0.113122D+03 -0.113088D+03 -0.113088D+03 -0.113086D+03
      2  -0.149089D-05  0.137296D-05  0.110215D-04  0.149592D-04  0.222879D-05
      3   0.498174D-01  0.346108D-02  0.753660D-01  0.114178D-01  0.904122D-04
      4   0.346128D-02 -0.498185D-01  0.114215D-01 -0.753704D-01 -0.701259D-04
      5   0.427412D-05 -0.624556D-05 -0.373623D-04 -0.515719D-04 -0.759480D-05
      6  -0.149606D+00 -0.103940D-01 -0.215304D+00 -0.326182D-01 -0.259248D-03
      7  -0.103946D-01  0.149609D+00 -0.326288D-01  0.215317D+00  0.200512D-03
      8  -0.227416D-05  0.000000D+00  0.365118D-04  0.301518D-04 -0.306350D-01
      9  -0.253248D-01  0.364557D+00  0.869859D-01 -0.573984D+00 -0.519417D-03
     10   0.364560D+00  0.253333D-01 -0.573998D+00 -0.869503D-01 -0.730581D-03
     11  -0.373819D-05  0.000000D+00 -0.745571D-04 -0.710198D-04 -0.129347D-04
     12  -0.689199D-05  0.224037D-02  0.288637D-02 -0.346947D-01 -0.366934D-04
     13   0.615419D-05 -0.223983D-02 -0.290530D-02  0.346653D-01  0.312069D-04
     14   0.378299D+00  0.262869D-01 -0.394277D+00 -0.597194D-01 -0.524011D-03
     15   0.262786D-01 -0.378292D+00 -0.597537D-01  0.394259D+00  0.358888D-03
     16  -0.223663D-02 -0.350385D-05  0.346796D-01  0.289319D-02  0.304098D-04
               621           622           623           624           625 
      1  -0.113077D+03 -0.113062D+03 -0.113062D+03 -0.113056D+03 -0.113000D+03
      2  -0.105128D+00 -0.155477D-04  0.473502D-05  0.599405D-01  0.165454D-05
      3   0.995180D-05 -0.278134D-02 -0.434306D-02 -0.123521D-05  0.711281D-02
      4  -0.133726D-04 -0.434501D-02  0.278869D-02  0.401287D-05  0.718080D-02
      5   0.352022D+00  0.533466D-04 -0.150970D-04 -0.178723D+00 -0.808530D-05
      6  -0.292054D-04  0.128332D-01  0.200323D-01  0.299652D-05 -0.247105D-01
      7   0.380469D-04  0.200369D-01 -0.128540D-01 -0.126728D-04 -0.249446D-01
      8   0.000000D+00 -0.880457D-05 -0.575866D-05  0.000000D+00 -0.142986D-05
      9   0.000000D+00 -0.370621D+00  0.237596D+00  0.841808D-04  0.218337D+00
     10  -0.106605D-03  0.237542D+00  0.370587D+00 -0.863178D-05 -0.216338D+00
     11   0.124455D+01  0.355668D-03 -0.591236D-04  0.350336D+00 -0.506447D-04
     12   0.370293D-01  0.447388D-01 -0.331158D-01  0.666489D-01 -0.632745D-01
     13   0.370635D-01 -0.447076D-01  0.330993D-01  0.666611D-01  0.632602D-01
     14  -0.977264D-04  0.277040D+00  0.432204D+00 -0.227973D-04 -0.313753D+00
     15  -0.298913D-04  0.432250D+00 -0.277098D+00 -0.824345D-04 -0.316652D+00
     16  -0.490259D-05  0.331044D-01  0.447400D-01 -0.630213D-05 -0.717263D-01
               626           627           628           629           630 
      1  -0.113000D+03 -0.112977D+03 -0.112958D+03 -0.112958D+03 -0.112926D+03
      2  -0.205840D-05 -0.690805D-01  0.000000D+00  0.123676D-05 -0.417253D-05
      3  -0.717877D-02  0.389155D-05 -0.874572D-01 -0.258902D-02  0.183067D-01
      4   0.711497D-02  0.245139D-05 -0.258920D-02  0.874543D-01 -0.126009D-02
      5   0.478172D-05  0.236986D+00  0.264467D-05 -0.446989D-05  0.153045D-04
      6   0.249391D-01 -0.116573D-04  0.243322D+00  0.720305D-02 -0.482673D-01
      7  -0.247154D-01 -0.689692D-05  0.720352D-02 -0.243313D+00  0.332210D-02
      8   0.000000D+00  0.000000D+00 -0.137556D-05  0.000000D+00  0.000000D+00
      9   0.216331D+00  0.256132D-04 -0.669812D-02  0.226130D+00  0.652237D-02
     10   0.218343D+00 -0.224314D-04  0.226165D+00  0.669248D-02  0.946562D-01
     11   0.139759D-04  0.155227D+01  0.682730D-04  0.632561D-04  0.232099D-04
     12  -0.717273D-01 -0.256565D-01 -0.231442D-02 -0.618495D-01  0.515659D-02
     13   0.717085D-01 -0.256515D-01  0.231765D-02  0.618663D-01 -0.516947D-02
     14   0.316656D+00 -0.235801D-04  0.302553D+00  0.895349D-02  0.207468D+00
     15  -0.313735D+00 -0.340052D-04  0.895982D-02 -0.302527D+00 -0.142919D-01
     16   0.632831D-01 -0.368369D-05  0.618487D-01 -0.232433D-02 -0.377765D-01
               631           632           633           634           635 
      1  -0.112926D+03 -0.112915D+03 -0.112884D+03 -0.112884D+03 -0.112792D+03
      2   0.000000D+00 -0.382811D-01  0.200505D-05  0.580847D-05 -0.153486D-05
      3   0.126171D-02 -0.128500D-05  0.710409D-01  0.323663D-02  0.325055D-01
      4   0.183055D-01  0.000000D+00  0.323651D-02 -0.710384D-01  0.331343D-02
      5   0.000000D+00  0.139090D+00 -0.582747D-05 -0.166802D-04  0.474947D-05
      6  -0.332693D-02  0.334591D-05 -0.201066D+00 -0.916050D-02 -0.978409D-01
      7  -0.482633D-01  0.000000D+00 -0.916018D-02  0.201058D+00 -0.997331D-02
      8   0.000000D+00  0.000000D+00  0.299304D-05 -0.110452D-05  0.111063D-05
      9  -0.946345D-01  0.000000D+00  0.186722D-01 -0.409731D+00  0.450560D-01
     10   0.651381D-02 -0.181206D-04 -0.409756D+00 -0.186650D-01 -0.442013D+00
     11   0.121582D-04 -0.353074D-01 -0.237851D-05  0.117655D-04  0.181847D-04
     12  -0.377720D-01 -0.685144D-01  0.129998D-02  0.602595D-01 -0.463368D-02
     13   0.377768D-01 -0.685107D-01 -0.129803D-02 -0.602606D-01  0.463071D-02
     14   0.142855D-01 -0.304843D-04 -0.238013D+00 -0.108390D-01 -0.362350D+00
     15   0.207451D+00  0.175766D-04 -0.108495D-01  0.238001D+00 -0.369378D-01
     16  -0.516543D-02  0.302047D-05 -0.602600D-01  0.130023D-02 -0.134394D+00
               636           637           638           639           640 
      1  -0.112792D+03 -0.112736D+03 -0.112716D+03 -0.112716D+03 -0.112663D+03
      2  -0.103086D-05 -0.541589D-01  0.337933D-05  0.000000D+00  0.221200D-01
      3  -0.331386D-02 -0.258796D-05 -0.424429D-01 -0.680553D-02 -0.142383D-05
      4   0.325086D-01  0.354542D-05  0.680580D-02 -0.424414D-01  0.000000D+00
      5   0.536987D-05  0.149418D+00 -0.929394D-05 -0.148308D-05 -0.348684D-01
      6   0.997441D-02  0.789551D-05  0.125669D+00  0.201506D-01  0.395881D-05
      7  -0.978492D-01 -0.111347D-04 -0.201512D-01  0.125665D+00  0.000000D+00
      8   0.245599D-05  0.000000D+00  0.000000D+00 -0.135862D-05  0.000000D+00
      9   0.442022D+00  0.324782D-05  0.484374D-01 -0.302055D+00 -0.243612D-04
     10   0.450536D-01  0.549308D-05  0.302062D+00  0.484347D-01 -0.404471D-05
     11   0.254789D-04 -0.391361D+00  0.772778D-05 -0.132411D-04 -0.124249D+01
     12  -0.134381D+00 -0.135627D+00 -0.156476D-01  0.680466D-01 -0.418961D-01
     13   0.134387D+00 -0.135620D+00  0.156591D-01 -0.680471D-01 -0.419026D-01
     14   0.369328D-01  0.178148D-05  0.334519D+00  0.536399D-01 -0.662827D-05
     15  -0.362360D+00  0.141366D-04 -0.536401D-01  0.334510D+00  0.150231D-04
     16   0.463996D-02  0.423228D-05  0.680478D-01  0.156521D-01 -0.102766D-05
               641           642           643           644           645 
      1  -0.112462D+03 -0.112462D+03 -0.112226D+03 -0.112226D+03 -0.112226D+03
      2   0.166810D-05  0.000000D+00 -0.646462D-01 -0.240162D-04 -0.187133D-04
      3   0.311178D-02  0.205614D-01 -0.273183D-05  0.141382D-03  0.821107D-02
      4   0.205618D-01 -0.311175D-02 -0.217784D-05  0.821022D-02 -0.141620D-03
      5  -0.616886D-05  0.365238D-05  0.246814D+00  0.912073D-04  0.710904D-04
      6  -0.101761D-01 -0.672399D-01  0.963262D-05 -0.486977D-03 -0.282733D-01
      7  -0.672412D-01  0.101760D-01  0.728545D-05 -0.282707D-01  0.487509D-03
      8   0.216543D-05  0.360993D-05  0.000000D+00  0.000000D+00  0.000000D+00
      9  -0.472943D+00  0.715760D-01 -0.447010D-04  0.926768D-01 -0.159865D-02
     10   0.715752D-01  0.472943D+00  0.202849D-04 -0.159547D-02 -0.926814D-01
     11   0.143604D-04 -0.196251D-04 -0.544250D+00 -0.154916D-03 -0.159426D-03
     12   0.932841D-02 -0.205699D-02 -0.281168D-01 -0.382433D-01  0.322646D-02
     13  -0.933996D-02  0.206139D-02 -0.281440D-01  0.382129D-01 -0.323974D-02
     14   0.864358D-01  0.571132D+00  0.317428D-04 -0.232771D-02 -0.135099D+00
     15   0.571132D+00 -0.864355D-01  0.618551D-04 -0.135092D+00  0.232760D-02
     16   0.206088D-02  0.932510D-02  0.122869D-04 -0.323088D-02 -0.382387D-01
               646           647           648 
      1  -0.112181D+03 -0.111982D+03 -0.111896D+03
      2  -0.130986D-01 -0.601834D-01 -0.912596D-02
      3   0.000000D+00  0.000000D+00  0.000000D+00
      4   0.000000D+00  0.000000D+00  0.000000D+00
      5   0.503152D-01  0.216186D+00  0.759051D-01
      6  -0.172775D-05 -0.106526D-05  0.000000D+00
      7   0.248448D-05 -0.194796D-05 -0.265379D-05
      8   0.000000D+00  0.000000D+00  0.000000D+00
      9   0.288926D-05 -0.129190D-05 -0.635518D-05
     10   0.000000D+00  0.000000D+00  0.166433D-05
     11   0.105379D+01 -0.226019D-01 -0.650805D+00
     12  -0.160488D+00  0.469180D-01 -0.444878D-02
     13  -0.160489D+00  0.469189D-01 -0.445010D-02
     14   0.573917D-05  0.454646D-05  0.656241D-05
     15  -0.143186D-04 -0.358389D-05 -0.961132D-05
     16   0.000000D+00  0.000000D+00  0.000000D+00
 Unable to Open any file for archive entry.
 1\1\GINC-HEL04\SP\RwB97XD TD-FC\Gen\C3H4\RR\12-Feb-2022\0\\#P TD(Nstat
 es=10000) wB97XD/Gen SCF(maxcycles=100) Int(Grid=ultrafine)\\xGDB7_000
 01_tier4.com\\0,1\C,0,1.242403,-0.000002,0.000002\C,0,-0.21716,0.00000
 7,-0.000017\C,0,-1.425672,0.,0.000001\H,0,1.634008,0.901553,-0.493944\
 H,0,1.633994,-0.878573,-0.533766\H,0,1.633962,-0.022997,1.027763\H,0,-
 2.49939,-0.000016,0.000029\\Version=EM64L-G16RevC.01\State=1-A\HF=-116
 .5292843\RMSD=5.516e-09\PG=C01 [X(C3H4)]\\@
 The archive entry for this job was punched.


 There was a great rattling of the words for the fewness of ideas.
                   -- Charles Baxter in Gryphon
 Job cpu time:       0 days  0 hours 11 minutes 10.9 seconds.
 Elapsed time:       0 days  0 hours  1 minutes 24.4 seconds.
 File lengths (MBytes):  RWF=    545 Int=      0 D2E=      0 Chk=    132 Scr=      1
 Normal termination of Gaussian 16 at Sat Feb 12 21:41:48 2022.
