 Entering Gaussian System, Link 0=g16
 Input=bigQM7w_TDwB97XD_def2SVPD_000011.com
 Output=bigQM7w_TDwB97XD_def2SVPD_000011.log
 Initial command:
 /home/rr/g16/l1.exe "/scratch/rr/PBS_7839456.helios/Gau-63872.inp" -scrdir="/scratch/rr/PBS_7839456.helios/"
 Entering Link 1 = /home/rr/g16/l1.exe PID=     63877.
  
 Copyright (c) 1988-2019, Gaussian, Inc.  All Rights Reserved.
  
 This is part of the Gaussian(R) 16 program.  It is based on
 the Gaussian(R) 09 system (copyright 2009, Gaussian, Inc.),
 the Gaussian(R) 03 system (copyright 2003, Gaussian, Inc.),
 the Gaussian(R) 98 system (copyright 1998, Gaussian, Inc.),
 the Gaussian(R) 94 system (copyright 1995, Gaussian, Inc.),
 the Gaussian 92(TM) system (copyright 1992, Gaussian, Inc.),
 the Gaussian 90(TM) system (copyright 1990, Gaussian, Inc.),
 the Gaussian 88(TM) system (copyright 1988, Gaussian, Inc.),
 the Gaussian 86(TM) system (copyright 1986, Carnegie Mellon
 University), and the Gaussian 82(TM) system (copyright 1983,
 Carnegie Mellon University). Gaussian is a federally registered
 trademark of Gaussian, Inc.
  
 This software contains proprietary and confidential information,
 including trade secrets, belonging to Gaussian, Inc.
  
 This software is provided under written license and may be
 used, copied, transmitted, or stored only in accord with that
 written license.
  
 The following legend is applicable only to US Government
 contracts under FAR:
  
                    RESTRICTED RIGHTS LEGEND
  
 Use, reproduction and disclosure by the US Government is
 subject to restrictions as set forth in subparagraphs (a)
 and (c) of the Commercial Computer Software - Restricted
 Rights clause in FAR 52.227-19.
  
 Gaussian, Inc.
 340 Quinnipiac St., Bldg. 40, Wallingford CT 06492
  
  
 ---------------------------------------------------------------
 Warning -- This program may not be used in any manner that
 competes with the business of Gaussian, Inc. or will provide
 assistance to any competitor of Gaussian, Inc.  The licensee
 of this program is prohibited from giving any competitor of
 Gaussian, Inc. access to this program.  By using this program,
 the user acknowledges that Gaussian, Inc. is engaged in the
 business of creating and licensing software in the field of
 computational chemistry and represents and warrants to the
 licensee that it is not a competitor of Gaussian, Inc. and that
 it will not use this program in any manner prohibited above.
 ---------------------------------------------------------------
  

 Cite this work as:
 Gaussian 16, Revision C.01,
 M. J. Frisch, G. W. Trucks, H. B. Schlegel, G. E. Scuseria, 
 M. A. Robb, J. R. Cheeseman, G. Scalmani, V. Barone, 
 G. A. Petersson, H. Nakatsuji, X. Li, M. Caricato, A. V. Marenich, 
 J. Bloino, B. G. Janesko, R. Gomperts, B. Mennucci, H. P. Hratchian, 
 J. V. Ortiz, A. F. Izmaylov, J. L. Sonnenberg, D. Williams-Young, 
 F. Ding, F. Lipparini, F. Egidi, J. Goings, B. Peng, A. Petrone, 
 T. Henderson, D. Ranasinghe, V. G. Zakrzewski, J. Gao, N. Rega, 
 G. Zheng, W. Liang, M. Hada, M. Ehara, K. Toyota, R. Fukuda, 
 J. Hasegawa, M. Ishida, T. Nakajima, Y. Honda, O. Kitao, H. Nakai, 
 T. Vreven, K. Throssell, J. A. Montgomery, Jr., J. E. Peralta, 
 F. Ogliaro, M. J. Bearpark, J. J. Heyd, E. N. Brothers, K. N. Kudin, 
 V. N. Staroverov, T. A. Keith, R. Kobayashi, J. Normand, 
 K. Raghavachari, A. P. Rendell, J. C. Burant, S. S. Iyengar, 
 J. Tomasi, M. Cossi, J. M. Millam, M. Klene, C. Adamo, R. Cammi, 
 J. W. Ochterski, R. L. Martin, K. Morokuma, O. Farkas, 
 J. B. Foresman, and D. J. Fox, Gaussian, Inc., Wallingford CT, 2019.
 
 ******************************************
 Gaussian 16:  EM64L-G16RevC.01  3-Jul-2019
                12-Feb-2022 
 ******************************************
 %mem=64gb
 %nproc=8
 Will use up to    8 processors via shared memory.
 ----------------------------------------------------------------------
 #P TD(Nstates=10000) wB97XD/Gen SCF(maxcycles=100) Int(Grid=ultrafine)
 ----------------------------------------------------------------------
 1/38=1,172=1/1;
 2/12=2,17=6,18=5,40=1/2;
 3/5=7,11=9,25=1,30=1,74=-58,75=-5/1,2,3,8;
 4//1;
 5/5=2,7=100,38=5/2;
 8/6=1,10=1,108=10000/1;
 9/41=10000,42=1,70=2/14;
 6/7=2,8=2,9=2,10=2/1;
 99/5=1,9=1/99;
 Leave Link    1 at Sat Feb 12 22:22:42 2022, MaxMem=  8589934592 cpu:               0.4 elap:               0.1
 (Enter /home/rr/g16/l101.exe)
 ---------------------
 xGDB7_00001_tier4.com
 ---------------------
 Symbolic Z-matrix:
 Charge =  0 Multiplicity = 1
 6                     0.        0.       -0.52317 
 8                     0.        0.        0.67308 
 1                     0.        0.94375  -1.12282 
 1                     0.       -0.94375  -1.12282 
 
 ITRead=  0  0  0  0
 MicOpt= -1 -1 -1 -1
 NAtoms=      4 NQM=        4 NQMF=       0 NMMI=      0 NMMIF=      0
                NMic=       0 NMicF=      0.
                    Isotopes and Nuclear Properties:
 (Nuclear quadrupole moments (NQMom) in fm**2, nuclear magnetic moments (NMagM)
  in nuclear magnetons)

  Atom         1           2           3           4
 IAtWgt=          12          16           1           1
 AtmWgt=  12.0000000  15.9949146   1.0078250   1.0078250
 NucSpn=           0           0           1           1
 AtZEff=  -0.0000000  -0.0000000  -0.0000000  -0.0000000
 NQMom=    0.0000000   0.0000000   0.0000000   0.0000000
 NMagM=    0.0000000   0.0000000   2.7928460   2.7928460
 AtZNuc=   6.0000000   8.0000000   1.0000000   1.0000000
 Leave Link  101 at Sat Feb 12 22:22:42 2022, MaxMem=  8589934592 cpu:               0.8 elap:               0.1
 (Enter /home/rr/g16/l202.exe)
                          Input orientation:                          
 ---------------------------------------------------------------------
 Center     Atomic      Atomic             Coordinates (Angstroms)
 Number     Number       Type             X           Y           Z
 ---------------------------------------------------------------------
      1          6           0        0.000000    0.000000   -0.523169
      2          8           0        0.000000    0.000000    0.673082
      3          1           0        0.000000    0.943747   -1.122820
      4          1           0        0.000000   -0.943747   -1.122820
 ---------------------------------------------------------------------
                    Distance matrix (angstroms):
                    1          2          3          4
     1  C    0.000000
     2  O    1.196251   0.000000
     3  H    1.118141   2.028774   0.000000
     4  H    1.118141   2.028774   1.887494   0.000000
 Stoichiometry    CH2O
 Framework group  C2V[C2(CO),SGV(H2)]
 Deg. of freedom     3
 Full point group                 C2V     NOp   4
 Largest Abelian subgroup         C2V     NOp   4
 Largest concise Abelian subgroup C2      NOp   2
                         Standard orientation:                         
 ---------------------------------------------------------------------
 Center     Atomic      Atomic             Coordinates (Angstroms)
 Number     Number       Type             X           Y           Z
 ---------------------------------------------------------------------
      1          6           0        0.000000   -0.000000   -0.523169
      2          8           0        0.000000    0.000000    0.673082
      3          1           0        0.000000    0.943747   -1.122820
      4          1           0       -0.000000   -0.943747   -1.122820
 ---------------------------------------------------------------------
 Rotational constants (GHZ):         281.5080981          39.1552228          34.3740977
 Leave Link  202 at Sat Feb 12 22:22:42 2022, MaxMem=  8589934592 cpu:               0.1 elap:               0.0
 (Enter /home/rr/g16/l301.exe)
 General basis read from cards:  (5D, 7F)
 Centers:       3      4
 S 3 1.00
     Exponent=  1.3010701000D+01 Coefficients=  1.9682158000D-02
     Exponent=  1.9622572000D+00 Coefficients=  1.3796524000D-01
     Exponent=  4.4453796000D-01 Coefficients=  4.7831935000D-01
 S 1 1.00
     Exponent=  1.2194962000D-01 Coefficients=  1.0000000000D+00
 P 1 1.00
     Exponent=  8.0000000000D-01 Coefficients=  1.0000000000D+00
 P 1 1.00
     Exponent=  1.1704099050D-01 Coefficients=  1.0000000000D+00
 ****
 Centers:       1
 S 5 1.00
     Exponent=  1.2384016938D+03 Coefficients=  5.4568832082D-03
     Exponent=  1.8629004992D+02 Coefficients=  4.0638409211D-02
     Exponent=  4.2251176346D+01 Coefficients=  1.8025593888D-01
     Exponent=  1.1676557932D+01 Coefficients=  4.6315121755D-01
     Exponent=  3.5930506482D+00 Coefficients=  4.4087173314D-01
 S 1 1.00
     Exponent=  4.0245147363D-01 Coefficients=  1.0000000000D+00
 S 1 1.00
     Exponent=  1.3090182668D-01 Coefficients=  1.0000000000D+00
 S 1 1.00
     Exponent=  6.7053540256D-02 Coefficients=  1.0000000000D+00
 P 3 1.00
     Exponent=  9.4680970621D+00 Coefficients=  3.8387871728D-02
     Exponent=  2.0103545142D+00 Coefficients=  2.1117025112D-01
     Exponent=  5.4771004707D-01 Coefficients=  5.1328172114D-01
 P 1 1.00
     Exponent=  1.5268613795D-01 Coefficients=  1.0000000000D+00
 D 1 1.00
     Exponent=  8.0000000000D-01 Coefficients=  1.0000000000D+00
 D 1 1.00
     Exponent=  1.1713185140D-01 Coefficients=  1.0000000000D+00
 ****
 Centers:       2
 S 5 1.00
     Exponent=  2.2661767785D+03 Coefficients= -5.3431809926D-03
     Exponent=  3.4087010191D+02 Coefficients= -3.9890039230D-02
     Exponent=  7.7363135167D+01 Coefficients= -1.7853911985D-01
     Exponent=  2.1479644940D+01 Coefficients= -4.6427684959D-01
     Exponent=  6.6589433124D+00 Coefficients= -4.4309745172D-01
 S 1 1.00
     Exponent=  8.0975975668D-01 Coefficients=  1.0000000000D+00
 S 1 1.00
     Exponent=  2.5530772234D-01 Coefficients=  1.0000000000D+00
 S 1 1.00
     Exponent=  7.6572453250D-02 Coefficients=  1.0000000000D+00
 P 3 1.00
     Exponent=  1.7721504317D+01 Coefficients=  4.3394573193D-02
     Exponent=  3.8635505440D+00 Coefficients=  2.3094120765D-01
     Exponent=  1.0480920883D+00 Coefficients=  5.1375311064D-01
 P 1 1.00
     Exponent=  2.7641544411D-01 Coefficients=  1.0000000000D+00
 P 1 1.00
     Exponent=  6.9002276350D-02 Coefficients=  1.0000000000D+00
 D 1 1.00
     Exponent=  1.2000000000D+00 Coefficients=  1.0000000000D+00
 D 1 1.00
     Exponent=  1.7992024323D-01 Coefficients=  1.0000000000D+00
 ****
 Ernie: Thresh=  0.10000D-02 Tol=  0.10000D-05 Strict=F.
 There are    31 symmetry adapted cartesian basis functions of A1  symmetry.
 There are     6 symmetry adapted cartesian basis functions of A2  symmetry.
 There are    11 symmetry adapted cartesian basis functions of B1  symmetry.
 There are    15 symmetry adapted cartesian basis functions of B2  symmetry.
 There are    27 symmetry adapted basis functions of A1  symmetry.
 There are     6 symmetry adapted basis functions of A2  symmetry.
 There are    11 symmetry adapted basis functions of B1  symmetry.
 There are    15 symmetry adapted basis functions of B2  symmetry.
    59 basis functions,    87 primitive gaussians,    63 cartesian basis functions
     8 alpha electrons        8 beta electrons
       nuclear repulsion energy        31.3663422887 Hartrees.
 IExCor= 4639 DFT=T Ex+Corr=wB97XD ExCW=0 ScaHFX=  1.000000
 ScaDFX=  1.000000  1.000000  1.000000  1.000000 ScalE2=  1.000000  1.000000
 IRadAn=      5 IRanWt=     -1 IRanGd=            0 ICorTp=0 IEmpDi=121
 HFx  wShort=  0.000000 wLong=  0.200000 cFull=  0.222036 cShort=  0.000000 cLong=  0.777964
 DFx  wShort=  0.000000 wLong=  0.200000 cFull=  0.000000 cShort=  0.000000 cLong=  1.000000
 NAtoms=    4 NActive=    4 NUniq=    3 SFac= 1.78D+00 NAtFMM=   60 NAOKFM=F Big=F
 Integral buffers will be    131072 words long.
 Raffenetti 1 integral format.
 Two-electron integral symmetry is turned on.
 R6Disp:  Grimme-D2 Dispersion energy=       -0.0001914175 Hartrees.
 Nuclear repulsion after empirical dispersion term =       31.3661508712 Hartrees.
 Leave Link  301 at Sat Feb 12 22:22:42 2022, MaxMem=  8589934592 cpu:               0.6 elap:               0.1
 (Enter /home/rr/g16/l302.exe)
 NPDir=0 NMtPBC=     1 NCelOv=     1 NCel=       1 NClECP=     1 NCelD=      1
         NCelK=      1 NCelE2=     1 NClLst=     1 CellRange=     0.0.
 One-electron integrals computed using PRISM.
 One-electron integral symmetry used in STVInt
 NBasis=    59 RedAO= T EigKep=  7.37D-04  NBF=    27     6    11    15
 NBsUse=    59 1.00D-06 EigRej= -1.00D+00 NBFU=    27     6    11    15
 Precomputing XC quadrature grid using
 IXCGrd= 4 IRadAn=           5 IRanWt=          -1 IRanGd=           0 AccXCQ= 0.00D+00.
 Generated NRdTot=       0 NPtTot=           0 NUsed=           0 NTot=          32
 NSgBfM=    63    63    63    63    63 MxSgAt=     4 MxSgA2=     4.
 Leave Link  302 at Sat Feb 12 22:22:42 2022, MaxMem=  8589934592 cpu:               0.9 elap:               0.1
 (Enter /home/rr/g16/l303.exe)
 DipDrv:  MaxL=1.
 Leave Link  303 at Sat Feb 12 22:22:42 2022, MaxMem=  8589934592 cpu:               0.2 elap:               0.1
 (Enter /home/rr/g16/l308.exe)
 Leave Link  308 at Sat Feb 12 22:22:42 2022, MaxMem=  8589934592 cpu:               0.2 elap:               0.1
 (Enter /home/rr/g16/l401.exe)
 ExpMin= 6.71D-02 ExpMax= 2.27D+03 ExpMxC= 3.41D+02 IAcc=3 IRadAn=         5 AccDes= 0.00D+00
 Harris functional with IExCor= 4639 and IRadAn=       5 diagonalized for initial guess.
 HarFok:  IExCor= 4639 AccDes= 0.00D+00 IRadAn=         5 IDoV= 1 UseB2=F ITyADJ=14
 ICtDFT=  3500011 ScaDFX=  1.000000  1.000000  1.000000  1.000000
 FoFCou: FMM=F IPFlag=           0 FMFlag=      100000 FMFlg1=           0
         NFxFlg=           0 DoJE=T BraDBF=F KetDBF=T FulRan=T
         wScrn=  0.000000 ICntrl=       500 IOpCl=  0 I1Cent=   200000004 NGrid=           0
         NMat0=    1 NMatS0=      1 NMatT0=    0 NMatD0=    1 NMtDS0=    0 NMtDT0=    0
 Petite list used in FoFCou.
 Harris En= -109.942865269885    
 JPrj=0 DoOrth=F DoCkMO=F.
 Initial guess orbital symmetries:
       Occupied  (A1) (A1) (A1) (A1) (B2) (A1) (B1) (B2)
       Virtual   (B1) (A1) (B2) (A1) (B1) (A1) (A1) (B2) (A2) (B1)
                 (A1) (B2) (A1) (B2) (A1) (A2) (B1) (A1) (B2) (A1)
                 (A1) (B2) (B1) (A1) (A2) (B1) (A1) (B2) (A1) (A1)
                 (B2) (B1) (A2) (A1) (B2) (B1) (B2) (A1) (A1) (B2)
                 (A1) (B1) (A2) (A1) (B2) (A1) (A2) (A1) (B1) (B2)
                 (A1)
 The electronic state of the initial guess is 1-A1.
 Leave Link  401 at Sat Feb 12 22:22:42 2022, MaxMem=  8589934592 cpu:               1.3 elap:               0.2
 (Enter /home/rr/g16/l502.exe)
 Keep R1 ints in memory in symmetry-blocked form, NReq=10330718.
 FoFCou: FMM=F IPFlag=           0 FMFlag=           0 FMFlg1=           0
         NFxFlg=           0 DoJE=F BraDBF=F KetDBF=F FulRan=T
         wScrn=  0.000000 ICntrl=       600 IOpCl=  0 I1Cent=           0 NGrid=           0
         NMat0=    1 NMatS0=   1770 NMatT0=    0 NMatD0=    1 NMtDS0=    0 NMtDT0=    0
 Petite list used in FoFCou.
 Closed shell SCF:
 Using DIIS extrapolation, IDIIS=  1040.
 NGot=  8589934592 LenX=  8589508245 LenY=  8589503835
 Requested convergence on RMS density matrix=1.00D-08 within 100 cycles.
 Requested convergence on MAX density matrix=1.00D-06.
 Requested convergence on             energy=1.00D-06.
 No special actions if energy rises.
 Integral accuracy reduced to 1.0D-05 until final iterations.

 Cycle   1  Pass 0  IDiag  1:
 E= -114.358399421256    
 DIIS: error= 3.65D-02 at cycle   1 NSaved=   1.
 NSaved= 1 IEnMin= 1 EnMin= -114.358399421256     IErMin= 1 ErrMin= 3.65D-02
 ErrMax= 3.65D-02  0.00D+00 EMaxC= 1.00D-01 BMatC= 6.44D-02 BMatP= 6.44D-02
 IDIUse=3 WtCom= 6.35D-01 WtEn= 3.65D-01
 Coeff-Com:  0.100D+01
 Coeff-En:   0.100D+01
 Coeff:      0.100D+01
 Gap=     0.398 Goal=   None    Shift=    0.000
 GapD=    0.398 DampG=1.000 DampE=0.500 DampFc=0.5000 IDamp=-1.
 Damping current iteration by 5.00D-01
 RMSDP=6.29D-03 MaxDP=9.97D-02              OVMax= 8.43D-02

 Cycle   2  Pass 0  IDiag  1:
 E= -114.370918680180     Delta-E=       -0.012519258924 Rises=F Damp=T
 DIIS: error= 1.52D-02 at cycle   2 NSaved=   2.
 NSaved= 2 IEnMin= 2 EnMin= -114.370918680180     IErMin= 2 ErrMin= 1.52D-02
 ErrMax= 1.52D-02  0.00D+00 EMaxC= 1.00D-01 BMatC= 9.96D-03 BMatP= 6.44D-02
 IDIUse=3 WtCom= 8.48D-01 WtEn= 1.52D-01
 Coeff-Com: -0.219D+00 0.122D+01
 Coeff-En:   0.000D+00 0.100D+01
 Coeff:     -0.186D+00 0.119D+01
 Gap=     0.379 Goal=   None    Shift=    0.000
 RMSDP=2.37D-03 MaxDP=3.46D-02 DE=-1.25D-02 OVMax= 7.43D-02

 Cycle   3  Pass 0  IDiag  1:
 E= -114.381205665584     Delta-E=       -0.010286985405 Rises=F Damp=F
 DIIS: error= 1.00D-02 at cycle   3 NSaved=   3.
 NSaved= 3 IEnMin= 3 EnMin= -114.381205665584     IErMin= 3 ErrMin= 1.00D-02
 ErrMax= 1.00D-02  0.00D+00 EMaxC= 1.00D-01 BMatC= 5.68D-03 BMatP= 9.96D-03
 IDIUse=3 WtCom= 9.00D-01 WtEn= 1.00D-01
 Coeff-Com: -0.255D+00 0.613D+00 0.642D+00
 Coeff-En:   0.000D+00 0.000D+00 0.100D+01
 Coeff:     -0.229D+00 0.551D+00 0.678D+00
 Gap=     0.388 Goal=   None    Shift=    0.000
 RMSDP=1.09D-03 MaxDP=1.87D-02 DE=-1.03D-02 OVMax= 3.18D-02

 Cycle   4  Pass 0  IDiag  1:
 E= -114.385057415848     Delta-E=       -0.003851750264 Rises=F Damp=F
 DIIS: error= 2.77D-03 at cycle   4 NSaved=   4.
 NSaved= 4 IEnMin= 4 EnMin= -114.385057415848     IErMin= 4 ErrMin= 2.77D-03
 ErrMax= 2.77D-03  0.00D+00 EMaxC= 1.00D-01 BMatC= 4.37D-04 BMatP= 5.68D-03
 IDIUse=3 WtCom= 9.72D-01 WtEn= 2.77D-02
 Coeff-Com: -0.606D-01 0.112D+00 0.294D+00 0.655D+00
 Coeff-En:   0.000D+00 0.000D+00 0.122D-01 0.988D+00
 Coeff:     -0.589D-01 0.109D+00 0.286D+00 0.664D+00
 Gap=     0.384 Goal=   None    Shift=    0.000
 RMSDP=2.88D-04 MaxDP=6.57D-03 DE=-3.85D-03 OVMax= 7.41D-03

 Cycle   5  Pass 0  IDiag  1:
 E= -114.385401921370     Delta-E=       -0.000344505522 Rises=F Damp=F
 DIIS: error= 1.43D-04 at cycle   5 NSaved=   5.
 NSaved= 5 IEnMin= 5 EnMin= -114.385401921370     IErMin= 5 ErrMin= 1.43D-04
 ErrMax= 1.43D-04  0.00D+00 EMaxC= 1.00D-01 BMatC= 8.22D-07 BMatP= 4.37D-04
 IDIUse=3 WtCom= 9.99D-01 WtEn= 1.43D-03
 Coeff-Com:  0.143D-01-0.298D-01-0.427D-01-0.388D-01 0.110D+01
 Coeff-En:   0.000D+00 0.000D+00 0.000D+00 0.000D+00 0.100D+01
 Coeff:      0.143D-01-0.298D-01-0.426D-01-0.388D-01 0.110D+01
 Gap=     0.384 Goal=   None    Shift=    0.000
 RMSDP=4.27D-05 MaxDP=4.81D-04 DE=-3.45D-04 OVMax= 5.10D-04

 Cycle   6  Pass 0  IDiag  1:
 E= -114.385403225724     Delta-E=       -0.000001304354 Rises=F Damp=F
 DIIS: error= 2.49D-05 at cycle   6 NSaved=   6.
 NSaved= 6 IEnMin= 6 EnMin= -114.385403225724     IErMin= 6 ErrMin= 2.49D-05
 ErrMax= 2.49D-05  0.00D+00 EMaxC= 1.00D-01 BMatC= 2.05D-08 BMatP= 8.22D-07
 IDIUse=1 WtCom= 1.00D+00 WtEn= 0.00D+00
 Coeff-Com:  0.277D-02-0.530D-02-0.117D-01-0.181D-01 0.726D-01 0.960D+00
 Coeff:      0.277D-02-0.530D-02-0.117D-01-0.181D-01 0.726D-01 0.960D+00
 Gap=     0.384 Goal=   None    Shift=    0.000
 RMSDP=5.28D-06 MaxDP=6.51D-05 DE=-1.30D-06 OVMax= 7.23D-05

 Initial convergence to 1.0D-05 achieved.  Increase integral accuracy.
 Cycle   7  Pass 1  IDiag  1:
 E= -114.385406230162     Delta-E=       -0.000003004438 Rises=F Damp=F
 DIIS: error= 1.79D-05 at cycle   1 NSaved=   1.
 NSaved= 1 IEnMin= 1 EnMin= -114.385406230162     IErMin= 1 ErrMin= 1.79D-05
 ErrMax= 1.79D-05  0.00D+00 EMaxC= 1.00D-01 BMatC= 3.22D-08 BMatP= 3.22D-08
 IDIUse=1 WtCom= 1.00D+00 WtEn= 0.00D+00
 Coeff-Com:  0.100D+01
 Coeff:      0.100D+01
 Gap=     0.384 Goal=   None    Shift=    0.000
 RMSDP=5.28D-06 MaxDP=6.51D-05 DE=-3.00D-06 OVMax= 4.05D-05

 Cycle   8  Pass 1  IDiag  1:
 E= -114.385406253032     Delta-E=       -0.000000022870 Rises=F Damp=F
 DIIS: error= 4.73D-06 at cycle   2 NSaved=   2.
 NSaved= 2 IEnMin= 2 EnMin= -114.385406253032     IErMin= 2 ErrMin= 4.73D-06
 ErrMax= 4.73D-06  0.00D+00 EMaxC= 1.00D-01 BMatC= 1.20D-09 BMatP= 3.22D-08
 IDIUse=1 WtCom= 1.00D+00 WtEn= 0.00D+00
 Coeff-Com: -0.542D-02 0.101D+01
 Coeff:     -0.542D-02 0.101D+01
 Gap=     0.384 Goal=   None    Shift=    0.000
 RMSDP=1.17D-06 MaxDP=1.82D-05 DE=-2.29D-08 OVMax= 3.11D-05

 Cycle   9  Pass 1  IDiag  1:
 E= -114.385406252706     Delta-E=        0.000000000325 Rises=F Damp=F
 DIIS: error= 6.06D-06 at cycle   3 NSaved=   3.
 NSaved= 3 IEnMin= 2 EnMin= -114.385406253032     IErMin= 2 ErrMin= 4.73D-06
 ErrMax= 6.06D-06  0.00D+00 EMaxC= 1.00D-01 BMatC= 2.13D-09 BMatP= 1.20D-09
 IDIUse=1 WtCom= 1.00D+00 WtEn= 0.00D+00
 Coeff-Com: -0.371D-01 0.601D+00 0.436D+00
 Coeff:     -0.371D-01 0.601D+00 0.436D+00
 Gap=     0.384 Goal=   None    Shift=    0.000
 RMSDP=4.65D-07 MaxDP=9.52D-06 DE= 3.25D-10 OVMax= 1.45D-05

 Cycle  10  Pass 1  IDiag  1:
 E= -114.385406254242     Delta-E=       -0.000000001536 Rises=F Damp=F
 DIIS: error= 4.08D-07 at cycle   4 NSaved=   4.
 NSaved= 4 IEnMin= 4 EnMin= -114.385406254242     IErMin= 4 ErrMin= 4.08D-07
 ErrMax= 4.08D-07  0.00D+00 EMaxC= 1.00D-01 BMatC= 6.59D-12 BMatP= 1.20D-09
 IDIUse=1 WtCom= 1.00D+00 WtEn= 0.00D+00
 Coeff-Com: -0.274D-02-0.519D-01-0.133D-02 0.106D+01
 Coeff:     -0.274D-02-0.519D-01-0.133D-02 0.106D+01
 Gap=     0.384 Goal=   None    Shift=    0.000
 RMSDP=8.19D-08 MaxDP=1.09D-06 DE=-1.54D-09 OVMax= 2.02D-06

 Cycle  11  Pass 1  IDiag  1:
 E= -114.385406254258     Delta-E=       -0.000000000016 Rises=F Damp=F
 DIIS: error= 9.78D-08 at cycle   5 NSaved=   5.
 NSaved= 5 IEnMin= 5 EnMin= -114.385406254258     IErMin= 5 ErrMin= 9.78D-08
 ErrMax= 9.78D-08  0.00D+00 EMaxC= 1.00D-01 BMatC= 2.67D-13 BMatP= 6.59D-12
 IDIUse=1 WtCom= 1.00D+00 WtEn= 0.00D+00
 Coeff-Com:  0.180D-02-0.118D-01-0.167D-01-0.168D+00 0.119D+01
 Coeff:      0.180D-02-0.118D-01-0.167D-01-0.168D+00 0.119D+01
 Gap=     0.384 Goal=   None    Shift=    0.000
 RMSDP=2.50D-08 MaxDP=3.21D-07 DE=-1.61D-11 OVMax= 6.94D-07

 Cycle  12  Pass 1  IDiag  1:
 E= -114.385406254259     Delta-E=       -0.000000000001 Rises=F Damp=F
 DIIS: error= 2.72D-08 at cycle   6 NSaved=   6.
 NSaved= 6 IEnMin= 6 EnMin= -114.385406254259     IErMin= 6 ErrMin= 2.72D-08
 ErrMax= 2.72D-08  0.00D+00 EMaxC= 1.00D-01 BMatC= 4.10D-14 BMatP= 2.67D-13
 IDIUse=1 WtCom= 1.00D+00 WtEn= 0.00D+00
 Coeff-Com:  0.653D-04 0.236D-02-0.322D-02-0.292D-01-0.253D-01 0.106D+01
 Coeff:      0.653D-04 0.236D-02-0.322D-02-0.292D-01-0.253D-01 0.106D+01
 Gap=     0.384 Goal=   None    Shift=    0.000
 RMSDP=4.83D-09 MaxDP=9.21D-08 DE=-1.31D-12 OVMax= 9.88D-08

 SCF Done:  E(RwB97XD) =  -114.385406254     A.U. after   12 cycles
            NFock= 12  Conv=0.48D-08     -V/T= 2.0091
 KE= 1.133515460048D+02 PE=-3.307602729105D+02 EE= 7.165716978022D+01
 Leave Link  502 at Sat Feb 12 22:22:43 2022, MaxMem=  8589934592 cpu:               4.9 elap:               0.6
 (Enter /home/rr/g16/l801.exe)
 DoSCS=F DFT=T ScalE2(SS,OS)=  1.000000  1.000000
 ExpMin= 6.71D-02 ExpMax= 2.27D+03 ExpMxC= 3.41D+02 IAcc=3 IRadAn=         5 AccDes= 0.00D+00
 HarFok:  IExCor=  205 AccDes= 0.00D+00 IRadAn=         5 IDoV=-2 UseB2=F ITyADJ=14
 ICtDFT= 12500011 ScaDFX=  1.000000  1.000000  1.000000  1.000000
 Largest valence mixing into a core orbital is  7.24D-05
 Largest core mixing into a valence orbital is  1.61D-05
 Range of M.O.s used for correlation:     3    59
 NBasis=    59 NAE=     8 NBE=     8 NFC=     2 NFV=     0
 NROrb=     57 NOA=     6 NOB=     6 NVA=    51 NVB=    51

 **** Warning!!: The largest alpha MO coefficient is  0.16667176D+02

 Leave Link  801 at Sat Feb 12 22:22:43 2022, MaxMem=  8589934592 cpu:               0.5 elap:               0.1
 (Enter /home/rr/g16/l914.exe)
 RHF ground state
 Keep R1, R2, and R3 ints in memory in symmetry-blocked form, NReq=125398858.
 FoFCou: FMM=F IPFlag=           0 FMFlag=           0 FMFlg1=           0
         NFxFlg=           0 DoJE=F BraDBF=F KetDBF=F FulRan=T
         wScrn=  0.000000 ICntrl=       600 IOpCl=  0 I1Cent=           0 NGrid=           0
         NMat0=    1 NMatS0=   1770 NMatT0=    0 NMatD0=    1 NMtDS0=    0 NMtDT0=    0
 Petite list used in FoFCou.
 MDV=  8589934592 DFT=T DoStab=F Mixed=T DoRPA=T DoScal=F NonHer=T
 Making orbital integer symmetry assigments:
 Orbital symmetries:
       Occupied  (A1) (A1) (A1) (A1) (B2) (A1) (B1) (B2)
       Virtual   (B1) (A1) (B2) (A1) (B1) (A1) (A1) (B2) (A2) (B1)
                 (A1) (B2) (A1) (B2) (A1) (A2) (B1) (A1) (B2) (A1)
                 (A1) (B2) (B1) (A1) (A2) (B1) (A1) (B2) (A1) (A1)
                 (B2) (B1) (A2) (A1) (B2) (B1) (B2) (A1) (A1) (B2)
                 (A1) (B1) (A2) (A1) (B2) (A1) (A2) (A1) (B1) (B2)
                 (A1)
   306 initial guesses have been made.
 Convergence on wavefunction:    0.001000000000000
 Davidson Disk Diagonalization:  ConvIn= 1.00D-03 SkipCon=T Conv= 1.00D-03.
 Max sub-space:  1836 roots to seek:   612 dimension of matrix:          612
 *** WARNING: Number of orthogonal guesses is          306
 Iteration     1 Dimension   306 NMult     0 NNew    306
 CISAX will form   306 AO SS matrices at one time.
 NMat=   306 NSing=   306 JSym2X=-1.
 New state      3 was old state      4
 New state      4 was old state      3
 New state      5 was old state      8
 New state      6 was old state      5
 New state      7 was old state      6
 New state      8 was old state     12
 New state      9 was old state      7
 New state     10 was old state      9
 New state     12 was old state     10
 New state     14 was old state     15
 New state     15 was old state     16
 New state     16 was old state     14
 New state     21 was old state     22
 New state     22 was old state     21
 New state     23 was old state     24
 New state     24 was old state     23
 New state     28 was old state     29
 New state     29 was old state     31
 New state     31 was old state     32
 New state     32 was old state     28
 New state     33 was old state     36
 New state     35 was old state     33
 New state     36 was old state     35
 New state     37 was old state     39
 New state     39 was old state     37
 New state     40 was old state     43
 New state     41 was old state     40
 New state     42 was old state     41
 New state     43 was old state     45
 New state     44 was old state     42
 New state     45 was old state     47
 New state     47 was old state     44
 New state     48 was old state     49
 New state     49 was old state     48
 New state     52 was old state     54
 New state     54 was old state     52
 New state     56 was old state     57
 New state     57 was old state     56
 New state     58 was old state     59
 New state     59 was old state     61
 New state     61 was old state     58
 New state     63 was old state     68
 New state     64 was old state     67
 New state     65 was old state     64
 New state     66 was old state     63
 New state     67 was old state     69
 New state     68 was old state     66
 New state     69 was old state     65
 New state     70 was old state     74
 New state     71 was old state     72
 New state     72 was old state     73
 New state     73 was old state     70
 New state     74 was old state     75
 New state     75 was old state     71
 New state     76 was old state     79
 New state     77 was old state     76
 New state     78 was old state     77
 New state     79 was old state     78
 New state     80 was old state     83
 New state     82 was old state     86
 New state     83 was old state     82
 New state     84 was old state     80
 New state     86 was old state     87
 New state     87 was old state     84
 New state     89 was old state     90
 New state     90 was old state     91
 New state     91 was old state     92
 New state     92 was old state     94
 New state     93 was old state     89
 New state     94 was old state     93
 New state     95 was old state     97
 New state     96 was old state     99
 New state     97 was old state    103
 New state     99 was old state     95
 New state    100 was old state     96
 New state    101 was old state    105
 New state    102 was old state    101
 New state    103 was old state    100
 New state    104 was old state    102
 New state    105 was old state    107
 New state    106 was old state    109
 New state    107 was old state    104
 New state    108 was old state    110
 New state    109 was old state    108
 New state    110 was old state    106
 New state    113 was old state    115
 New state    114 was old state    113
 New state    115 was old state    117
 New state    117 was old state    114
 New state    120 was old state    122
 New state    122 was old state    120
 New state    124 was old state    130
 New state    125 was old state    127
 New state    126 was old state    131
 New state    127 was old state    126
 New state    128 was old state    124
 New state    130 was old state    125
 New state    131 was old state    137
 New state    132 was old state    128
 New state    135 was old state    132
 New state    136 was old state    135
 New state    137 was old state    136
 New state    140 was old state    141
 New state    141 was old state    140
 New state    143 was old state    144
 New state    144 was old state    147
 New state    146 was old state    148
 New state    147 was old state    143
 New state    148 was old state    151
 New state    149 was old state    146
 New state    151 was old state    152
 New state    152 was old state    149
 New state    153 was old state    156
 New state    154 was old state    157
 New state    155 was old state    153
 New state    156 was old state    155
 New state    157 was old state    160
 New state    158 was old state    154
 New state    159 was old state    158
 New state    160 was old state    162
 New state    161 was old state    159
 New state    162 was old state    161
 New state    163 was old state    165
 New state    164 was old state    163
 New state    165 was old state    166
 New state    166 was old state    167
 New state    167 was old state    169
 New state    168 was old state    164
 New state    169 was old state    168
 New state    170 was old state    171
 New state    171 was old state    170
 New state    172 was old state    174
 New state    173 was old state    172
 New state    174 was old state    173
 New state    175 was old state    177
 New state    176 was old state    175
 New state    177 was old state    176
 New state    180 was old state    181
 New state    181 was old state    180
 New state    182 was old state    184
 New state    183 was old state    182
 New state    184 was old state    183
 New state    185 was old state    187
 New state    187 was old state    185
 New state    188 was old state    190
 New state    190 was old state    188
 New state    191 was old state    192
 New state    192 was old state    191
 New state    193 was old state    197
 New state    195 was old state    196
 New state    196 was old state    195
 New state    197 was old state    198
 New state    198 was old state    199
 New state    199 was old state    201
 New state    200 was old state    204
 New state    201 was old state    200
 New state    204 was old state    205
 New state    205 was old state    206
 New state    206 was old state    207
 New state    207 was old state    208
 New state    208 was old state    210
 New state    209 was old state    214
 New state    210 was old state    209
 New state    211 was old state    212
 New state    212 was old state    211
 New state    214 was old state    216
 New state    216 was old state    218
 New state    217 was old state    224
 New state    218 was old state    217
 New state    219 was old state    220
 New state    220 was old state    219
 New state    224 was old state    234
 New state    226 was old state    227
 New state    227 was old state    226
 New state    229 was old state    230
 New state    230 was old state    229
 New state    231 was old state    233
 New state    233 was old state    231
 New state    234 was old state    235
 New state    235 was old state    238
 New state    236 was old state    240
 New state    238 was old state    241
 New state    240 was old state    236
 New state    241 was old state    242
 New state    242 was old state    245
 No map to state    244
 New state    245 was old state    244
 New state    252 was old state    253
 New state    253 was old state    254
 New state    254 was old state    252
 New state    260 was old state    261
 New state    261 was old state    263
 New state    262 was old state    260
 New state    263 was old state    262
 New state    264 was old state    266
 New state    265 was old state    264
 New state    266 was old state    268
 New state    268 was old state    269
 New state    269 was old state    265
 New state    273 was old state    275
 New state    275 was old state    276
 New state    276 was old state    277
 New state    277 was old state    278
 New state    278 was old state    273
 New state    285 was old state    287
 New state    286 was old state    285
 New state    287 was old state    286
 New state    291 was old state    292
 New state    292 was old state    291
 New state    296 was old state    297
 New state    297 was old state    296
 New state    298 was old state    299
 New state    299 was old state    298
 Excitation Energies [eV] at current iteration:
 Root      1 :     4.069997731384490
 Root      2 :     7.699670674792289
 Root      3 :     9.192692489072501
 Root      4 :     9.255938811485937
 Root      5 :     9.306073620154168
 Root      6 :     9.777714571228943
 Root      7 :     9.812801440993107
 Root      8 :    10.282729457213270
 Root      9 :    10.489584530737980
 Root     10 :    11.127056048882940
 Root     11 :    11.438577156086580
 Root     12 :    11.983056156139510
 Root     13 :    12.238981837502950
 Root     14 :    12.926910809940190
 Root     15 :    12.959154963231630
 Root     16 :    13.095909756043250
 Root     17 :    13.133212079636860
 Root     18 :    13.694454541252710
 Root     19 :    13.785961597571710
 Root     20 :    14.190642094506570
 Root     21 :    14.202918718453360
 Root     22 :    14.358153771255260
 Root     23 :    14.485735464202910
 Root     24 :    14.685597384471180
 Root     25 :    14.828466861410980
 Root     26 :    14.888409613862780
 Root     27 :    15.195523922061230
 Root     28 :    15.457828975623490
 Root     29 :    15.485500655239000
 Root     30 :    15.629175412536930
 Root     31 :    15.650191451750350
 Root     32 :    15.888250145032710
 Root     33 :    15.972259088240130
 Root     34 :    16.093208584219420
 Root     35 :    16.194541732485660
 Root     36 :    16.305307758856810
 Root     37 :    16.617626203522820
 Root     38 :    16.749508163011490
 Root     39 :    16.962699993376910
 Root     40 :    17.118985671983660
 Root     41 :    17.119511567333260
 Root     42 :    17.499872769735220
 Root     43 :    17.532909956699440
 Root     44 :    17.576982714604600
 Root     45 :    17.643183361270190
 Root     46 :    17.746776478874270
 Root     47 :    18.160831463113900
 Root     48 :    18.318637986533090
 Root     49 :    18.427067998601470
 Root     50 :    18.563721515802670
 Root     51 :    18.910408033698020
 Root     52 :    19.142019619273590
 Root     53 :    19.200205783135940
 Root     54 :    19.267818505254640
 Root     55 :    19.280209778621420
 Root     56 :    19.775637070490570
 Root     57 :    20.056626145970630
 Root     58 :    20.197477215158090
 Root     59 :    20.232016478526980
 Root     60 :    20.319114424820560
 Root     61 :    20.583229048312080
 Root     62 :    20.616941090123610
 Root     63 :    20.758451299352550
 Root     64 :    20.835168622523200
 Root     65 :    20.953443360641350
 Root     66 :    20.957998983677960
 Root     67 :    21.229244967817890
 Root     68 :    21.294536672526030
 Root     69 :    21.301603700787730
 Root     70 :    21.330534177837190
 Root     71 :    21.638682872496030
 Root     72 :    21.682761009656810
 Root     73 :    21.769238575402990
 Root     74 :    21.892566663758780
 Root     75 :    21.926969138161970
 Root     76 :    21.985462664072660
 Root     77 :    22.042983967070870
 Root     78 :    22.313021695011450
 Root     79 :    22.439353065843720
 Root     80 :    22.848142869011220
 Root     81 :    22.885706376714880
 Root     82 :    22.993096648166110
 Root     83 :    23.094387854517680
 Root     84 :    23.190893664368520
 Root     85 :    23.404407924914630
 Root     86 :    23.412469900807080
 Root     87 :    23.875356019728500
 Root     88 :    23.929854608457290
 Root     89 :    24.090652720635750
 Root     90 :    24.470419163186580
 Root     91 :    24.580642700656060
 Root     92 :    24.795061766698800
 Root     93 :    24.831969403864440
 Root     94 :    25.077233368334600
 Root     95 :    25.415401009279010
 Root     96 :    25.469984621989700
 Root     97 :    25.572979774303200
 Root     98 :    25.651440183981480
 Root     99 :    25.749341447175310
 Root    100 :    26.021862202122430
 Root    101 :    26.263538066213390
 Root    102 :    26.318271172290430
 Root    103 :    26.407573826474100
 Root    104 :    26.437091538971620
 Root    105 :    26.653866837097850
 Root    106 :    26.912803190427740
 Root    107 :    26.975042963908570
 Root    108 :    27.150468658282000
 Root    109 :    27.184693287888430
 Root    110 :    27.392594665472150
 Root    111 :    27.723481386433000
 Root    112 :    27.927242990477730
 Root    113 :    28.083788206477290
 Root    114 :    28.245271976789660
 Root    115 :    28.370662303075740
 Root    116 :    28.742566032891810
 Root    117 :    28.934419722130510
 Root    118 :    29.469661709672110
 Root    119 :    29.570224271601380
 Root    120 :    29.617103191130680
 Root    121 :    29.666000798645290
 Root    122 :    29.682697007406360
 Root    123 :    30.197889548486150
 Root    124 :    30.601248916904080
 Root    125 :    30.837177811289070
 Root    126 :    30.903504484594850
 Root    127 :    31.007697050086790
 Root    128 :    31.081455706920420
 Root    129 :    31.215864313899630
 Root    130 :    31.331812001988160
 Root    131 :    31.591215070741410
 Root    132 :    31.655929403324650
 Root    133 :    32.109743864826640
 Root    134 :    32.344102024201430
 Root    135 :    32.375375969437020
 Root    136 :    32.560808660877010
 Root    137 :    32.809648872638420
 Root    138 :    33.095220888412410
 Root    139 :    33.355243967261760
 Root    140 :    33.512297883685860
 Root    141 :    34.087428387099070
 Root    142 :    34.213015607682140
 Root    143 :    34.247090180665520
 Root    144 :    34.417637917806220
 Root    145 :    35.018407998278200
 Root    146 :    35.073786038199810
 Root    147 :    35.150458295399680
 Root    148 :    35.352122979346340
 Root    149 :    35.714670781291280
 Root    150 :    35.822938710893610
 Root    151 :    36.450564687868260
 Root    152 :    36.548298964764500
 Root    153 :    36.664872205409230
 Root    154 :    36.836913697343480
 Root    155 :    37.081020616907200
 Root    156 :    37.339290631860290
 Root    157 :    37.931831332905700
 Root    158 :    37.938720164137010
 Root    159 :    38.454363886832810
 Root    160 :    38.540209942442840
 Root    161 :    38.646651336796080
 Root    162 :    38.969143653245880
 Root    163 :    39.442075465966390
 Root    164 :    39.599933954338190
 Root    165 :    40.067285794109090
 Root    166 :    40.212115603767940
 Root    167 :    40.334990806195460
 Root    168 :    40.434190583678710
 Root    169 :    40.637742994937660
 Root    170 :    40.791659418012620
 Root    171 :    41.256459152634300
 Root    172 :    41.457572374576020
 Root    173 :    41.826885018421630
 Root    174 :    42.906639591358050
 Root    175 :    43.622437050136910
 Root    176 :    43.628006798293800
 Root    177 :    43.889268816620390
 Root    178 :    43.991907604808490
 Root    179 :    44.786361025321130
 Root    180 :    44.893700991933700
 Root    181 :    44.913354514696860
 Root    182 :    45.832861354102010
 Root    183 :    45.954663529689900
 Root    184 :    46.387609810448440
 Root    185 :    46.473497452456170
 Root    186 :    47.196874822913970
 Root    187 :    47.270558459185210
 Root    188 :    48.181685938957370
 Root    189 :    48.581526265927660
 Root    190 :    49.328746347247840
 Root    191 :    49.348446079337540
 Root    192 :    49.944076977819330
 Root    193 :    51.269957742296420
 Root    194 :    51.400389107872210
 Root    195 :    51.657432630856870
 Root    196 :    51.942904324343250
 Root    197 :    52.286889453375570
 Root    198 :    52.306123700076390
 Root    199 :    52.461146146069650
 Root    200 :    52.557518855144860
 Root    201 :    52.668530641389720
 Root    202 :    52.951899860323790
 Root    203 :    53.197142308856210
 Root    204 :    53.875113524520470
 Root    205 :    54.776045778611100
 Root    206 :    54.991713368755640
 Root    207 :    55.436539408075950
 Root    208 :    56.130858953619390
 Root    209 :    56.269669131015630
 Root    210 :    56.331968416558300
 Root    211 :    56.650290876688320
 Root    212 :    56.793487574877630
 Root    213 :    57.160841005417340
 Root    214 :    57.390872168371200
 Root    215 :    57.417726046322980
 Root    216 :    57.896141649434120
 Root    217 :    58.107759264745400
 Root    218 :    58.407887665684850
 Root    219 :    58.618963429861730
 Root    220 :    58.936693365429890
 Root    221 :    59.104037990909630
 Root    222 :    59.256942332741740
 Root    223 :    59.526845394912920
 Root    224 :    60.747151679397980
 Root    225 :    61.098666157776890
 Root    226 :    61.348917997402480
 Root    227 :    61.645740846399660
 Root    228 :    61.734363914773280
 Root    229 :    62.729328876911160
 Root    230 :    62.907059368557020
 Root    231 :    63.222078122033660
 Root    232 :    63.500368766420070
 Root    233 :    63.816823294109000
 Root    234 :    64.431398293012650
 Root    235 :    64.844696267994830
 Root    236 :    64.965184428270720
 Root    237 :    65.007148550197470
 Root    238 :    65.415025885898790
 Root    239 :    65.449843003888620
 Root    240 :    65.498322115340630
 Root    241 :    65.711630591124120
 Root    242 :    67.732391092000270
 Root    243 :    67.968945027832180
 Root    244 :    68.784766532531490
 Root    245 :    68.988503333330710
 Root    246 :    69.243087633026930
 Root    247 :    69.351052679322220
 Root    248 :    70.009351768692670
 Root    249 :    71.102708347724870
 Root    250 :    73.109744767024240
 Root    251 :    73.618198990227380
 Root    252 :    74.180622902103660
 Root    253 :    75.498910257132270
 Root    254 :    75.523895863816580
 Root    255 :    77.364655537375370
 Root    256 :    79.168420768372430
 Root    257 :    79.778912460682210
 Root    258 :    80.095456325536970
 Root    259 :    80.382322833678370
 Root    260 :    80.845827682467150
 Root    261 :    81.388987337293170
 Root    262 :    81.524875583166760
 Root    263 :    81.690234345746730
 Root    264 :    82.700736230222080
 Root    265 :    82.783988178666090
 Root    266 :    84.501917912203770
 Root    267 :    84.632924536319380
 Root    268 :    85.026720537064700
 Root    269 :    85.623467220158620
 Root    270 :    85.817198424596190
 Root    271 :    85.876147007812930
 Root    272 :    86.512987977490600
 Root    273 :    87.431683459612560
 Root    274 :    87.478736087451960
 Root    275 :    88.690477266424590
 Root    276 :    89.997039400380860
 Root    277 :    90.166011940786050
 Root    278 :    90.407613306060160
 Root    279 :    90.456660237411010
 Root    280 :    91.695660008119300
 Root    281 :    92.787839945728290
 Root    282 :    94.159914059814710
 Root    283 :    94.210488781632610
 Root    284 :    94.975315326359140
 Root    285 :    97.534317521381210
 Root    286 :    97.577785170177180
 Root    287 :    97.749287648617210
 Root    288 :    97.813635392822870
 Root    289 :   100.470155029849000
 Root    290 :   101.487846378449100
 Root    291 :   101.651479561130000
 Root    292 :   101.713163612475800
 Root    293 :   102.821091741193400
 Root    294 :   104.600630650684600
 Root    295 :   104.818507600592400
 Root    296 :   106.138596214722100
 Root    297 :   106.526575212828200
 Root    298 :   108.955378350939500
 Root    299 :   109.320674019168700
 Root    300 :   109.935480433682800
 Root    301 :   112.121457791339900
 Root    302 :   112.186690446580200
 Root    303 :   112.710795635894700
 Root    304 :   116.259595342919400
 Root    305 :   121.122069865781500
 Root    306 :   127.098088681822200
 Convergence achieved for final wavefunctions.
 ***********************************************************************
 Excited states from <AA,BB:AA,BB> singles matrix:
 ***********************************************************************
 
 1PDM for each excited state written to RWF  633
 Ground to excited state transition densities written to RWF  633
 Ground to excited state transition electric dipole moments (Au):
       state          X           Y           Z        Dip. S.      Osc.
         1        -0.0000     -0.0000      0.0000      0.0000      0.0000
         2         0.0000      0.4202     -0.0000      0.1766      0.0333
         3         0.0000     -0.5574     -0.0000      0.3107      0.0700
         4        -0.0000      0.0000      0.7095      0.5034      0.1141
         5         0.0308      0.0000      0.0000      0.0009      0.0002
         6         0.0000     -0.0000      0.6710      0.4503      0.1079
         7        -0.0000     -0.0000     -0.0000      0.0000      0.0000
         8        -0.0000      0.0000      0.0000      0.0000      0.0000
         9         0.0000      0.3712     -0.0000      0.1378      0.0354
        10        -0.0000      0.3272      0.0000      0.1071      0.0292
        11        -0.4307     -0.0000     -0.0000      0.1855      0.0520
        12        -0.0000     -0.0000      0.8900      0.7921      0.2325
        13         0.2251      0.0000      0.0000      0.0507      0.0152
        14         0.0000     -0.0000      0.0000      0.0000      0.0000
        15        -0.4890      0.0000      0.0000      0.2391      0.0759
        16         0.0000      0.0000      0.3172      0.1006      0.0323
        17         0.0000      0.0000      0.0000      0.0000      0.0000
        18         0.0000     -0.0000      0.0129      0.0002      0.0001
        19         0.0000     -0.7327      0.0000      0.5369      0.1813
        20         0.0833      0.0000      0.0000      0.0069      0.0024
        21        -0.0000     -0.0000     -0.7872      0.6197      0.2156
        22        -0.0000      0.3540     -0.0000      0.1253      0.0441
        23         0.1371      0.0000     -0.0000      0.0188      0.0067
        24         0.0000      0.1066     -0.0000      0.0114      0.0041
        25        -0.1978      0.0000     -0.0000      0.0391      0.0142
        26        -0.0000     -0.0000      0.0000      0.0000      0.0000
        27         0.0000     -0.0000     -0.7551      0.5701      0.2123
        28        -0.8560     -0.0000     -0.0000      0.7328      0.2775
        29        -0.0000     -0.4003      0.0000      0.1602      0.0608
        30        -0.0000      0.0000     -0.2689      0.0723      0.0277
        31        -0.0000      0.2787     -0.0000      0.0777      0.0298
        32         0.0000     -0.0000     -0.0851      0.0072      0.0028
        33         0.0000     -0.3287     -0.0000      0.1080      0.0423
        34        -0.0000      0.0000     -0.1533      0.0235      0.0093
        35        -0.0000      0.0000      0.0000      0.0000      0.0000
        36         0.0000      0.0637     -0.0000      0.0041      0.0016
        37        -0.0000      0.6696     -0.0000      0.4484      0.1825
        38        -0.0000     -0.0000     -0.4483      0.2010      0.0825
        39        -0.0000     -0.7377      0.0000      0.5441      0.2261
        40        -0.6653     -0.0000      0.0000      0.4427      0.1857
        41        -0.0000      0.0000     -0.2243      0.0503      0.0211
        42         0.0000     -0.3954      0.0000      0.1563      0.0670
        43        -0.0000      0.0000     -0.0000      0.0000      0.0000
        44        -0.0000      0.0000      0.0113      0.0001      0.0001
        45         0.0000     -0.1942     -0.0000      0.0377      0.0163
        46        -0.0000      0.0000     -0.0000      0.0000      0.0000
        47         0.0000      0.0000     -0.2851      0.0813      0.0362
        48        -0.5231     -0.0000     -0.0000      0.2737      0.1228
        49         0.4089      0.0000     -0.0000      0.1672      0.0755
        50        -0.3270      0.0000     -0.0000      0.1069      0.0486
        51        -0.0000     -0.0000     -0.0000      0.0000      0.0000
        52        -0.3792     -0.0000     -0.0000      0.1438      0.0674
        53        -0.0000     -0.0000     -0.4030      0.1624      0.0764
        54        -0.0000      0.1093     -0.0000      0.0119      0.0056
        55        -0.0000      0.0000      0.0000      0.0000      0.0000
        56         0.0000     -0.0000      0.1861      0.0346      0.0168
        57         0.0418     -0.0000      0.0000      0.0017      0.0009
        58         0.0000     -0.0000     -0.3066      0.0940      0.0465
        59         0.0000      0.0000      0.0000      0.0000      0.0000
        60        -0.0000     -0.2305     -0.0000      0.0531      0.0264
        61         0.0000     -0.0000     -0.2354      0.0554      0.0279
        62        -0.4720      0.0000     -0.0000      0.2228      0.1125
        63        -0.0000      0.0690      0.0000      0.0048      0.0024
        64         0.0000     -0.4077     -0.0000      0.1662      0.0849
        65         0.0000      0.2698     -0.0000      0.0728      0.0374
        66         0.0000      0.0000     -0.2691      0.0724      0.0372
        67         0.0000     -0.0000      0.0635      0.0040      0.0021
        68        -0.0000      0.2055      0.0000      0.0422      0.0220
        69        -0.0000      0.0000     -0.0551      0.0030      0.0016
        70        -0.0791     -0.0000      0.0000      0.0063      0.0033
        71        -0.0000     -0.0000      0.0353      0.0012      0.0007
        72        -0.0000      0.1063      0.0000      0.0113      0.0060
        73        -0.0000     -0.0289     -0.0000      0.0008      0.0004
        74        -0.0000      0.0000     -0.0000      0.0000      0.0000
        75         0.0000      0.0000     -0.1980      0.0392      0.0211
        76        -0.0000     -0.0000      0.0000      0.0000      0.0000
        77         0.0000     -0.4303     -0.0000      0.1851      0.1000
        78         0.0000     -0.0000     -0.4484      0.2011      0.1099
        79        -0.0000      0.0000      0.0000      0.0000      0.0000
        80         0.0987      0.0000      0.0000      0.0097      0.0054
        81        -0.0000      0.5426      0.0000      0.2944      0.1651
        82        -0.0000     -0.0000     -0.0000      0.0000      0.0000
        83        -0.0891      0.0000     -0.0000      0.0079      0.0045
        84        -0.0000      0.0000      0.4032      0.1626      0.0924
        85        -0.4403     -0.0000      0.0000      0.1938      0.1112
        86        -0.0000      0.4757      0.0000      0.2263      0.1298
        87        -0.0000     -0.0000     -0.8873      0.7873      0.4605
        88        -0.0000     -0.0000      0.0000      0.0000      0.0000
        89         0.0000     -0.4617     -0.0000      0.2132      0.1258
        90        -0.1098      0.0000     -0.0000      0.0121      0.0072
        91         0.0000      0.3755      0.0000      0.1410      0.0849
        92         0.3108     -0.0000     -0.0000      0.0966      0.0587
        93        -0.0000      0.0000     -0.1378      0.0190      0.0116
        94        -0.0000      0.1011      0.0000      0.0102      0.0063
        95         0.3970      0.0000      0.0000      0.1576      0.0982
        96        -0.0000      0.0000     -0.3796      0.1441      0.0899
        97         0.0000     -0.0000     -0.0000      0.0000      0.0000
        98         0.0000     -0.0000     -0.0000      0.0000      0.0000
        99         0.0000     -0.0000     -0.0281      0.0008      0.0005
       100         0.0000     -0.0000     -0.0959      0.0092      0.0059
       101        -0.1333     -0.0000      0.0000      0.0178      0.0114
       102         0.0000      0.0000     -0.2438      0.0594      0.0383
       103         0.0000     -0.1609     -0.0000      0.0259      0.0167
       104         0.0000      0.0000     -0.1343      0.0180      0.0117
       105         0.1005      0.0000      0.0000      0.0101      0.0066
       106        -0.0000     -0.4466      0.0000      0.1994      0.1315
       107         0.0000     -0.0000     -0.0000      0.0000      0.0000
       108        -0.8266      0.0000     -0.0000      0.6832      0.4545
       109        -0.0000     -0.0000     -0.6634      0.4401      0.2931
       110        -0.0000      0.3967     -0.0000      0.1574      0.1056
       111        -0.1630      0.0000     -0.0000      0.0266      0.0180
       112         0.0000      0.0000     -0.2486      0.0618      0.0423
       113         0.0000     -0.0000     -0.0528      0.0028      0.0019
       114        -0.0000     -0.1762      0.0000      0.0311      0.0215
       115         0.0000      0.3658     -0.0000      0.1338      0.0930
       116        -0.0000      0.0000      0.0000      0.0000      0.0000
       117        -0.0000     -0.0000      0.0253      0.0006      0.0005
       118         0.0000     -0.0000     -0.0061      0.0000      0.0000
       119         0.0000      0.1303      0.0000      0.0170      0.0123
       120         0.0000      0.0000      0.0000      0.0000      0.0000
       121        -0.0000     -0.0000      0.0265      0.0007      0.0005
       122         0.0000      0.0397      0.0000      0.0016      0.0011
       123        -0.0000     -0.0603      0.0000      0.0036      0.0027
       124         0.0314     -0.0000     -0.0000      0.0010      0.0007
       125         0.0000      0.0000     -0.0214      0.0005      0.0003
       126        -0.0000      0.0406     -0.0000      0.0016      0.0012
       127         0.0000      0.0000      0.0760      0.0058      0.0044
       128         0.0000     -0.0326      0.0000      0.0011      0.0008
       129         0.0638      0.0000      0.0000      0.0041      0.0031
       130        -0.0000      0.0000      0.0662      0.0044      0.0034
       131        -0.0000      0.0000      0.0000      0.0000      0.0000
       132         0.0391     -0.0000      0.0000      0.0015      0.0012
       133        -0.0000     -0.0000      0.1278      0.0163      0.0128
       134         0.0000     -0.0568      0.0000      0.0032      0.0026
       135         0.0000      0.0000      0.0430      0.0018      0.0015
       136        -0.1665     -0.0000      0.0000      0.0277      0.0221
       137         0.0000     -0.0000     -0.0174      0.0003      0.0002
       138        -0.0000     -0.0042      0.0000      0.0000      0.0000
       139         0.0000     -0.0000      0.0117      0.0001      0.0001
       140        -0.0090      0.0000     -0.0000      0.0001      0.0001
       141         0.0000      0.0000      0.0000      0.0000      0.0000
       142         0.0000      0.0222      0.0000      0.0005      0.0004
       143         0.0000      0.0000      0.0000      0.0000      0.0000
       144         0.0349     -0.0000      0.0000      0.0012      0.0010
       145        -0.0000     -0.0000      0.0000      0.0000      0.0000
       146         0.0000      0.0000     -0.1696      0.0288      0.0247
       147         0.0812      0.0000      0.0000      0.0066      0.0057
       148        -0.1790      0.0000     -0.0000      0.0320      0.0278
       149         0.0000      0.0000      0.1037      0.0107      0.0094
       150         0.0000     -0.0746     -0.0000      0.0056      0.0049
       151        -0.0000     -0.3016      0.0000      0.0910      0.0813
       152        -0.0000      0.0000     -0.0049      0.0000      0.0000
       153        -0.0000     -0.0000     -0.3256      0.1060      0.0952
       154         0.0000      0.0043      0.0000      0.0000      0.0000
       155         0.0000      0.1542      0.0000      0.0238      0.0216
       156         0.0000      0.0000      0.0914      0.0083      0.0076
       157        -0.1720      0.0000      0.0000      0.0296      0.0275
       158         0.0000     -0.0000      0.0640      0.0041      0.0038
       159         0.0000     -0.0069     -0.0000      0.0000      0.0000
       160        -0.0000     -0.0000      0.0000      0.0000      0.0000
       161        -0.0000     -0.0000      0.0402      0.0016      0.0015
       162         0.0000      0.0000     -0.0000      0.0000      0.0000
       163        -0.0000     -0.0000      0.1794      0.0322      0.0311
       164        -0.0952     -0.0000      0.0000      0.0091      0.0088
       165        -0.0000      0.0000      0.1553      0.0241      0.0237
       166         0.0000     -0.0855      0.0000      0.0073      0.0072
       167         0.0000     -0.1254      0.0000      0.0157      0.0155
       168        -0.0000      0.0000      0.2971      0.0883      0.0874
       169         0.0000      0.2422     -0.0000      0.0587      0.0584
       170         0.0000     -0.0000      0.1687      0.0285      0.0285
       171         0.0000     -0.0957      0.0000      0.0092      0.0093
       172         0.0000     -0.0000     -0.0000      0.0000      0.0000
       173         0.0000     -0.0000      0.0766      0.0059      0.0060
       174        -0.0000      0.0000      0.1828      0.0334      0.0351
       175        -0.2937     -0.0000      0.0000      0.0862      0.0922
       176         0.0000     -0.0000      0.1304      0.0170      0.0182
       177         0.0000      0.0122     -0.0000      0.0001      0.0002
       178        -0.0308      0.0000      0.0000      0.0009      0.0010
       179        -0.0000     -0.0000      0.0729      0.0053      0.0058
       180        -0.0000      0.1384      0.0000      0.0192      0.0211
       181         0.0000     -0.0000      0.0233      0.0005      0.0006
       182        -0.0000      0.0029      0.0000      0.0000      0.0000
       183        -0.0000      0.0000      0.0595      0.0035      0.0040
       184        -0.0000     -0.0000      0.0000      0.0000      0.0000
       185         0.0325     -0.0000      0.0000      0.0011      0.0012
       186        -0.0933     -0.0000     -0.0000      0.0087      0.0101
       187        -0.0000      0.2626     -0.0000      0.0690      0.0799
       188        -0.0000     -0.0000     -0.0000      0.0000      0.0000
       189        -0.0000     -0.0000     -0.0000      0.0000      0.0000
       190        -0.0000      0.0000      0.0793      0.0063      0.0076
       191        -0.0066     -0.0000      0.0000      0.0000      0.0001
       192         0.4057      0.0000      0.0000      0.1646      0.2014
       193         0.0000     -0.0000      0.0000      0.0000      0.0000
       194         0.0000      0.0000     -0.0000      0.0000      0.0000
       195         0.0000     -0.0000     -0.1510      0.0228      0.0289
       196        -0.0000      0.0000     -0.2857      0.0816      0.1039
       197         0.0000      0.0684     -0.0000      0.0047      0.0060
       198         0.3528     -0.0000     -0.0000      0.1244      0.1595
       199        -0.0000      0.0000      0.1962      0.0385      0.0495
       200         0.0000     -0.1160     -0.0000      0.0135      0.0173
       201         0.0000      0.0281      0.0000      0.0008      0.0010
       202        -0.0000      0.2605      0.0000      0.0679      0.0880
       203         0.0000     -0.0000     -0.0000      0.0000      0.0000
       204         0.0000      0.0000      0.2077      0.0431      0.0569
       205         0.0000     -0.0000      0.1008      0.0102      0.0136
       206        -0.0000     -0.1421     -0.0000      0.0202      0.0272
       207         0.0000     -0.0000     -0.0000      0.0000      0.0000
       208         0.0000     -0.0000      0.1606      0.0258      0.0354
       209         0.0880      0.0000     -0.0000      0.0077      0.0107
       210         0.0000      0.0000     -0.2228      0.0496      0.0685
       211         0.0000      0.1632     -0.0000      0.0266      0.0370
       212         0.3698     -0.0000      0.0000      0.1367      0.1902
       213         0.0000      0.0048     -0.0000      0.0000      0.0000
       214        -0.0000     -0.0000      0.0846      0.0072      0.0101
       215         0.0000     -0.0000      0.0000      0.0000      0.0000
       216         0.0000     -0.0000     -0.0123      0.0002      0.0002
       217        -0.0000      0.0000      0.1082      0.0117      0.0167
       218         0.0000      0.1594     -0.0000      0.0254      0.0364
       219         0.0168     -0.0000      0.0000      0.0003      0.0004
       220        -0.0000     -0.0000      0.1761      0.0310      0.0448
       221        -0.0000     -0.0749      0.0000      0.0056      0.0081
       222        -0.0000      0.0169     -0.0000      0.0003      0.0004
       223         0.0000     -0.0000     -0.0000      0.0000      0.0000
       224        -0.0000     -0.0000     -0.0430      0.0019      0.0028
       225         0.0865     -0.0000     -0.0000      0.0075      0.0112
       226         0.0000      0.0768      0.0000      0.0059      0.0089
       227        -0.0000     -0.1699     -0.0000      0.0289      0.0436
       228         0.0000      0.0000     -0.0000      0.0000      0.0000
       229         0.1798     -0.0000     -0.0000      0.0323      0.0497
       230        -0.0000      0.0000     -0.0207      0.0004      0.0007
       231        -0.3098      0.0000     -0.0000      0.0960      0.1487
       232         0.0000     -0.0000      0.0158      0.0003      0.0004
       233         0.0000      0.2662      0.0000      0.0709      0.1108
       234        -0.0000     -0.0000      0.1461      0.0213      0.0337
       235        -0.0026     -0.0000     -0.0000      0.0000      0.0000
       236        -0.0000     -0.0349      0.0000      0.0012      0.0019
       237        -0.0000      0.0000      0.0000      0.0000      0.0000
       238        -0.0000     -0.0000      0.0000      0.0000      0.0000
       239        -0.0000     -0.0000     -0.0790      0.0062      0.0100
       240         0.3643      0.0000     -0.0000      0.1327      0.2129
       241         0.0000      0.0000      0.0690      0.0048      0.0077
       242         0.0000     -0.0000     -0.0385      0.0015      0.0025
       243        -0.0000     -0.0725      0.0000      0.0053      0.0087
       244         0.0000     -0.0000      0.1122      0.0126      0.0212
       245         0.0000     -0.1951      0.0000      0.0381      0.0643
       246        -0.0020     -0.0000      0.0000      0.0000      0.0000
       247         0.0000     -0.2572      0.0000      0.0661      0.1124
       248        -0.0000     -0.0000      0.0000      0.0000      0.0000
       249        -0.2055     -0.0000     -0.0000      0.0422      0.0736
       250         0.0328     -0.0000     -0.0000      0.0011      0.0019
       251        -0.0000      0.1019     -0.0000      0.0104      0.0187
       252         0.0000      0.0000      0.0000      0.0000      0.0000
       253        -0.0000     -0.0432     -0.0000      0.0019      0.0035
       254         0.0000      0.0000     -0.0662      0.0044      0.0081
       255        -0.0000      0.0000     -0.0002      0.0000      0.0000
       256         0.1142     -0.0000     -0.0000      0.0130      0.0253
       257        -0.0000      0.0000      0.2209      0.0488      0.0954
       258         0.0000      0.0935      0.0000      0.0087      0.0172
       259         0.0000     -0.1263     -0.0000      0.0159      0.0314
       260         0.0000     -0.0000      0.0733      0.0054      0.0106
       261         0.0000     -0.0271     -0.0000      0.0007      0.0015
       262        -0.0000      0.0000     -0.1035      0.0107      0.0214
       263        -0.0809     -0.0000      0.0000      0.0065      0.0131
       264        -0.0037     -0.0000     -0.0000      0.0000      0.0000
       265         0.0000     -0.0000      0.0000      0.0000      0.0000
       266         0.0000     -0.0000     -0.0048      0.0000      0.0000
       267        -0.0000      0.1077     -0.0000      0.0116      0.0241
       268        -0.0000      0.0000     -0.0103      0.0001      0.0002
       269        -0.4405      0.0000      0.0000      0.1940      0.4071
       270        -0.0000      0.0000      0.0158      0.0002      0.0005
       271        -0.0000     -0.0866     -0.0000      0.0075      0.0158
       272        -0.0000      0.0000     -0.0000      0.0000      0.0000
       273         0.0000     -0.0000     -0.0000      0.0000      0.0000
       274        -0.0000     -0.0997      0.0000      0.0099      0.0213
       275         0.0000      0.1558     -0.0000      0.0243      0.0528
       276        -0.0000      0.0000     -0.0238      0.0006      0.0012
       277        -0.0944     -0.0000      0.0000      0.0089      0.0197
       278         0.0000     -0.4756     -0.0000      0.2262      0.5010
       279         0.0000      0.0000     -0.0000      0.0000      0.0000
       280        -0.1549     -0.0000     -0.0000      0.0240      0.0539
       281         0.0000      0.0000     -0.0249      0.0006      0.0014
       282         0.0000     -0.0000     -0.0000      0.0000      0.0000
       283         0.0000      0.1034      0.0000      0.0107      0.0247
       284        -0.0000      0.0000     -0.1968      0.0387      0.0901
       285        -0.0000     -0.0000      0.0000      0.0000      0.0000
       286        -0.3304     -0.0000      0.0000      0.1091      0.2609
       287         0.0000      0.0000      0.0494      0.0024      0.0058
       288        -0.0000      0.0000     -0.0158      0.0002      0.0006
       289        -0.0000      0.0000     -0.1705      0.0291      0.0716
       290         0.0000     -0.1650     -0.0000      0.0272      0.0677
       291         0.0000      0.0000     -0.0711      0.0051      0.0126
       292         0.0926      0.0000      0.0000      0.0086      0.0214
       293         0.0000      0.0000      0.0000      0.0000      0.0000
       294         0.0000     -0.0048      0.0000      0.0000      0.0001
       295        -0.0000     -0.0000      0.0000      0.0000      0.0000
       296         0.0000      0.0000     -0.1036      0.0107      0.0279
       297         0.0000      0.2426      0.0000      0.0589      0.1536
       298         0.1267     -0.0000     -0.0000      0.0161      0.0429
       299        -0.0000      0.0000     -0.0523      0.0027      0.0073
       300        -0.0000      0.0572      0.0000      0.0033      0.0088
       301        -0.0000      0.0000     -0.2577      0.0664      0.1824
       302         0.0000      0.0624      0.0000      0.0039      0.0107
       303         0.0894     -0.0000     -0.0000      0.0080      0.0221
       304        -0.0000      0.0000     -0.0053      0.0000      0.0001
       305         0.0000      0.0141      0.0000      0.0002      0.0006
       306         0.0000      0.0000     -0.0154      0.0002      0.0007
 Ground to excited state transition velocity dipole moments (Au):
       state          X           Y           Z        Dip. S.      Osc.
         1         0.0000      0.0000     -0.0000      0.0000      0.0000
         2        -0.0000     -0.1291      0.0000      0.0167      0.0392
         3         0.0000      0.1959      0.0000      0.0384      0.0758
         4         0.0000      0.0000     -0.2407      0.0579      0.1135
         5        -0.0172     -0.0000     -0.0000      0.0003      0.0006
         6        -0.0000      0.0000     -0.2391      0.0572      0.1061
         7         0.0000      0.0000      0.0000      0.0000      0.0000
         8        -0.0000     -0.0000     -0.0000      0.0000      0.0000
         9        -0.0000     -0.1472      0.0000      0.0217      0.0375
        10         0.0000     -0.1279     -0.0000      0.0163      0.0267
        11         0.1866      0.0000      0.0000      0.0348      0.0552
        12        -0.0000      0.0000     -0.3873      0.1500      0.2271
        13        -0.1292     -0.0000     -0.0000      0.0167      0.0247
        14        -0.0000      0.0000     -0.0000      0.0000      0.0000
        15         0.2335     -0.0000     -0.0000      0.0545      0.0763
        16         0.0000      0.0000     -0.1579      0.0249      0.0345
        17        -0.0000     -0.0000     -0.0000      0.0000      0.0000
        18        -0.0000      0.0000     -0.0069      0.0000      0.0001
        19        -0.0000      0.3756     -0.0000      0.1411      0.1856
        20        -0.0334     -0.0000     -0.0000      0.0011      0.0014
        21         0.0000      0.0000      0.4194      0.1759      0.2246
        22         0.0000     -0.1806      0.0000      0.0326      0.0412
        23        -0.0549     -0.0000      0.0000      0.0030      0.0038
        24        -0.0000     -0.0763      0.0000      0.0058      0.0072
        25         0.1003     -0.0000      0.0000      0.0101      0.0123
        26         0.0000      0.0000     -0.0000      0.0000      0.0000
        27        -0.0000      0.0000      0.4266      0.1820      0.2172
        28         0.4893     -0.0000      0.0000      0.2394      0.2810
        29         0.0000      0.2130      0.0000      0.0454      0.0532
        30         0.0000     -0.0000      0.1497      0.0224      0.0260
        31         0.0000     -0.1480      0.0000      0.0219      0.0254
        32        -0.0000      0.0000      0.0499      0.0025      0.0028
        33        -0.0000      0.1947      0.0000      0.0379      0.0431
        34        -0.0000     -0.0000      0.0872      0.0076      0.0086
        35        -0.0000     -0.0000     -0.0000      0.0000      0.0000
        36        -0.0000     -0.0425      0.0000      0.0018      0.0020
        37         0.0000     -0.3999      0.0000      0.1599      0.1745
        38         0.0000     -0.0000      0.2750      0.0756      0.0819
        39        -0.0000      0.4613      0.0000      0.2128      0.2276
        40         0.4192      0.0000     -0.0000      0.1757      0.1862
        41        -0.0000     -0.0000      0.1417      0.0201      0.0213
        42        -0.0000      0.2468     -0.0000      0.0609      0.0631
        43         0.0000     -0.0000      0.0000      0.0000      0.0000
        44        -0.0000      0.0000     -0.0080      0.0001      0.0001
        45        -0.0000      0.1382      0.0000      0.0191      0.0196
        46         0.0000     -0.0000      0.0000      0.0000      0.0000
        47        -0.0000      0.0000      0.1941      0.0377      0.0376
        48         0.3640      0.0000      0.0000      0.1325      0.1312
        49        -0.2844     -0.0000      0.0000      0.0809      0.0796
        50         0.2292     -0.0000      0.0000      0.0525      0.0513
        51         0.0000      0.0000      0.0000      0.0000      0.0000
        52         0.2632      0.0000      0.0000      0.0693      0.0657
        53        -0.0000     -0.0000      0.2918      0.0851      0.0804
        54         0.0000     -0.0771      0.0000      0.0059      0.0056
        55         0.0000     -0.0000     -0.0000      0.0000      0.0000
        56        -0.0000     -0.0000     -0.1268      0.0161      0.0147
        57        -0.0486      0.0000     -0.0000      0.0024      0.0021
        58        -0.0000     -0.0000      0.2202      0.0485      0.0435
        59        -0.0000     -0.0000     -0.0000      0.0000      0.0000
        60         0.0000      0.1673     -0.0000      0.0280      0.0250
        61        -0.0000     -0.0000      0.1743      0.0304      0.0268
        62         0.3738     -0.0000      0.0000      0.1397      0.1230
        63         0.0000     -0.0518     -0.0000      0.0027      0.0023
        64        -0.0000      0.3102      0.0000      0.0963      0.0838
        65        -0.0000     -0.2171     -0.0000      0.0471      0.0408
        66        -0.0000     -0.0000      0.2013      0.0405      0.0351
        67        -0.0000      0.0000     -0.0461      0.0021      0.0018
        68         0.0000     -0.1617     -0.0000      0.0262      0.0223
        69         0.0000     -0.0000      0.0412      0.0017      0.0014
        70         0.0645      0.0000     -0.0000      0.0042      0.0035
        71         0.0000      0.0000     -0.0263      0.0007      0.0006
        72         0.0000     -0.0647     -0.0000      0.0042      0.0035
        73         0.0000      0.0256     -0.0000      0.0007      0.0005
        74         0.0000     -0.0000      0.0000      0.0000      0.0000
        75        -0.0000      0.0000      0.1590      0.0253      0.0209
        76         0.0000      0.0000     -0.0000      0.0000      0.0000
        77        -0.0000      0.3448      0.0000      0.1189      0.0978
        78        -0.0000     -0.0000      0.3670      0.1347      0.1095
        79         0.0000     -0.0000     -0.0000      0.0000      0.0000
        80        -0.0794     -0.0000     -0.0000      0.0063      0.0050
        81         0.0000     -0.4475     -0.0000      0.2003      0.1588
        82         0.0000      0.0000      0.0000      0.0000      0.0000
        83         0.0655     -0.0000      0.0000      0.0043      0.0034
        84        -0.0000     -0.0000     -0.3465      0.1200      0.0939
        85         0.3855      0.0000     -0.0000      0.1486      0.1152
        86         0.0000     -0.4234      0.0000      0.1793      0.1389
        87         0.0000      0.0000      0.7907      0.6252      0.4750
        88         0.0000      0.0000     -0.0000      0.0000      0.0000
        89        -0.0000      0.4113      0.0000      0.1692      0.1274
        90         0.1095     -0.0000      0.0000      0.0120      0.0089
        91        -0.0000     -0.3355     -0.0000      0.1126      0.0831
        92        -0.3028      0.0000      0.0000      0.0917      0.0671
        93         0.0000     -0.0000      0.1265      0.0160      0.0117
        94         0.0000     -0.0956     -0.0000      0.0091      0.0066
        95        -0.3681     -0.0000     -0.0000      0.1355      0.0967
        96         0.0000     -0.0000      0.3377      0.1140      0.0812
        97        -0.0000      0.0000      0.0000      0.0000      0.0000
        98        -0.0000      0.0000      0.0000      0.0000      0.0000
        99        -0.0000     -0.0000      0.0347      0.0012      0.0008
       100        -0.0000      0.0000      0.0771      0.0059      0.0041
       101         0.1301     -0.0000     -0.0000      0.0169      0.0117
       102         0.0000      0.0000      0.2370      0.0562      0.0387
       103        -0.0000      0.1367      0.0000      0.0187      0.0128
       104        -0.0000      0.0000      0.1122      0.0126      0.0086
       105        -0.0959     -0.0000     -0.0000      0.0092      0.0063
       106         0.0000      0.4450     -0.0000      0.1980      0.1335
       107        -0.0000      0.0000      0.0000      0.0000      0.0000
       108         0.8524     -0.0000      0.0000      0.7265      0.4854
       109        -0.0000      0.0000      0.6652      0.4425      0.2953
       110         0.0000     -0.3900      0.0000      0.1521      0.1008
       111         0.1806     -0.0000      0.0000      0.0326      0.0213
       112        -0.0000      0.0000      0.2670      0.0713      0.0463
       113        -0.0000      0.0000      0.0522      0.0027      0.0018
       114         0.0000      0.1767     -0.0000      0.0312      0.0201
       115         0.0000     -0.3976      0.0000      0.1581      0.1011
       116         0.0000     -0.0000     -0.0000      0.0000      0.0000
       117        -0.0000      0.0000      0.0056      0.0000      0.0000
       118        -0.0000      0.0000      0.0124      0.0002      0.0001
       119        -0.0000     -0.1388      0.0000      0.0193      0.0118
       120        -0.0000     -0.0000     -0.0000      0.0000      0.0000
       121         0.0000      0.0000     -0.0375      0.0014      0.0009
       122        -0.0000     -0.0664     -0.0000      0.0044      0.0027
       123        -0.0000      0.0900     -0.0000      0.0081      0.0049
       124        -0.0427      0.0000      0.0000      0.0018      0.0011
       125        -0.0000     -0.0000      0.0533      0.0028      0.0017
       126        -0.0000     -0.0368      0.0000      0.0014      0.0008
       127        -0.0000      0.0000     -0.1153      0.0133      0.0078
       128        -0.0000      0.0309     -0.0000      0.0010      0.0006
       129        -0.0807     -0.0000     -0.0000      0.0065      0.0038
       130        -0.0000     -0.0000     -0.0610      0.0037      0.0022
       131         0.0000     -0.0000     -0.0000      0.0000      0.0000
       132        -0.0597      0.0000     -0.0000      0.0036      0.0020
       133         0.0000      0.0000     -0.1420      0.0202      0.0114
       134        -0.0000      0.0680     -0.0000      0.0046      0.0026
       135        -0.0000     -0.0000     -0.0401      0.0016      0.0009
       136         0.2371      0.0000     -0.0000      0.0562      0.0313
       137        -0.0000      0.0000      0.0154      0.0002      0.0001
       138         0.0000      0.0039     -0.0000      0.0000      0.0000
       139        -0.0000      0.0000     -0.0002      0.0000      0.0000
       140         0.0218     -0.0000      0.0000      0.0005      0.0003
       141        -0.0000     -0.0000     -0.0000      0.0000      0.0000
       142        -0.0000     -0.0620      0.0000      0.0038      0.0020
       143        -0.0000     -0.0000     -0.0000      0.0000      0.0000
       144        -0.0491      0.0000      0.0000      0.0024      0.0013
       145         0.0000      0.0000     -0.0000      0.0000      0.0000
       146        -0.0000     -0.0000      0.1866      0.0348      0.0180
       147        -0.1149     -0.0000     -0.0000      0.0132      0.0068
       148         0.2767     -0.0000      0.0000      0.0766      0.0393
       149        -0.0000      0.0000     -0.1307      0.0171      0.0087
       150        -0.0000      0.1324      0.0000      0.0175      0.0089
       151         0.0000      0.4024     -0.0000      0.1619      0.0806
       152         0.0000     -0.0000      0.0036      0.0000      0.0000
       153         0.0000     -0.0000      0.4257      0.1812      0.0897
       154        -0.0000     -0.0270     -0.0000      0.0007      0.0004
       155        -0.0000     -0.1956     -0.0000      0.0382      0.0187
       156        -0.0000     -0.0000     -0.1082      0.0117      0.0057
       157         0.2614     -0.0000     -0.0000      0.0684      0.0327
       158        -0.0000     -0.0000     -0.0854      0.0073      0.0035
       159        -0.0000      0.0021      0.0000      0.0000      0.0000
       160         0.0000      0.0000     -0.0000      0.0000      0.0000
       161         0.0000      0.0000     -0.0676      0.0046      0.0021
       162        -0.0000     -0.0000     -0.0000      0.0000      0.0000
       163        -0.0000      0.0000     -0.2911      0.0848      0.0390
[...]
      5   0.000000D+00  0.000000D+00  0.000000D+00  0.000000D+00 -0.772938D+00
      6   0.104906D+00  0.000000D+00  0.000000D+00  0.000000D+00  0.000000D+00
      7   0.000000D+00  0.000000D+00  0.000000D+00  0.157214D+00  0.000000D+00
      8  -0.299731D+00  0.000000D+00  0.000000D+00  0.000000D+00  0.000000D+00
      9   0.000000D+00  0.000000D+00  0.000000D+00  0.000000D+00 -0.155927D+00
     10   0.000000D+00  0.120795D+00 -0.229012D+00  0.000000D+00  0.000000D+00
     11   0.000000D+00  0.000000D+00  0.000000D+00 -0.474332D+00  0.000000D+00
     12   0.000000D+00  0.000000D+00  0.000000D+00 -0.668670D+00  0.000000D+00
     13   0.000000D+00  0.000000D+00  0.000000D+00  0.309214D+00  0.000000D+00
     14   0.000000D+00 -0.445309D+00  0.587485D+00  0.000000D+00  0.000000D+00
     15   0.000000D+00  0.000000D+00  0.000000D+00  0.000000D+00  0.108576D+00
     16   0.272207D+00  0.000000D+00  0.000000D+00  0.000000D+00  0.000000D+00
               241           242           243           244           245 
      1  -0.111971D+03 -0.111896D+03 -0.111888D+03 -0.111858D+03 -0.111850D+03
      2   0.000000D+00  0.000000D+00  0.000000D+00  0.000000D+00  0.000000D+00
      3   0.000000D+00  0.000000D+00 -0.724602D-01  0.000000D+00 -0.195072D+00
      4   0.690054D-01 -0.385306D-01  0.000000D+00  0.112202D+00  0.000000D+00
      5   0.000000D+00  0.000000D+00  0.000000D+00  0.000000D+00  0.000000D+00
      6   0.000000D+00  0.000000D+00  0.176550D+00  0.000000D+00  0.388135D+00
      7  -0.121205D+00  0.103079D+00  0.000000D+00 -0.233096D+00  0.000000D+00
      8   0.000000D+00  0.000000D+00 -0.618871D+00  0.000000D+00  0.351002D+00
      9   0.000000D+00  0.000000D+00  0.000000D+00  0.000000D+00  0.000000D+00
     10   0.000000D+00  0.000000D+00  0.000000D+00  0.000000D+00  0.000000D+00
     11  -0.315778D+00 -0.815818D-01  0.000000D+00 -0.193001D+00  0.000000D+00
     12   0.216202D-01 -0.214346D+00  0.000000D+00 -0.439921D+00  0.000000D+00
     13  -0.178636D+01  0.102467D+01  0.000000D+00  0.105893D+01  0.000000D+00
     14   0.000000D+00  0.000000D+00  0.000000D+00  0.000000D+00  0.000000D+00
     15   0.000000D+00  0.000000D+00  0.000000D+00  0.000000D+00  0.000000D+00
     16   0.000000D+00  0.000000D+00  0.139833D+00  0.000000D+00 -0.157662D+00
               246           247           248           249           250 
      1  -0.111841D+03 -0.111837D+03 -0.111813D+03 -0.111772D+03 -0.111699D+03
      2  -0.199596D-02  0.000000D+00  0.000000D+00 -0.205546D+00  0.327899D-01
      3   0.000000D+00 -0.257152D+00  0.000000D+00  0.000000D+00  0.000000D+00
      4   0.000000D+00  0.000000D+00  0.000000D+00  0.000000D+00  0.000000D+00
      5   0.650314D-02  0.000000D+00  0.000000D+00  0.459710D+00 -0.132330D+00
      6   0.000000D+00  0.689983D+00  0.000000D+00  0.000000D+00  0.000000D+00
      7   0.000000D+00  0.000000D+00  0.000000D+00  0.000000D+00  0.000000D+00
      8   0.000000D+00 -0.590073D+00  0.000000D+00  0.000000D+00  0.000000D+00
      9   0.445681D-01  0.000000D+00  0.000000D+00  0.539658D-01 -0.248795D+00
     10   0.000000D+00  0.000000D+00  0.130017D+00  0.000000D+00  0.000000D+00
     11   0.000000D+00  0.000000D+00  0.000000D+00  0.000000D+00  0.000000D+00
     12   0.000000D+00  0.000000D+00  0.000000D+00  0.000000D+00  0.000000D+00
     13   0.000000D+00  0.000000D+00  0.000000D+00  0.000000D+00  0.000000D+00
     14   0.000000D+00  0.000000D+00 -0.545540D+00  0.000000D+00  0.000000D+00
     15   0.280151D+00  0.000000D+00  0.000000D+00  0.226383D+00 -0.441688D+00
     16   0.000000D+00  0.757242D+00  0.000000D+00  0.000000D+00  0.000000D+00
               251           252           253           254           255 
      1  -0.111680D+03 -0.111659D+03 -0.111611D+03 -0.111610D+03 -0.111542D+03
      2   0.000000D+00  0.000000D+00  0.000000D+00  0.000000D+00  0.000000D+00
      3   0.101915D+00  0.000000D+00 -0.432186D-01  0.000000D+00  0.000000D+00
      4   0.000000D+00  0.000000D+00  0.000000D+00 -0.662377D-01 -0.186965D-03
      5   0.000000D+00  0.000000D+00  0.000000D+00  0.000000D+00  0.000000D+00
      6  -0.260760D+00  0.000000D+00  0.148343D+00  0.000000D+00  0.000000D+00
      7   0.000000D+00  0.000000D+00  0.000000D+00  0.166494D+00  0.129726D-02
      8   0.155788D+00  0.000000D+00 -0.355635D+00  0.000000D+00  0.000000D+00
      9   0.000000D+00  0.000000D+00  0.000000D+00  0.000000D+00  0.000000D+00
     10   0.000000D+00  0.168277D+00  0.000000D+00  0.000000D+00  0.000000D+00
     11   0.000000D+00  0.000000D+00  0.000000D+00 -0.774479D+00  0.731169D+00
     12   0.000000D+00  0.000000D+00  0.000000D+00 -0.493916D+00  0.101193D+01
     13   0.000000D+00  0.000000D+00  0.000000D+00  0.210913D+00  0.365518D+00
     14   0.000000D+00 -0.252372D+00  0.000000D+00  0.000000D+00  0.000000D+00
     15   0.000000D+00  0.000000D+00  0.000000D+00  0.000000D+00  0.000000D+00
     16  -0.111711D+00  0.000000D+00  0.946873D-01  0.000000D+00  0.000000D+00
               256           257           258           259           260 
      1  -0.111476D+03 -0.111454D+03 -0.111442D+03 -0.111431D+03 -0.111414D+03
      2   0.114157D+00  0.000000D+00  0.000000D+00  0.000000D+00  0.000000D+00
      3   0.000000D+00  0.000000D+00  0.935028D-01 -0.126256D+00  0.000000D+00
      4   0.000000D+00  0.220934D+00  0.000000D+00  0.000000D+00  0.732918D-01
      5  -0.250803D+00  0.000000D+00  0.000000D+00  0.000000D+00  0.000000D+00
      6   0.000000D+00  0.000000D+00 -0.235054D+00  0.268334D+00  0.000000D+00
      7   0.000000D+00 -0.549643D+00  0.000000D+00  0.000000D+00 -0.201328D+00
      8   0.000000D+00  0.000000D+00  0.437465D+00 -0.328503D+00  0.000000D+00
      9   0.126920D+00  0.000000D+00  0.000000D+00  0.000000D+00  0.000000D+00
     10   0.000000D+00  0.000000D+00  0.000000D+00  0.000000D+00  0.000000D+00
     11   0.000000D+00 -0.675772D-01  0.000000D+00  0.000000D+00 -0.301641D+00
     12   0.000000D+00  0.180189D+00  0.000000D+00  0.000000D+00  0.490596D-01
     13   0.000000D+00 -0.515536D+00  0.000000D+00  0.000000D+00  0.142007D-01
     14   0.000000D+00  0.000000D+00  0.000000D+00  0.000000D+00  0.000000D+00
     15   0.160427D+00  0.000000D+00  0.000000D+00  0.000000D+00  0.000000D+00
     16   0.000000D+00  0.000000D+00 -0.816678D+00  0.201412D+00  0.000000D+00
               261           262           263           264           265 
      1  -0.111394D+03 -0.111389D+03 -0.111383D+03 -0.111346D+03 -0.111343D+03
      2   0.000000D+00  0.000000D+00 -0.808685D-01 -0.367227D-02  0.000000D+00
      3  -0.270736D-01  0.000000D+00  0.000000D+00  0.000000D+00  0.000000D+00
      4   0.000000D+00 -0.103473D+00  0.000000D+00  0.000000D+00  0.000000D+00
      5   0.000000D+00  0.000000D+00  0.192116D+00  0.111118D-01  0.000000D+00
      6   0.561841D-01  0.000000D+00  0.000000D+00  0.000000D+00  0.000000D+00
      7   0.000000D+00  0.285551D+00  0.000000D+00  0.000000D+00  0.000000D+00
      8   0.759023D-01  0.000000D+00  0.000000D+00  0.000000D+00  0.000000D+00
      9   0.000000D+00  0.000000D+00 -0.262074D+00  0.107584D+00  0.000000D+00
     10   0.000000D+00  0.000000D+00  0.000000D+00  0.000000D+00 -0.113523D-01
     11   0.000000D+00 -0.517625D-01  0.000000D+00  0.000000D+00  0.000000D+00
     12   0.000000D+00 -0.215125D+00  0.000000D+00  0.000000D+00  0.000000D+00
     13   0.000000D+00  0.129003D+01  0.000000D+00  0.000000D+00  0.000000D+00
     14   0.000000D+00  0.000000D+00  0.000000D+00  0.000000D+00 -0.237420D+00
     15   0.000000D+00  0.000000D+00 -0.608722D+00  0.102806D+00  0.000000D+00
     16   0.148256D+00  0.000000D+00  0.000000D+00  0.000000D+00  0.000000D+00
               266           267           268           269           270 
      1  -0.111280D+03 -0.111275D+03 -0.111261D+03 -0.111239D+03 -0.111232D+03
      2   0.000000D+00  0.000000D+00  0.000000D+00 -0.440504D+00  0.000000D+00
      3   0.000000D+00  0.107717D+00  0.000000D+00  0.000000D+00  0.000000D+00
      4  -0.481596D-02  0.000000D+00 -0.103025D-01  0.000000D+00  0.157617D-01
      5   0.000000D+00  0.000000D+00  0.000000D+00  0.119618D+01  0.000000D+00
      6   0.000000D+00 -0.302544D+00  0.000000D+00  0.000000D+00  0.000000D+00
      7   0.137605D-01  0.000000D+00  0.407239D-01  0.000000D+00 -0.459048D-01
      8   0.000000D+00  0.156856D-01  0.000000D+00  0.000000D+00  0.000000D+00
      9   0.000000D+00  0.000000D+00  0.000000D+00  0.102596D+01  0.000000D+00
     10   0.000000D+00  0.000000D+00  0.000000D+00  0.000000D+00  0.000000D+00
     11   0.964250D-01  0.000000D+00 -0.127874D+00  0.000000D+00 -0.258302D+00
     12   0.140403D+00  0.000000D+00  0.323292D+00  0.000000D+00 -0.829649D-01
     13  -0.277449D+00  0.000000D+00  0.260952D+00  0.000000D+00 -0.103828D+01
     14   0.000000D+00  0.000000D+00  0.000000D+00  0.000000D+00  0.000000D+00
     15   0.000000D+00  0.000000D+00  0.000000D+00  0.935351D+00  0.000000D+00
     16   0.000000D+00 -0.128827D+00  0.000000D+00  0.000000D+00  0.000000D+00
               271           272           273           274           275 
      1  -0.111230D+03 -0.111206D+03 -0.111172D+03 -0.111171D+03 -0.111126D+03
      2   0.000000D+00  0.000000D+00  0.000000D+00  0.000000D+00  0.000000D+00
      3  -0.865728D-01  0.000000D+00  0.000000D+00 -0.996688D-01  0.155828D+00
      4   0.000000D+00  0.000000D+00  0.000000D+00  0.000000D+00  0.000000D+00
      5   0.000000D+00  0.000000D+00  0.000000D+00  0.000000D+00  0.000000D+00
      6   0.229622D+00  0.000000D+00  0.000000D+00  0.214272D+00 -0.437797D+00
      7   0.000000D+00  0.000000D+00  0.000000D+00  0.000000D+00  0.000000D+00
      8   0.936883D-01  0.000000D+00  0.000000D+00 -0.149726D+00  0.615494D+00
      9   0.000000D+00  0.000000D+00  0.000000D+00  0.000000D+00  0.000000D+00
     10   0.000000D+00  0.597829D-02 -0.967727D-02  0.000000D+00  0.000000D+00
     11   0.000000D+00  0.000000D+00  0.000000D+00  0.000000D+00  0.000000D+00
     12   0.000000D+00  0.000000D+00  0.000000D+00  0.000000D+00  0.000000D+00
     13   0.000000D+00  0.000000D+00  0.000000D+00  0.000000D+00  0.000000D+00
     14   0.000000D+00  0.345749D+00  0.235756D+00  0.000000D+00  0.000000D+00
     15   0.000000D+00  0.000000D+00  0.000000D+00  0.000000D+00  0.000000D+00
     16  -0.341730D+00  0.000000D+00  0.000000D+00  0.173128D+00 -0.315995D+00
               276           277           278           279           280 
      1  -0.111078D+03 -0.111072D+03 -0.111063D+03 -0.111061D+03 -0.111016D+03
      2   0.000000D+00 -0.944150D-01  0.000000D+00  0.000000D+00 -0.154872D+00
      3   0.000000D+00  0.000000D+00 -0.475596D+00  0.000000D+00  0.000000D+00
      4  -0.237720D-01  0.000000D+00  0.000000D+00  0.000000D+00  0.000000D+00
      5   0.000000D+00  0.258873D+00  0.000000D+00  0.000000D+00  0.415486D+00
      6   0.000000D+00  0.000000D+00  0.132512D+01  0.000000D+00  0.000000D+00
      7   0.608918D-01  0.000000D+00  0.000000D+00  0.000000D+00  0.000000D+00
      8   0.000000D+00  0.000000D+00 -0.117479D+01  0.000000D+00  0.000000D+00
      9   0.000000D+00  0.233001D+00  0.000000D+00  0.000000D+00  0.723616D+00
     10   0.000000D+00  0.000000D+00  0.000000D+00  0.182021D-01  0.000000D+00
     11   0.305720D+00  0.000000D+00  0.000000D+00  0.000000D+00  0.000000D+00
     12  -0.236600D+00  0.000000D+00  0.000000D+00  0.000000D+00  0.000000D+00
     13  -0.425738D+00  0.000000D+00  0.000000D+00  0.000000D+00  0.000000D+00
     14   0.000000D+00  0.000000D+00  0.000000D+00 -0.204048D+00  0.000000D+00
     15   0.000000D+00  0.197538D+00  0.000000D+00  0.000000D+00  0.616946D+00
     16   0.000000D+00  0.000000D+00  0.129596D+01  0.000000D+00  0.000000D+00
               281           282           283           284           285 
      1  -0.110976D+03 -0.110925D+03 -0.110923D+03 -0.110895D+03 -0.110801D+03
      2   0.000000D+00  0.000000D+00  0.000000D+00  0.000000D+00  0.000000D+00
      3   0.000000D+00  0.000000D+00  0.103408D+00  0.000000D+00  0.000000D+00
      4  -0.249472D-01  0.000000D+00  0.000000D+00 -0.196816D+00  0.000000D+00
      5   0.000000D+00  0.000000D+00  0.000000D+00  0.000000D+00  0.000000D+00
      6   0.000000D+00  0.000000D+00 -0.309423D+00  0.000000D+00  0.000000D+00
      7   0.859860D-01  0.000000D+00  0.000000D+00  0.636456D+00  0.000000D+00
      8   0.000000D+00  0.000000D+00  0.684534D+00  0.000000D+00  0.000000D+00
      9   0.000000D+00  0.000000D+00  0.000000D+00  0.000000D+00  0.000000D+00
     10   0.000000D+00 -0.120662D-01  0.000000D+00  0.000000D+00 -0.232105D-01
     11   0.221371D+00  0.000000D+00  0.000000D+00  0.689525D-01  0.000000D+00
     12  -0.253824D+00  0.000000D+00  0.000000D+00  0.122596D+00  0.000000D+00
     13   0.223430D+00  0.000000D+00  0.000000D+00  0.112460D+01  0.000000D+00
     14   0.000000D+00 -0.263064D+00  0.000000D+00  0.000000D+00  0.175614D+00
     15   0.000000D+00  0.000000D+00  0.000000D+00  0.000000D+00  0.000000D+00
     16   0.000000D+00  0.000000D+00 -0.905168D+00  0.000000D+00  0.000000D+00
               286           287           288           289           290 
      1  -0.110799D+03 -0.110793D+03 -0.110791D+03 -0.110693D+03 -0.110656D+03
      2  -0.330358D+00  0.000000D+00  0.000000D+00  0.000000D+00  0.000000D+00
      3   0.000000D+00  0.000000D+00  0.000000D+00  0.000000D+00 -0.165032D+00
      4   0.000000D+00  0.494072D-01 -0.157912D-01 -0.170541D+00  0.000000D+00
      5   0.102560D+01  0.000000D+00  0.000000D+00  0.000000D+00  0.000000D+00
      6   0.000000D+00  0.000000D+00  0.000000D+00  0.000000D+00  0.518407D+00
      7   0.000000D+00 -0.189670D+00  0.316969D-01  0.595392D+00  0.000000D+00
      8   0.000000D+00  0.000000D+00  0.000000D+00  0.000000D+00 -0.761440D-01
      9   0.143642D+01  0.000000D+00  0.000000D+00  0.000000D+00  0.000000D+00
     10   0.000000D+00  0.000000D+00  0.000000D+00  0.000000D+00  0.000000D+00
     11   0.000000D+00 -0.549934D-01 -0.296723D+00  0.127493D-01  0.000000D+00
     12   0.000000D+00  0.277034D+00  0.384931D+00 -0.118471D+00  0.000000D+00
     13   0.000000D+00 -0.747727D+00 -0.519427D+00  0.199874D+01  0.000000D+00
     14   0.000000D+00  0.000000D+00  0.000000D+00  0.000000D+00  0.000000D+00
     15   0.219680D+01  0.000000D+00  0.000000D+00  0.000000D+00  0.000000D+00
     16   0.000000D+00  0.000000D+00  0.000000D+00  0.000000D+00 -0.142207D+00
               291           292           293           294           295 
      1  -0.110650D+03 -0.110648D+03 -0.110607D+03 -0.110541D+03 -0.110533D+03
      2   0.000000D+00  0.926069D-01  0.000000D+00  0.000000D+00  0.000000D+00
      3   0.000000D+00  0.000000D+00  0.000000D+00 -0.481597D-02  0.000000D+00
      4  -0.710875D-01  0.000000D+00  0.000000D+00  0.000000D+00  0.000000D+00
      5   0.000000D+00 -0.276217D+00  0.000000D+00  0.000000D+00  0.000000D+00
      6   0.000000D+00  0.000000D+00  0.000000D+00 -0.696002D-02  0.000000D+00
      7   0.249189D+00  0.000000D+00  0.000000D+00  0.000000D+00  0.000000D+00
      8   0.000000D+00  0.000000D+00  0.000000D+00 -0.354100D+00  0.000000D+00
      9   0.000000D+00 -0.860614D-01  0.000000D+00  0.000000D+00  0.000000D+00
     10   0.000000D+00  0.000000D+00 -0.430126D-02  0.000000D+00 -0.913295D-03
     11  -0.695488D+00  0.000000D+00  0.000000D+00  0.000000D+00  0.000000D+00
     12   0.437977D+00  0.000000D+00  0.000000D+00  0.000000D+00  0.000000D+00
     13   0.687045D+00  0.000000D+00  0.000000D+00  0.000000D+00  0.000000D+00
     14   0.000000D+00  0.000000D+00 -0.129291D+00  0.000000D+00  0.598866D+00
     15   0.000000D+00 -0.118744D+00  0.000000D+00  0.000000D+00  0.000000D+00
     16   0.000000D+00  0.000000D+00  0.000000D+00  0.661099D+00  0.000000D+00
               296           297           298           299           300 
      1  -0.110485D+03 -0.110471D+03 -0.110381D+03 -0.110368D+03 -0.110345D+03
      2   0.000000D+00  0.000000D+00  0.126713D+00  0.000000D+00  0.000000D+00
      3   0.000000D+00  0.242631D+00  0.000000D+00  0.000000D+00  0.571917D-01
      4  -0.103595D+00  0.000000D+00  0.000000D+00 -0.522676D-01  0.000000D+00
      5   0.000000D+00  0.000000D+00 -0.448137D+00  0.000000D+00  0.000000D+00
      6   0.000000D+00 -0.827378D+00  0.000000D+00  0.000000D+00 -0.207812D+00
      7   0.394701D+00  0.000000D+00  0.000000D+00  0.180161D+00  0.000000D+00
      8   0.000000D+00  0.119954D+01  0.000000D+00  0.000000D+00  0.165405D+00
      9   0.000000D+00  0.000000D+00 -0.684446D+00  0.000000D+00  0.000000D+00
     10   0.000000D+00  0.000000D+00  0.000000D+00  0.000000D+00  0.000000D+00
     11  -0.293298D-01  0.000000D+00  0.000000D+00  0.952897D-01  0.000000D+00
     12  -0.304288D-01  0.000000D+00  0.000000D+00 -0.370927D+00  0.000000D+00
     13   0.223988D+00  0.000000D+00  0.000000D+00  0.377248D+00  0.000000D+00
     14   0.000000D+00  0.000000D+00  0.000000D+00  0.000000D+00  0.000000D+00
     15   0.000000D+00  0.000000D+00 -0.100271D+01  0.000000D+00  0.000000D+00
     16   0.000000D+00 -0.175480D+01  0.000000D+00  0.000000D+00 -0.345122D+00
               301           302           303           304           305 
      1  -0.110265D+03 -0.110263D+03 -0.110243D+03 -0.110113D+03 -0.109934D+03
      2   0.000000D+00  0.000000D+00  0.893663D-01  0.000000D+00  0.000000D+00
      3   0.000000D+00  0.624085D-01  0.000000D+00  0.000000D+00  0.140823D-01
      4  -0.257703D+00  0.000000D+00  0.000000D+00 -0.529913D-02  0.000000D+00
      5   0.000000D+00  0.000000D+00 -0.312767D+00  0.000000D+00  0.000000D+00
      6   0.000000D+00 -0.206194D+00  0.000000D+00  0.000000D+00 -0.632538D-01
      7   0.989118D+00  0.000000D+00  0.000000D+00 -0.533677D-02  0.000000D+00
      8   0.000000D+00  0.353641D+00  0.000000D+00  0.000000D+00  0.328639D+00
      9   0.000000D+00  0.000000D+00 -0.366545D+00  0.000000D+00  0.000000D+00
     10   0.000000D+00  0.000000D+00  0.000000D+00  0.000000D+00  0.000000D+00
     11  -0.195053D+00  0.000000D+00  0.000000D+00  0.179813D+00  0.000000D+00
     12  -0.162036D+00  0.000000D+00  0.000000D+00  0.123179D+00  0.000000D+00
     13   0.323826D+01  0.000000D+00  0.000000D+00 -0.135942D+01  0.000000D+00
     14   0.000000D+00  0.000000D+00  0.000000D+00  0.000000D+00  0.000000D+00
     15   0.000000D+00  0.000000D+00 -0.231578D+00  0.000000D+00  0.000000D+00
     16   0.000000D+00 -0.547845D+00  0.000000D+00  0.000000D+00 -0.270390D+00
               306 
      1  -0.109715D+03
      2   0.000000D+00
      3   0.000000D+00
      4  -0.154272D-01
      5   0.000000D+00
      6   0.000000D+00
      7  -0.800736D-03
      8   0.000000D+00
      9   0.000000D+00
     10   0.000000D+00
     11  -0.646692D-01
     12  -0.100876D+00
     13  -0.499209D+00
     14   0.000000D+00
     15   0.000000D+00
     16   0.000000D+00
 Unable to Open any file for archive entry.
 1\1\GINC-HEL02\SP\RwB97XD TD-FC\Gen\C1H2O1\RR\12-Feb-2022\0\\#P TD(Nst
 ates=10000) wB97XD/Gen SCF(maxcycles=100) Int(Grid=ultrafine)\\xGDB7_0
 0001_tier4.com\\0,1\C,0,0.,0.,-0.523169\O,0,0.,0.,0.673082\H,0,0.,0.94
 3747,-1.12282\H,0,0.,-0.943747,-1.12282\\Version=EM64L-G16RevC.01\Stat
 e=1-A1\HF=-114.3854063\RMSD=4.831e-09\PG=C02V [C2(C1O1),SGV(H2)]\\@
 The archive entry for this job was punched.


 WE HAVE SEEN THAT MAN ON THE AVERAGE DOES NOT LIVE ABOVE
 TWO-AND-TWENTY YEARS.  DURING THESE TWO AND TWENTY
 YEARS HE IS LIABLE TO TWO AND TWENTY THOUSAND EVILS,
 MANY OF WHICH ARE INCURABLE.  YET EVEN IN THIS DREADFUL STATE
 MEN STILL STRUT AND POSE ON THE STAGE OF LIFE.
 THEY MAKE LOVE AT THE RISK OF DESTRUCTION,
 INTRIGUE, CARRY ON WAR, AND FORM PROJECTS, JUST AS IF THEY
 WERE TO LIVE IN LUXURY AND HAPPINESS FOR A THOUSAND
 AGES.

                                              -- VOLTAIRE
 Job cpu time:       0 days  0 hours  0 minutes 53.6 seconds.
 Elapsed time:       0 days  0 hours  0 minutes  7.0 seconds.
 File lengths (MBytes):  RWF=    123 Int=      0 D2E=      0 Chk=     27 Scr=      1
 Normal termination of Gaussian 16 at Sat Feb 12 22:22:49 2022.
