 Entering Gaussian System, Link 0=g16
 Input=bigQM7w_TDwB97XD_def2SVPD_000019.com
 Output=bigQM7w_TDwB97XD_def2SVPD_000019.log
 Initial command:
 /home/rr/g16/l1.exe "/scratch/rr/PBS_7839464.helios/Gau-84757.inp" -scrdir="/scratch/rr/PBS_7839464.helios/"
 Entering Link 1 = /home/rr/g16/l1.exe PID=     84763.
  
 Copyright (c) 1988-2019, Gaussian, Inc.  All Rights Reserved.
  
 This is part of the Gaussian(R) 16 program.  It is based on
 the Gaussian(R) 09 system (copyright 2009, Gaussian, Inc.),
 the Gaussian(R) 03 system (copyright 2003, Gaussian, Inc.),
 the Gaussian(R) 98 system (copyright 1998, Gaussian, Inc.),
 the Gaussian(R) 94 system (copyright 1995, Gaussian, Inc.),
 the Gaussian 92(TM) system (copyright 1992, Gaussian, Inc.),
 the Gaussian 90(TM) system (copyright 1990, Gaussian, Inc.),
 the Gaussian 88(TM) system (copyright 1988, Gaussian, Inc.),
 the Gaussian 86(TM) system (copyright 1986, Carnegie Mellon
 University), and the Gaussian 82(TM) system (copyright 1983,
 Carnegie Mellon University). Gaussian is a federally registered
 trademark of Gaussian, Inc.
  
 This software contains proprietary and confidential information,
 including trade secrets, belonging to Gaussian, Inc.
  
 This software is provided under written license and may be
 used, copied, transmitted, or stored only in accord with that
 written license.
  
 The following legend is applicable only to US Government
 contracts under FAR:
  
                    RESTRICTED RIGHTS LEGEND
  
 Use, reproduction and disclosure by the US Government is
 subject to restrictions as set forth in subparagraphs (a)
 and (c) of the Commercial Computer Software - Restricted
 Rights clause in FAR 52.227-19.
  
 Gaussian, Inc.
 340 Quinnipiac St., Bldg. 40, Wallingford CT 06492
  
  
 ---------------------------------------------------------------
 Warning -- This program may not be used in any manner that
 competes with the business of Gaussian, Inc. or will provide
 assistance to any competitor of Gaussian, Inc.  The licensee
 of this program is prohibited from giving any competitor of
 Gaussian, Inc. access to this program.  By using this program,
 the user acknowledges that Gaussian, Inc. is engaged in the
 business of creating and licensing software in the field of
 computational chemistry and represents and warrants to the
 licensee that it is not a competitor of Gaussian, Inc. and that
 it will not use this program in any manner prohibited above.
 ---------------------------------------------------------------
  

 Cite this work as:
 Gaussian 16, Revision C.01,
 M. J. Frisch, G. W. Trucks, H. B. Schlegel, G. E. Scuseria, 
 M. A. Robb, J. R. Cheeseman, G. Scalmani, V. Barone, 
 G. A. Petersson, H. Nakatsuji, X. Li, M. Caricato, A. V. Marenich, 
 J. Bloino, B. G. Janesko, R. Gomperts, B. Mennucci, H. P. Hratchian, 
 J. V. Ortiz, A. F. Izmaylov, J. L. Sonnenberg, D. Williams-Young, 
 F. Ding, F. Lipparini, F. Egidi, J. Goings, B. Peng, A. Petrone, 
 T. Henderson, D. Ranasinghe, V. G. Zakrzewski, J. Gao, N. Rega, 
 G. Zheng, W. Liang, M. Hada, M. Ehara, K. Toyota, R. Fukuda, 
 J. Hasegawa, M. Ishida, T. Nakajima, Y. Honda, O. Kitao, H. Nakai, 
 T. Vreven, K. Throssell, J. A. Montgomery, Jr., J. E. Peralta, 
 F. Ogliaro, M. J. Bearpark, J. J. Heyd, E. N. Brothers, K. N. Kudin, 
 V. N. Staroverov, T. A. Keith, R. Kobayashi, J. Normand, 
 K. Raghavachari, A. P. Rendell, J. C. Burant, S. S. Iyengar, 
 J. Tomasi, M. Cossi, J. M. Millam, M. Klene, C. Adamo, R. Cammi, 
 J. W. Ochterski, R. L. Martin, K. Morokuma, O. Farkas, 
 J. B. Foresman, and D. J. Fox, Gaussian, Inc., Wallingford CT, 2019.
 
 ******************************************
 Gaussian 16:  EM64L-G16RevC.01  3-Jul-2019
                12-Feb-2022 
 ******************************************
 %mem=64gb
 %nproc=8
 Will use up to    8 processors via shared memory.
 ----------------------------------------------------------------------
 #P TD(Nstates=10000) wB97XD/Gen SCF(maxcycles=100) Int(Grid=ultrafine)
 ----------------------------------------------------------------------
 1/38=1,172=1/1;
 2/12=2,17=6,18=5,40=1/2;
 3/5=7,11=9,25=1,30=1,74=-58,75=-5/1,2,3,8;
 4//1;
 5/5=2,7=100,38=5/2;
 8/6=1,10=1,108=10000/1;
 9/41=10000,42=1,70=2/14;
 6/7=2,8=2,9=2,10=2/1;
 99/5=1,9=1/99;
 Leave Link    1 at Sat Feb 12 22:17:54 2022, MaxMem=  8589934592 cpu:               0.4 elap:               0.1
 (Enter /home/rr/g16/l101.exe)
 ---------------------
 xGDB7_00001_tier4.com
 ---------------------
 Symbolic Z-matrix:
 Charge =  0 Multiplicity = 1
 6                    -0.02605  -0.21714   1.20988 
 7                    -0.02605   0.57077   0. 
 6                    -0.02605  -0.21714  -1.20988 
 1                     0.01374   0.44062   2.09083 
 1                     0.81355  -0.94366   1.28615 
 1                    -0.96137  -0.79717   1.27799 
 1                     0.76307   1.21074   0. 
 1                    -0.96137  -0.79717  -1.27799 
 1                     0.81355  -0.94366  -1.28615 
 1                     0.01374   0.44062  -2.09083 
 
 ITRead=  0  0  0  0  0  0  0  0  0  0
 MicOpt= -1 -1 -1 -1 -1 -1 -1 -1 -1 -1
 NAtoms=     10 NQM=       10 NQMF=       0 NMMI=      0 NMMIF=      0
                NMic=       0 NMicF=      0.
                    Isotopes and Nuclear Properties:
 (Nuclear quadrupole moments (NQMom) in fm**2, nuclear magnetic moments (NMagM)
  in nuclear magnetons)

  Atom         1           2           3           4           5           6           7           8           9          10
 IAtWgt=          12          14          12           1           1           1           1           1           1           1
 AtmWgt=  12.0000000  14.0030740  12.0000000   1.0078250   1.0078250   1.0078250   1.0078250   1.0078250   1.0078250   1.0078250
 NucSpn=           0           2           0           1           1           1           1           1           1           1
 AtZEff=  -0.0000000  -0.0000000  -0.0000000  -0.0000000  -0.0000000  -0.0000000  -0.0000000  -0.0000000  -0.0000000  -0.0000000
 NQMom=    0.0000000   2.0440000   0.0000000   0.0000000   0.0000000   0.0000000   0.0000000   0.0000000   0.0000000   0.0000000
 NMagM=    0.0000000   0.4037610   0.0000000   2.7928460   2.7928460   2.7928460   2.7928460   2.7928460   2.7928460   2.7928460
 AtZNuc=   6.0000000   7.0000000   6.0000000   1.0000000   1.0000000   1.0000000   1.0000000   1.0000000   1.0000000   1.0000000
 Leave Link  101 at Sat Feb 12 22:17:54 2022, MaxMem=  8589934592 cpu:               0.7 elap:               0.1
 (Enter /home/rr/g16/l202.exe)
                          Input orientation:                          
 ---------------------------------------------------------------------
 Center     Atomic      Atomic             Coordinates (Angstroms)
 Number     Number       Type             X           Y           Z
 ---------------------------------------------------------------------
      1          6           0       -0.026047   -0.217143    1.209876
      2          7           0       -0.026047    0.570772    0.000000
      3          6           0       -0.026047   -0.217143   -1.209876
      4          1           0        0.013735    0.440621    2.090832
      5          1           0        0.813545   -0.943661    1.286149
      6          1           0       -0.961368   -0.797172    1.277991
      7          1           0        0.763067    1.210735    0.000000
      8          1           0       -0.961368   -0.797172   -1.277991
      9          1           0        0.813545   -0.943661   -1.286149
     10          1           0        0.013735    0.440621   -2.090832
 ---------------------------------------------------------------------
                    Distance matrix (angstroms):
                    1          2          3          4          5
     1  C    0.000000
     2  N    1.443818   0.000000
     3  C    2.419752   1.443818   0.000000
     4  H    1.100145   2.095257   3.365845   0.000000
     5  H    1.112906   2.156989   2.731828   1.789818   0.000000
     6  H    1.102678   2.092691   2.720430   1.773039   1.780967
     7  H    2.031092   1.015999   2.031092   2.350777   2.509611
     8  H    2.720430   2.092691   1.102678   3.719130   3.121953
     9  H    2.731828   2.156989   1.112906   3.736299   2.572298
    10  H    3.365845   2.095257   1.100145   4.181664   3.736299
                    6          7          8          9         10
     6  H    0.000000
     7  H    2.939154   0.000000
     8  H    2.555982   2.939154   0.000000
     9  H    3.121953   2.509611   1.780967   0.000000
    10  H    3.719130   2.350777   1.773039   1.789818   0.000000
 Stoichiometry    C2H7N
 Framework group  CS[SG(HN),X(C2H6)]
 Deg. of freedom    13
 Full point group                 CS      NOp   2
 Largest Abelian subgroup         CS      NOp   2
 Largest concise Abelian subgroup CS      NOp   2
                         Standard orientation:                         
 ---------------------------------------------------------------------
 Center     Atomic      Atomic             Coordinates (Angstroms)
 Number     Number       Type             X           Y           Z
 ---------------------------------------------------------------------
      1          6           0       -0.026047   -0.217143    1.209876
      2          7           0       -0.026047    0.570772   -0.000000
      3          6           0       -0.026047   -0.217143   -1.209876
      4          1           0        0.013735    0.440621    2.090832
      5          1           0        0.813545   -0.943661    1.286149
      6          1           0       -0.961368   -0.797172    1.277991
      7          1           0        0.763067    1.210735   -0.000000
      8          1           0       -0.961368   -0.797172   -1.277991
      9          1           0        0.813545   -0.943661   -1.286149
     10          1           0        0.013735    0.440621   -2.090832
 ---------------------------------------------------------------------
 Rotational constants (GHZ):          35.0947728           9.3138978           8.2473339
 Leave Link  202 at Sat Feb 12 22:17:54 2022, MaxMem=  8589934592 cpu:               0.1 elap:               0.0
 (Enter /home/rr/g16/l301.exe)
 General basis read from cards:  (5D, 7F)
 Centers:       4      5      6      7      8      9     10
 S 3 1.00
     Exponent=  1.3010701000D+01 Coefficients=  1.9682158000D-02
     Exponent=  1.9622572000D+00 Coefficients=  1.3796524000D-01
     Exponent=  4.4453796000D-01 Coefficients=  4.7831935000D-01
 S 1 1.00
     Exponent=  1.2194962000D-01 Coefficients=  1.0000000000D+00
 P 1 1.00
     Exponent=  8.0000000000D-01 Coefficients=  1.0000000000D+00
 P 1 1.00
     Exponent=  1.1704099050D-01 Coefficients=  1.0000000000D+00
 ****
 Centers:       1      3
 S 5 1.00
     Exponent=  1.2384016938D+03 Coefficients=  5.4568832082D-03
     Exponent=  1.8629004992D+02 Coefficients=  4.0638409211D-02
     Exponent=  4.2251176346D+01 Coefficients=  1.8025593888D-01
     Exponent=  1.1676557932D+01 Coefficients=  4.6315121755D-01
     Exponent=  3.5930506482D+00 Coefficients=  4.4087173314D-01
 S 1 1.00
     Exponent=  4.0245147363D-01 Coefficients=  1.0000000000D+00
 S 1 1.00
     Exponent=  1.3090182668D-01 Coefficients=  1.0000000000D+00
 S 1 1.00
     Exponent=  6.7053540256D-02 Coefficients=  1.0000000000D+00
 P 3 1.00
     Exponent=  9.4680970621D+00 Coefficients=  3.8387871728D-02
     Exponent=  2.0103545142D+00 Coefficients=  2.1117025112D-01
     Exponent=  5.4771004707D-01 Coefficients=  5.1328172114D-01
 P 1 1.00
     Exponent=  1.5268613795D-01 Coefficients=  1.0000000000D+00
 D 1 1.00
     Exponent=  8.0000000000D-01 Coefficients=  1.0000000000D+00
 D 1 1.00
     Exponent=  1.1713185140D-01 Coefficients=  1.0000000000D+00
 ****
 Centers:       2
 S 5 1.00
     Exponent=  1.7128415853D+03 Coefficients= -5.3934125305D-03
     Exponent=  2.5764812677D+02 Coefficients= -4.0221581118D-02
     Exponent=  5.8458245853D+01 Coefficients= -1.7931144990D-01
     Exponent=  1.6198367905D+01 Coefficients= -4.6376317823D-01
     Exponent=  5.0052600809D+00 Coefficients= -4.4171422662D-01
 S 1 1.00
     Exponent=  5.8731856571D-01 Coefficients=  1.0000000000D+00
 S 1 1.00
     Exponent=  1.8764592253D-01 Coefficients=  1.0000000000D+00
 S 1 1.00
     Exponent=  9.6171241529D-02 Coefficients=  1.0000000000D+00
 P 3 1.00
     Exponent=  1.3571470233D+01 Coefficients= -4.0072398852D-02
     Exponent=  2.9257372874D+00 Coefficients= -2.1807045028D-01
     Exponent=  7.9927750754D-01 Coefficients= -5.1294466049D-01
 P 1 1.00
     Exponent=  2.1954348034D-01 Coefficients=  1.0000000000D+00
 D 1 1.00
     Exponent=  1.0000000000D+00 Coefficients=  1.0000000000D+00
 D 1 1.00
     Exponent=  1.6697708112D-01 Coefficients=  1.0000000000D+00
 ****
 Ernie: Thresh=  0.10000D-02 Tol=  0.10000D-05 Strict=F.
 There are    68 symmetry adapted cartesian basis functions of A'  symmetry.
 There are    54 symmetry adapted cartesian basis functions of A"  symmetry.
 There are    64 symmetry adapted basis functions of A'  symmetry.
 There are    52 symmetry adapted basis functions of A"  symmetry.
   116 basis functions,   166 primitive gaussians,   122 cartesian basis functions
    13 alpha electrons       13 beta electrons
       nuclear repulsion energy        84.1857472767 Hartrees.
 IExCor= 4639 DFT=T Ex+Corr=wB97XD ExCW=0 ScaHFX=  1.000000
 ScaDFX=  1.000000  1.000000  1.000000  1.000000 ScalE2=  1.000000  1.000000
 IRadAn=      5 IRanWt=     -1 IRanGd=            0 ICorTp=0 IEmpDi=121
 HFx  wShort=  0.000000 wLong=  0.200000 cFull=  0.222036 cShort=  0.000000 cLong=  0.777964
 DFx  wShort=  0.000000 wLong=  0.200000 cFull=  0.000000 cShort=  0.000000 cLong=  1.000000
 NAtoms=   10 NActive=   10 NUniq=    6 SFac= 2.78D+00 NAtFMM=   60 NAOKFM=F Big=F
 Integral buffers will be    131072 words long.
 Raffenetti 1 integral format.
 Two-electron integral symmetry is turned on.
 R6Disp:  Grimme-D2 Dispersion energy=       -0.0031370442 Hartrees.
 Nuclear repulsion after empirical dispersion term =       84.1826102325 Hartrees.
 Leave Link  301 at Sat Feb 12 22:17:54 2022, MaxMem=  8589934592 cpu:               0.5 elap:               0.1
 (Enter /home/rr/g16/l302.exe)
 NPDir=0 NMtPBC=     1 NCelOv=     1 NCel=       1 NClECP=     1 NCelD=      1
         NCelK=      1 NCelE2=     1 NClLst=     1 CellRange=     0.0.
 One-electron integrals computed using PRISM.
 One-electron integral symmetry used in STVInt
 NBasis=   116 RedAO= T EigKep=  3.75D-04  NBF=    64    52
 NBsUse=   116 1.00D-06 EigRej= -1.00D+00 NBFU=    64    52
 Precomputing XC quadrature grid using
 IXCGrd= 4 IRadAn=           5 IRanWt=          -1 IRanGd=           0 AccXCQ= 0.00D+00.
 Generated NRdTot=       0 NPtTot=           0 NUsed=           0 NTot=          32
 NSgBfM=   122   122   122   122   122 MxSgAt=    10 MxSgA2=    10.
 Leave Link  302 at Sat Feb 12 22:17:54 2022, MaxMem=  8589934592 cpu:               1.1 elap:               0.2
 (Enter /home/rr/g16/l303.exe)
 DipDrv:  MaxL=1.
 Leave Link  303 at Sat Feb 12 22:17:54 2022, MaxMem=  8589934592 cpu:               0.2 elap:               0.1
 (Enter /home/rr/g16/l308.exe)
 Leave Link  308 at Sat Feb 12 22:17:55 2022, MaxMem=  8589934592 cpu:               0.2 elap:               0.1
 (Enter /home/rr/g16/l401.exe)
 ExpMin= 6.71D-02 ExpMax= 1.71D+03 ExpMxC= 2.58D+02 IAcc=3 IRadAn=         5 AccDes= 0.00D+00
 Harris functional with IExCor= 4639 and IRadAn=       5 diagonalized for initial guess.
 HarFok:  IExCor= 4639 AccDes= 0.00D+00 IRadAn=         5 IDoV= 1 UseB2=F ITyADJ=14
 ICtDFT=  3500011 ScaDFX=  1.000000  1.000000  1.000000  1.000000
 FoFCou: FMM=F IPFlag=           0 FMFlag=      100000 FMFlg1=           0
         NFxFlg=           0 DoJE=T BraDBF=F KetDBF=T FulRan=T
         wScrn=  0.000000 ICntrl=       500 IOpCl=  0 I1Cent=   200000004 NGrid=           0
         NMat0=    1 NMatS0=      1 NMatT0=    0 NMatD0=    1 NMtDS0=    0 NMtDT0=    0
 Petite list used in FoFCou.
 Harris En= -128.603462469557    
 JPrj=0 DoOrth=F DoCkMO=F.
 Initial guess orbital symmetries:
       Occupied  (A') (A") (A') (A') (A") (A') (A') (A') (A") (A")
                 (A") (A') (A')
       Virtual   (A') (A") (A') (A') (A') (A') (A") (A") (A') (A")
                 (A') (A") (A") (A') (A') (A") (A') (A') (A') (A")
                 (A') (A') (A") (A') (A') (A") (A") (A') (A") (A")
                 (A") (A') (A') (A') (A") (A') (A") (A') (A") (A')
                 (A") (A") (A") (A') (A") (A') (A') (A") (A') (A')
                 (A") (A') (A") (A') (A') (A") (A") (A') (A') (A")
                 (A") (A') (A") (A') (A') (A") (A") (A') (A') (A")
                 (A') (A') (A") (A') (A") (A') (A") (A') (A") (A")
                 (A') (A') (A") (A') (A") (A') (A") (A') (A") (A')
                 (A") (A') (A') (A") (A') (A") (A') (A') (A") (A")
                 (A') (A") (A')
 The electronic state of the initial guess is 1-A'.
 Leave Link  401 at Sat Feb 12 22:17:55 2022, MaxMem=  8589934592 cpu:               2.8 elap:               0.4
 (Enter /home/rr/g16/l502.exe)
 Keep R1 ints in memory in symmetry-blocked form, NReq=69112705.
 FoFCou: FMM=F IPFlag=           0 FMFlag=           0 FMFlg1=           0
         NFxFlg=           0 DoJE=F BraDBF=F KetDBF=F FulRan=T
         wScrn=  0.000000 ICntrl=       600 IOpCl=  0 I1Cent=           0 NGrid=           0
         NMat0=    1 NMatS0=   6786 NMatT0=    0 NMatD0=    1 NMtDS0=    0 NMtDT0=    0
 Petite list used in FoFCou.
 Closed shell SCF:
 Using DIIS extrapolation, IDIIS=  1040.
 NGot=  8589934592 LenX=  8578367329 LenY=  8578352004
 Requested convergence on RMS density matrix=1.00D-08 within 100 cycles.
 Requested convergence on MAX density matrix=1.00D-06.
 Requested convergence on             energy=1.00D-06.
 No special actions if energy rises.
 Integral accuracy reduced to 1.0D-05 until final iterations.

 Cycle   1  Pass 0  IDiag  1:
 E= -135.009894336702    
 DIIS: error= 2.91D-02 at cycle   1 NSaved=   1.
 NSaved= 1 IEnMin= 1 EnMin= -135.009894336702     IErMin= 1 ErrMin= 2.91D-02
 ErrMax= 2.91D-02  0.00D+00 EMaxC= 1.00D-01 BMatC= 6.42D-02 BMatP= 6.42D-02
 IDIUse=3 WtCom= 7.09D-01 WtEn= 2.91D-01
 Coeff-Com:  0.100D+01
 Coeff-En:   0.100D+01
 Coeff:      0.100D+01
 Gap=     0.416 Goal=   None    Shift=    0.000
 GapD=    0.416 DampG=2.000 DampE=0.500 DampFc=1.0000 IDamp=-1.
 RMSDP=3.42D-03 MaxDP=9.38D-02              OVMax= 4.50D-02

 Cycle   2  Pass 0  IDiag  1:
 E= -135.025991433945     Delta-E=       -0.016097097243 Rises=F Damp=F
 DIIS: error= 7.73D-03 at cycle   2 NSaved=   2.
 NSaved= 2 IEnMin= 2 EnMin= -135.025991433945     IErMin= 2 ErrMin= 7.73D-03
 ErrMax= 7.73D-03  0.00D+00 EMaxC= 1.00D-01 BMatC= 9.74D-03 BMatP= 6.42D-02
 IDIUse=3 WtCom= 9.23D-01 WtEn= 7.73D-02
 Coeff-Com:  0.203D+00 0.797D+00
 Coeff-En:   0.000D+00 0.100D+01
 Coeff:      0.187D+00 0.813D+00
 Gap=     0.381 Goal=   None    Shift=    0.000
 RMSDP=1.67D-03 MaxDP=7.62D-02 DE=-1.61D-02 OVMax= 3.03D-02

 Cycle   3  Pass 0  IDiag  1:
 E= -135.030852526350     Delta-E=       -0.004861092406 Rises=F Damp=F
 DIIS: error= 4.96D-03 at cycle   3 NSaved=   3.
 NSaved= 3 IEnMin= 3 EnMin= -135.030852526350     IErMin= 3 ErrMin= 4.96D-03
 ErrMax= 4.96D-03  0.00D+00 EMaxC= 1.00D-01 BMatC= 3.65D-03 BMatP= 9.74D-03
 IDIUse=3 WtCom= 9.50D-01 WtEn= 4.96D-02
 Coeff-Com: -0.280D-02 0.377D+00 0.626D+00
 Coeff-En:   0.000D+00 0.254D+00 0.746D+00
 Coeff:     -0.266D-02 0.371D+00 0.632D+00
 Gap=     0.398 Goal=   None    Shift=    0.000
 RMSDP=8.63D-04 MaxDP=5.39D-02 DE=-4.86D-03 OVMax= 1.53D-02

 Cycle   4  Pass 0  IDiag  1:
 E= -135.033808672015     Delta-E=       -0.002956145665 Rises=F Damp=F
 DIIS: error= 5.33D-04 at cycle   4 NSaved=   4.
 NSaved= 4 IEnMin= 4 EnMin= -135.033808672015     IErMin= 4 ErrMin= 5.33D-04
 ErrMax= 5.33D-04  0.00D+00 EMaxC= 1.00D-01 BMatC= 4.49D-05 BMatP= 3.65D-03
 IDIUse=3 WtCom= 9.95D-01 WtEn= 5.33D-03
 Coeff-Com: -0.166D-02 0.114D+00 0.228D+00 0.659D+00
 Coeff-En:   0.000D+00 0.000D+00 0.000D+00 0.100D+01
 Coeff:     -0.165D-02 0.114D+00 0.227D+00 0.661D+00
 Gap=     0.395 Goal=   None    Shift=    0.000
 RMSDP=1.09D-04 MaxDP=5.54D-03 DE=-2.96D-03 OVMax= 1.58D-03

 Cycle   5  Pass 0  IDiag  1:
 E= -135.033849740937     Delta-E=       -0.000041068921 Rises=F Damp=F
 DIIS: error= 1.32D-04 at cycle   5 NSaved=   5.
 NSaved= 5 IEnMin= 5 EnMin= -135.033849740937     IErMin= 5 ErrMin= 1.32D-04
 ErrMax= 1.32D-04  0.00D+00 EMaxC= 1.00D-01 BMatC= 1.90D-06 BMatP= 4.49D-05
 IDIUse=3 WtCom= 9.99D-01 WtEn= 1.32D-03
 Coeff-Com: -0.582D-03-0.195D-01-0.189D-01 0.111D+00 0.928D+00
 Coeff-En:   0.000D+00 0.000D+00 0.000D+00 0.000D+00 0.100D+01
 Coeff:     -0.581D-03-0.195D-01-0.189D-01 0.111D+00 0.928D+00
 Gap=     0.395 Goal=   None    Shift=    0.000
 RMSDP=3.67D-05 MaxDP=1.06D-03 DE=-4.11D-05 OVMax= 6.15D-04

 Cycle   6  Pass 0  IDiag  1:
 E= -135.033852363447     Delta-E=       -0.000002622510 Rises=F Damp=F
 DIIS: error= 2.97D-05 at cycle   6 NSaved=   6.
 NSaved= 6 IEnMin= 6 EnMin= -135.033852363447     IErMin= 6 ErrMin= 2.97D-05
 ErrMax= 2.97D-05  0.00D+00 EMaxC= 1.00D-01 BMatC= 1.18D-07 BMatP= 1.90D-06
 IDIUse=1 WtCom= 1.00D+00 WtEn= 0.00D+00
 Coeff-Com:  0.614D-04-0.130D-01-0.204D-01-0.233D-01 0.211D+00 0.846D+00
 Coeff:      0.614D-04-0.130D-01-0.204D-01-0.233D-01 0.211D+00 0.846D+00
 Gap=     0.395 Goal=   None    Shift=    0.000
 RMSDP=1.23D-05 MaxDP=7.22D-04 DE=-2.62D-06 OVMax= 1.71D-04

 Cycle   7  Pass 0  IDiag  1:
 E= -135.033852537675     Delta-E=       -0.000000174228 Rises=F Damp=F
 DIIS: error= 3.21D-06 at cycle   7 NSaved=   7.
 NSaved= 7 IEnMin= 7 EnMin= -135.033852537675     IErMin= 7 ErrMin= 3.21D-06
 ErrMax= 3.21D-06  0.00D+00 EMaxC= 1.00D-01 BMatC= 2.01D-09 BMatP= 1.18D-07
 IDIUse=1 WtCom= 1.00D+00 WtEn= 0.00D+00
 Coeff-Com:  0.427D-05 0.180D-02 0.252D-02-0.118D-02-0.511D-01-0.649D-01
 Coeff-Com:  0.111D+01
 Coeff:      0.427D-05 0.180D-02 0.252D-02-0.118D-02-0.511D-01-0.649D-01
 Coeff:      0.111D+01
 Gap=     0.395 Goal=   None    Shift=    0.000
 RMSDP=3.36D-06 MaxDP=1.70D-04 DE=-1.74D-07 OVMax= 7.23D-05

 Initial convergence to 1.0D-05 achieved.  Increase integral accuracy.
 Cycle   8  Pass 1  IDiag  1:
 E= -135.033846937874     Delta-E=        0.000005599801 Rises=F Damp=F
 DIIS: error= 1.96D-05 at cycle   1 NSaved=   1.
 NSaved= 1 IEnMin= 1 EnMin= -135.033846937874     IErMin= 1 ErrMin= 1.96D-05
 ErrMax= 1.96D-05  0.00D+00 EMaxC= 1.00D-01 BMatC= 6.01D-08 BMatP= 6.01D-08
 IDIUse=1 WtCom= 1.00D+00 WtEn= 0.00D+00
 Coeff-Com:  0.100D+01
 Coeff:      0.100D+01
 Gap=     0.395 Goal=   None    Shift=    0.000
 RMSDP=3.36D-06 MaxDP=1.70D-04 DE= 5.60D-06 OVMax= 6.05D-05

 Cycle   9  Pass 1  IDiag  1:
 E= -135.033846996178     Delta-E=       -0.000000058304 Rises=F Damp=F
 DIIS: error= 3.70D-06 at cycle   2 NSaved=   2.
 NSaved= 2 IEnMin= 2 EnMin= -135.033846996178     IErMin= 2 ErrMin= 3.70D-06
 ErrMax= 3.70D-06  0.00D+00 EMaxC= 1.00D-01 BMatC= 1.62D-09 BMatP= 6.01D-08
 IDIUse=1 WtCom= 1.00D+00 WtEn= 0.00D+00
 Coeff-Com: -0.537D-01 0.105D+01
 Coeff:     -0.537D-01 0.105D+01
 Gap=     0.395 Goal=   None    Shift=    0.000
 RMSDP=1.29D-06 MaxDP=4.62D-05 DE=-5.83D-08 OVMax= 1.85D-05

 Cycle  10  Pass 1  IDiag  1:
 E= -135.033846998173     Delta-E=       -0.000000001995 Rises=F Damp=F
 DIIS: error= 1.59D-06 at cycle   3 NSaved=   3.
 NSaved= 3 IEnMin= 3 EnMin= -135.033846998173     IErMin= 3 ErrMin= 1.59D-06
 ErrMax= 1.59D-06  0.00D+00 EMaxC= 1.00D-01 BMatC= 3.92D-10 BMatP= 1.62D-09
 IDIUse=1 WtCom= 1.00D+00 WtEn= 0.00D+00
 Coeff-Com: -0.418D-01 0.327D+00 0.714D+00
 Coeff:     -0.418D-01 0.327D+00 0.714D+00
 Gap=     0.395 Goal=   None    Shift=    0.000
 RMSDP=4.29D-07 MaxDP=2.59D-05 DE=-2.00D-09 OVMax= 6.52D-06

 Cycle  11  Pass 1  IDiag  1:
 E= -135.033846998544     Delta-E=       -0.000000000371 Rises=F Damp=F
 DIIS: error= 4.73D-07 at cycle   4 NSaved=   4.
 NSaved= 4 IEnMin= 4 EnMin= -135.033846998544     IErMin= 4 ErrMin= 4.73D-07
 ErrMax= 4.73D-07  0.00D+00 EMaxC= 1.00D-01 BMatC= 3.94D-11 BMatP= 3.92D-10
 IDIUse=1 WtCom= 1.00D+00 WtEn= 0.00D+00
 Coeff-Com: -0.111D-01 0.461D-01 0.250D+00 0.715D+00
 Coeff:     -0.111D-01 0.461D-01 0.250D+00 0.715D+00
 Gap=     0.395 Goal=   None    Shift=    0.000
 RMSDP=8.10D-08 MaxDP=1.75D-06 DE=-3.71D-10 OVMax= 2.59D-06

 Cycle  12  Pass 1  IDiag  1:
 E= -135.033846998586     Delta-E=       -0.000000000042 Rises=F Damp=F
 DIIS: error= 1.63D-07 at cycle   5 NSaved=   5.
 NSaved= 5 IEnMin= 5 EnMin= -135.033846998586     IErMin= 5 ErrMin= 1.63D-07
 ErrMax= 1.63D-07  0.00D+00 EMaxC= 1.00D-01 BMatC= 3.35D-12 BMatP= 3.94D-11
 IDIUse=1 WtCom= 1.00D+00 WtEn= 0.00D+00
 Coeff-Com:  0.372D-02-0.401D-01-0.468D-01 0.166D+00 0.917D+00
 Coeff:      0.372D-02-0.401D-01-0.468D-01 0.166D+00 0.917D+00
 Gap=     0.395 Goal=   None    Shift=    0.000
 RMSDP=6.79D-08 MaxDP=3.70D-06 DE=-4.19D-11 OVMax= 1.57D-06

 Cycle  13  Pass 1  IDiag  1:
 E= -135.033846998594     Delta-E=       -0.000000000007 Rises=F Damp=F
 DIIS: error= 6.54D-08 at cycle   6 NSaved=   6.
 NSaved= 6 IEnMin= 6 EnMin= -135.033846998594     IErMin= 6 ErrMin= 6.54D-08
 ErrMax= 6.54D-08  0.00D+00 EMaxC= 1.00D-01 BMatC= 3.23D-13 BMatP= 3.35D-12
 IDIUse=1 WtCom= 1.00D+00 WtEn= 0.00D+00
 Coeff-Com:  0.177D-02-0.154D-01-0.288D-01 0.124D-01 0.304D+00 0.726D+00
 Coeff:      0.177D-02-0.154D-01-0.288D-01 0.124D-01 0.304D+00 0.726D+00
 Gap=     0.395 Goal=   None    Shift=    0.000
 RMSDP=1.50D-08 MaxDP=6.28D-07 DE=-7.30D-12 OVMax= 4.42D-07

 Cycle  14  Pass 1  IDiag  1:
 E= -135.033846998594     Delta-E=       -0.000000000001 Rises=F Damp=F
 DIIS: error= 1.99D-08 at cycle   7 NSaved=   7.
 NSaved= 7 IEnMin= 7 EnMin= -135.033846998594     IErMin= 7 ErrMin= 1.99D-08
 ErrMax= 1.99D-08  0.00D+00 EMaxC= 1.00D-01 BMatC= 2.25D-14 BMatP= 3.23D-13
 IDIUse=1 WtCom= 1.00D+00 WtEn= 0.00D+00
 Coeff-Com: -0.380D-03 0.432D-02 0.447D-02-0.213D-01-0.108D+00 0.529D-01
 Coeff-Com:  0.107D+01
 Coeff:     -0.380D-03 0.432D-02 0.447D-02-0.213D-01-0.108D+00 0.529D-01
 Coeff:      0.107D+01
 Gap=     0.395 Goal=   None    Shift=    0.000
 RMSDP=1.42D-08 MaxDP=8.37D-07 DE=-7.96D-13 OVMax= 3.10D-07

 Cycle  15  Pass 1  IDiag  1:
 E= -135.033846998592     Delta-E=        0.000000000003 Rises=F Damp=F
 DIIS: error= 5.35D-09 at cycle   8 NSaved=   8.
 NSaved= 8 IEnMin= 7 EnMin= -135.033846998594     IErMin= 8 ErrMin= 5.35D-09
 ErrMax= 5.35D-09  0.00D+00 EMaxC= 1.00D-01 BMatC= 1.18D-15 BMatP= 2.25D-14
 IDIUse=1 WtCom= 1.00D+00 WtEn= 0.00D+00
 Coeff-Com: -0.144D-03 0.120D-02 0.239D-02-0.781D-03-0.235D-01-0.583D-01
 Coeff-Com: -0.227D-01 0.110D+01
 Coeff:     -0.144D-03 0.120D-02 0.239D-02-0.781D-03-0.235D-01-0.583D-01
 Coeff:     -0.227D-01 0.110D+01
 Gap=     0.395 Goal=   None    Shift=    0.000
 RMSDP=3.91D-09 MaxDP=2.14D-07 DE= 2.81D-12 OVMax= 9.18D-08

 SCF Done:  E(RwB97XD) =  -135.033846999     A.U. after   15 cycles
            NFock= 15  Conv=0.39D-08     -V/T= 2.0127
 KE= 1.333352611187D+02 PE=-4.807517972721D+02 EE= 1.282000789222D+02
 Leave Link  502 at Sat Feb 12 22:17:59 2022, MaxMem=  8589934592 cpu:              27.6 elap:               3.6
 (Enter /home/rr/g16/l801.exe)
 DoSCS=F DFT=T ScalE2(SS,OS)=  1.000000  1.000000
 ExpMin= 6.71D-02 ExpMax= 1.71D+03 ExpMxC= 2.58D+02 IAcc=3 IRadAn=         5 AccDes= 0.00D+00
 HarFok:  IExCor=  205 AccDes= 0.00D+00 IRadAn=         5 IDoV=-2 UseB2=F ITyADJ=14
 ICtDFT= 12500011 ScaDFX=  1.000000  1.000000  1.000000  1.000000
 Largest valence mixing into a core orbital is  7.49D-05
 Largest core mixing into a valence orbital is  1.84D-05
 Range of M.O.s used for correlation:     4   116
 NBasis=   116 NAE=    13 NBE=    13 NFC=     3 NFV=     0
 NROrb=    113 NOA=    10 NOB=    10 NVA=   103 NVB=   103

 **** Warning!!: The largest alpha MO coefficient is  0.19334945D+02

 Leave Link  801 at Sat Feb 12 22:17:59 2022, MaxMem=  8589934592 cpu:               0.8 elap:               0.1
 (Enter /home/rr/g16/l914.exe)
 RHF ground state
 Keep R1, R2, and R3 ints in memory in symmetry-blocked form, NReq=1260133964.
 FoFCou: FMM=F IPFlag=           0 FMFlag=           0 FMFlg1=           0
         NFxFlg=           0 DoJE=F BraDBF=F KetDBF=F FulRan=T
         wScrn=  0.000000 ICntrl=       600 IOpCl=  0 I1Cent=           0 NGrid=           0
         NMat0=    1 NMatS0=   6786 NMatT0=    0 NMatD0=    1 NMtDS0=    0 NMtDT0=    0
 Petite list used in FoFCou.
 MDV=  8589934592 DFT=T DoStab=F Mixed=T DoRPA=T DoScal=F NonHer=T
 Making orbital integer symmetry assigments:
 Orbital symmetries:
       Occupied  (A') (A") (A') (A') (A") (A') (A') (A') (A") (A")
                 (A') (A") (A')
       Virtual   (A') (A") (A') (A') (A') (A') (A") (A") (A') (A")
                 (A') (A") (A") (A') (A') (A") (A') (A') (A') (A")
                 (A') (A') (A") (A') (A') (A") (A') (A") (A") (A")
                 (A") (A') (A') (A') (A") (A') (A") (A') (A") (A')
                 (A") (A") (A") (A') (A") (A') (A') (A") (A') (A')
                 (A") (A') (A") (A') (A') (A") (A") (A') (A') (A")
                 (A") (A') (A") (A') (A') (A") (A') (A") (A') (A")
                 (A') (A') (A") (A') (A") (A') (A") (A') (A") (A")
                 (A') (A') (A") (A') (A") (A') (A") (A') (A") (A')
                 (A") (A') (A') (A") (A') (A") (A') (A') (A") (A")
                 (A') (A") (A')
  1030 initial guesses have been made.
 Convergence on wavefunction:    0.001000000000000
 Davidson Disk Diagonalization:  ConvIn= 1.00D-03 SkipCon=T Conv= 1.00D-03.
 Max sub-space:  6180 roots to seek:  2060 dimension of matrix:         2060
 *** WARNING: Number of orthogonal guesses is         1030
 Iteration     1 Dimension  1030 NMult     0 NNew   1030
 CISAX will form  1030 AO SS matrices at one time.
 NMat=  1030 NSing=  1030 JSym2X=-1.
 New state      2 was old state      3
 New state      3 was old state      2
 New state      8 was old state      9
 New state      9 was old state      8
 New state     17 was old state     20
 New state     20 was old state     17
 New state     24 was old state     25
 New state     25 was old state     27
 New state     26 was old state     24
 New state     27 was old state     30
 New state     29 was old state     26
 New state     30 was old state     32
 New state     31 was old state     29
 New state     32 was old state     31
 New state     34 was old state     37
 New state     35 was old state     34
 New state     36 was old state     40
 New state     37 was old state     38
 New state     38 was old state     36
 New state     39 was old state     47
 New state     40 was old state     45
 New state     42 was old state     48
 New state     43 was old state     42
 New state     45 was old state     35
 New state     46 was old state     43
 New state     47 was old state     50
 New state     48 was old state     46
 New state     49 was old state     39
 New state     50 was old state     52
 New state     51 was old state     49
 New state     52 was old state     51
 New state     53 was old state     55
 New state     54 was old state     53
 New state     55 was old state     62
 New state     56 was old state     60
 New state     57 was old state     54
 New state     58 was old state     57
 New state     60 was old state     58
 New state     61 was old state     56
 New state     62 was old state     63
 New state     63 was old state     67
 New state     64 was old state     72
 New state     65 was old state     78
 New state     66 was old state     77
 New state     67 was old state     61
 New state     68 was old state     66
 New state     69 was old state     70
 New state     70 was old state     69
 New state     72 was old state     74
 New state     73 was old state     68
 New state     74 was old state     73
 New state     75 was old state     87
 New state     76 was old state     75
 New state     77 was old state     82
 New state     78 was old state     76
 New state     79 was old state     81
 New state     81 was old state     84
 New state     82 was old state     83
 New state     83 was old state     79
 New state     84 was old state     86
 New state     85 was old state     90
 New state     86 was old state     94
 New state     87 was old state     85
 New state     88 was old state     89
 New state     89 was old state     98
 New state     90 was old state     88
 New state     91 was old state     96
 New state     92 was old state     91
 New state     93 was old state     92
 New state     94 was old state     93
 New state     95 was old state     97
 New state     96 was old state    104
 New state     97 was old state     99
 New state     98 was old state    106
 New state     99 was old state    101
 New state    100 was old state    102
 New state    101 was old state    105
 New state    102 was old state    100
 New state    103 was old state     95
 New state    104 was old state    109
 New state    105 was old state    103
 New state    106 was old state    110
 New state    107 was old state    113
 New state    108 was old state    115
 New state    109 was old state    108
 New state    110 was old state    107
 New state    111 was old state    112
 New state    112 was old state    111
 New state    113 was old state    127
 New state    114 was old state    118
 New state    115 was old state    117
 New state    117 was old state    114
 New state    118 was old state    121
 New state    119 was old state    125
 New state    120 was old state    126
 New state    121 was old state    119
 New state    122 was old state    120
 New state    123 was old state    129
 New state    125 was old state    122
 New state    126 was old state    123
 New state    127 was old state    137
 New state    128 was old state    130
 New state    129 was old state    132
 New state    130 was old state    128
 New state    131 was old state    134
 New state    132 was old state    135
 New state    133 was old state    138
 New state    134 was old state    133
 New state    135 was old state    141
 New state    136 was old state    140
 New state    137 was old state    147
 New state    138 was old state    136
 New state    139 was old state    144
 New state    140 was old state    146
 New state    141 was old state    131
 New state    142 was old state    143
 New state    143 was old state    139
 New state    144 was old state    151
 New state    145 was old state    142
 New state    146 was old state    149
 New state    147 was old state    159
 New state    148 was old state    145
 New state    149 was old state    152
 New state    150 was old state    155
 New state    151 was old state    154
 New state    152 was old state    153
 New state    153 was old state    164
 New state    154 was old state    150
 New state    155 was old state    162
 New state    158 was old state    167
 New state    159 was old state    170
 New state    160 was old state    165
 New state    161 was old state    160
 New state    162 was old state    161
 New state    163 was old state    172
 New state    164 was old state    163
 New state    165 was old state    158
 New state    166 was old state    177
 New state    167 was old state    178
 New state    168 was old state    169
 New state    169 was old state    171
 New state    170 was old state    174
 New state    171 was old state    168
 New state    172 was old state    180
 New state    173 was old state    166
 New state    174 was old state    179
 New state    175 was old state    176
 New state    176 was old state    192
 New state    177 was old state    190
 New state    178 was old state    184
 New state    179 was old state    185
 New state    180 was old state    188
 New state    181 was old state    186
 New state    183 was old state    196
 New state    184 was old state    181
 New state    185 was old state    175
 New state    186 was old state    197
 New state    188 was old state    189
 New state    189 was old state    194
 New state    190 was old state    193
 New state    192 was old state    199
 New state    193 was old state    211
 New state    194 was old state    198
 New state    196 was old state    201
 New state    197 was old state    207
 New state    198 was old state    200
 New state    199 was old state    205
 New state    200 was old state    213
 New state    201 was old state    202
 New state    202 was old state    204
 New state    203 was old state    183
 New state    204 was old state    215
 New state    205 was old state    206
 New state    206 was old state    210
 New state    207 was old state    203
 New state    208 was old state    212
 New state    209 was old state    216
 New state    210 was old state    209
 New state    211 was old state    214
 New state    212 was old state    222
 New state    213 was old state    208
 New state    214 was old state    217
 New state    215 was old state    219
 New state    216 was old state    221
 New state    217 was old state    220
 New state    218 was old state    225
 New state    219 was old state    223
 New state    220 was old state    224
 New state    221 was old state    229
 New state    222 was old state    218
 New state    223 was old state    231
 New state    224 was old state    227
 New state    225 was old state    237
 New state    226 was old state    232
 New state    227 was old state    226
 New state    228 was old state    245
 New state    229 was old state    235
 New state    230 was old state    233
 New state    231 was old state    228
 New state    232 was old state    234
 New state    233 was old state    243
 New state    234 was old state    236
 New state    235 was old state    247
 New state    236 was old state    242
 New state    237 was old state    250
 New state    238 was old state    230
 New state    239 was old state    241
 New state    240 was old state    244
 New state    241 was old state    254
 New state    242 was old state    239
 New state    243 was old state    240
 New state    244 was old state    251
 New state    245 was old state    246
 New state    246 was old state    248
 New state    247 was old state    252
 New state    248 was old state    238
 New state    250 was old state    257
 New state    251 was old state    256
 New state    252 was old state    255
 New state    253 was old state    265
 New state    254 was old state    259
 New state    255 was old state    253
 New state    256 was old state    266
 New state    257 was old state    260
 New state    258 was old state    264
 New state    259 was old state    258
 New state    260 was old state    263
 New state    261 was old state    282
 New state    262 was old state    268
 New state    263 was old state    269
 New state    264 was old state    273
 New state    265 was old state    267
 New state    266 was old state    270
 New state    267 was old state    293
 New state    268 was old state    262
 New state    269 was old state    275
 New state    270 was old state    261
 New state    271 was old state    281
 New state    272 was old state    279
 New state    273 was old state    276
 New state    274 was old state    272
 New state    275 was old state    274
 New state    276 was old state    271
 New state    277 was old state    283
 New state    278 was old state    277
 New state    279 was old state    289
 New state    281 was old state    287
 New state    282 was old state    284
 New state    283 was old state    278
 New state    284 was old state    299
 New state    285 was old state    288
 New state    286 was old state    300
 New state    287 was old state    286
 New state    288 was old state    295
 New state    289 was old state    285
 New state    290 was old state    291
 New state    291 was old state    296
 New state    292 was old state    290
 New state    293 was old state    294
 New state    294 was old state    292
 New state    295 was old state    315
 New state    296 was old state    309
 New state    297 was old state    303
 New state    298 was old state    297
 New state    299 was old state    301
 New state    300 was old state    305
 New state    301 was old state    298
 New state    302 was old state    307
 New state    303 was old state    306
 New state    305 was old state    311
 New state    306 was old state    320
 New state    307 was old state    314
 New state    308 was old state    302
 New state    309 was old state    318
 New state    311 was old state    313
 New state    313 was old state    308
 New state    314 was old state    341
 New state    315 was old state    316
 New state    316 was old state    321
 New state    317 was old state    319
 New state    318 was old state    317
 New state    319 was old state    322
 New state    320 was old state    325
 New state    321 was old state    326
 New state    322 was old state    324
 New state    323 was old state    327
 New state    324 was old state    323
 New state    325 was old state    330
 New state    326 was old state    338
 New state    327 was old state    336
 New state    328 was old state    333
 New state    329 was old state    332
 New state    330 was old state    334
 New state    331 was old state    335
 New state    332 was old state    328
 New state    333 was old state    331
 New state    334 was old state    329
 New state    335 was old state    345
 New state    336 was old state    339
 New state    337 was old state    358
 New state    338 was old state    337
 New state    339 was old state    350
 New state    340 was old state    342
 New state    341 was old state    343
 New state    342 was old state    340
 New state    343 was old state    346
 New state    344 was old state    354
 New state    345 was old state    353
 New state    346 was old state    344
 New state    347 was old state    361
 New state    348 was old state    349
 New state    349 was old state    347
 New state    350 was old state    348
 New state    351 was old state    352
 New state    352 was old state    377
 New state    353 was old state    357
 New state    354 was old state    355
 New state    355 was old state    356
 New state    356 was old state    351
 New state    357 was old state    362
 New state    358 was old state    364
 New state    361 was old state    365
 New state    362 was old state    373
 New state    364 was old state    370
 New state    365 was old state    367
 New state    367 was old state    368
 New state    368 was old state    376
 New state    369 was old state    387
 New state    370 was old state    369
 New state    372 was old state    383
 New state    373 was old state    378
 New state    374 was old state    372
 New state    376 was old state    380
 New state    377 was old state    374
 New state    378 was old state    379
 New state    379 was old state    381
 New state    380 was old state    385
 New state    381 was old state    384
 New state    382 was old state    393
 New state    383 was old state    382
 New state    384 was old state    386
 New state    385 was old state    388
 New state    386 was old state    390
 New state    387 was old state    389
 New state    388 was old state    394
 New state    389 was old state    409
 New state    390 was old state    391
 New state    391 was old state    396
 New state    393 was old state    403
 New state    394 was old state    402
 New state    395 was old state    405
 New state    396 was old state    397
 New state    397 was old state    406
 New state    398 was old state    395
 New state    399 was old state    400
 New state    400 was old state    407
 New state    401 was old state    399
 New state    402 was old state    398
 New state    403 was old state    416
 New state    404 was old state    415
 New state    405 was old state    411
 New state    406 was old state    401
 New state    407 was old state    408
 New state    408 was old state    404
 New state    409 was old state    413
 New state    410 was old state    432
 New state    411 was old state    410
 New state    412 was old state    414
 New state    413 was old state    412
 New state    414 was old state    417
 New state    415 was old state    420
 New state    416 was old state    422
 New state    417 was old state    424
 New state    420 was old state    421
 New state    421 was old state    423
 New state    422 was old state    436
 New state    423 was old state    437
 New state    424 was old state    433
 New state    425 was old state    426
 New state    426 was old state    425
 New state    427 was old state    430
 New state    428 was old state    438
 New state    429 was old state    427
 New state    430 was old state    429
 New state    431 was old state    434
 New state    432 was old state    435
 New state    433 was old state    428
 New state    434 was old state    439
 New state    435 was old state    445
 New state    436 was old state    441
 New state    437 was old state    431
 New state    438 was old state    444
 New state    439 was old state    440
 New state    440 was old state    449
 New state    441 was old state    454
 New state    442 was old state    443
 New state    443 was old state    453
 New state    444 was old state    442
 New state    445 was old state    471
 New state    446 was old state    451
 New state    447 was old state    459
 New state    448 was old state    450
 New state    449 was old state    452
 New state    450 was old state    447
 New state    451 was old state    446
 New state    452 was old state    465
 New state    453 was old state    448
 New state    454 was old state    455
 New state    455 was old state    462
 New state    456 was old state    460
 New state    457 was old state    466
 New state    458 was old state    456
 New state    459 was old state    458
 New state    460 was old state    457
 New state    461 was old state    468
 New state    462 was old state    472
 New state    463 was old state    461
 New state    464 was old state    470
 New state    465 was old state    467
 New state    466 was old state    473
 New state    467 was old state    463
 New state    468 was old state    486
 New state    469 was old state    464
 No map to state    470
 New state    471 was old state    478
 New state    472 was old state    475
 New state    473 was old state    469
 New state    474 was old state    482
 New state    475 was old state    474
 New state    477 was old state    483
 New state    478 was old state    487
 New state    479 was old state    481
 New state    480 was old state    479
 New state    481 was old state    493
 New state    482 was old state    480
 New state    483 was old state    477
 New state    484 was old state    492
 New state    485 was old state    496
 New state    486 was old state    484
 New state    487 was old state    491
 New state    488 was old state    495
 New state    489 was old state    485
 New state    490 was old state    499
 New state    491 was old state    490
 New state    492 was old state    494
 New state    493 was old state    504
 New state    494 was old state    500
 New state    495 was old state    489
 New state    496 was old state    488
 New state    497 was old state    503
 New state    498 was old state    502
 New state    499 was old state    505
 New state    500 was old state    498
 New state    501 was old state    511
 New state    502 was old state    497
 New state    503 was old state    507
 New state    504 was old state    501
 New state    505 was old state    506
 New state    506 was old state    509
 New state    507 was old state    513
 New state    508 was old state    527
 New state    509 was old state    523
 New state    511 was old state    508
 New state    512 was old state    517
 New state    513 was old state    518
 New state    514 was old state    512
 New state    515 was old state    514
 New state    516 was old state    520
 New state    517 was old state    522
 New state    518 was old state    524
 New state    519 was old state    516
 New state    520 was old state    519
 No map to state    521
 New state    522 was old state    525
 New state    523 was old state    521
 New state    524 was old state    529
 New state    525 was old state    526
 New state    526 was old state    537
 New state    527 was old state    534
 New state    528 was old state    531
 New state    529 was old state    539
 New state    531 was old state    528
 New state    534 was old state    547
 New state    535 was old state    538
 New state    537 was old state    545
 New state    538 was old state    542
 New state    539 was old state    535
 New state    540 was old state    543
 New state    541 was old state    546
 New state    542 was old state    548
 No map to state    543
 New state    545 was old state    540
 New state    546 was old state    549
 New state    547 was old state    551
 New state    548 was old state    541
 New state    549 was old state    552
 New state    551 was old state    554
 New state    552 was old state    556
 New state    553 was old state    555
 New state    554 was old state    561
 New state    555 was old state    558
 New state    556 was old state    553
 New state    557 was old state    559
 New state    558 was old state    557
 New state    559 was old state    562
 New state    561 was old state    563
 New state    562 was old state    568
 New state    563 was old state    566
 New state    565 was old state    567
 New state    566 was old state    565
 New state    567 was old state    571
 New state    568 was old state    573
 New state    569 was old state    570
 New state    570 was old state    569
 New state    571 was old state    572
 New state    572 was old state    575
 New state    573 was old state    578
 New state    574 was old state    579
 New state    575 was old state    580
 New state    576 was old state    577
 New state    577 was old state    583
 New state    578 was old state    576
 New state    579 was old state    574
 New state    580 was old state    585
 New state    582 was old state    584
 New state    583 was old state    582
 New state    584 was old state    587
 New state    585 was old state    586
 New state    586 was old state    589
 New state    587 was old state    592
 No map to state    588
 New state    589 was old state    588
 New state    590 was old state    591
 New state    591 was old state    590
 New state    592 was old state    595
 New state    593 was old state    594
 New state    594 was old state    596
 New state    595 was old state    599
 New state    596 was old state    597
 New state    597 was old state    600
 New state    598 was old state    603
 New state    599 was old state    598
 New state    600 was old state    593
 New state    601 was old state    602
 New state    602 was old state    604
 New state    603 was old state    607
 New state    604 was old state    601
 New state    605 was old state    608
 New state    606 was old state    612
 New state    607 was old state    609
 New state    608 was old state    611
 New state    609 was old state    606
 New state    611 was old state    615
 New state    612 was old state    613
 New state    613 was old state    616
 New state    615 was old state    620
 New state    616 was old state    618
 New state    618 was old state    636
 New state    620 was old state    621
 No map to state    621
 New state    622 was old state    623
 New state    623 was old state    622
 New state    624 was old state    626
 New state    626 was old state    624
 New state    627 was old state    628
 New state    628 was old state    633
 New state    629 was old state    627
 New state    630 was old state    629
 New state    631 was old state    632
 New state    632 was old state    630
 New state    633 was old state    634
 New state    634 was old state    631
 New state    635 was old state    637
 New state    636 was old state    635
 New state    637 was old state    648
 New state    640 was old state    642
 New state    641 was old state    644
 New state    642 was old state    640
 New state    644 was old state    641
 New state    646 was old state    650
 New state    647 was old state    646
 New state    648 was old state    649
 New state    649 was old state    652
 New state    650 was old state    647
 New state    651 was old state    654
 New state    652 was old state    651
 New state    654 was old state    657
 New state    656 was old state    659
 New state    657 was old state    656
 New state    659 was old state    665
 New state    663 was old state    664
 New state    664 was old state    669
 New state    665 was old state    668
 New state    666 was old state    667
 New state    667 was old state    663
 New state    668 was old state    670
 New state    669 was old state    685
 New state    670 was old state    666
 New state    671 was old state    672
 New state    672 was old state    671
 New state    674 was old state    680
 New state    676 was old state    674
 New state    678 was old state    676
 New state    679 was old state    683
 New state    680 was old state    687
 New state    681 was old state    678
 New state    682 was old state    684
 New state    683 was old state    682
 New state    684 was old state    686
 New state    685 was old state    679
 New state    686 was old state    681
 New state    687 was old state    688
 New state    688 was old state    694
 New state    689 was old state    690
 New state    690 was old state    689
 New state    693 was old state    696
 New state    694 was old state    695
 New state    695 was old state    693
 New state    696 was old state    700
 New state    700 was old state    703
 New state    701 was old state    702
 New state    702 was old state    704
 No map to state    703
 New state    704 was old state    705
 New state    705 was old state    701
 New state    708 was old state    710
 New state    709 was old state    713
 New state    710 was old state    709
 New state    711 was old state    712
 New state    712 was old state    708
 New state    713 was old state    714
 New state    714 was old state    716
 New state    715 was old state    711
 New state    716 was old state    719
 New state    717 was old state    715
 New state    719 was old state    717
 New state    721 was old state    728
 New state    722 was old state    721
 New state    723 was old state    725
 New state    724 was old state    723
 New state    725 was old state    727
 New state    726 was old state    724
 New state    727 was old state    722
 New state    728 was old state    726
 New state    729 was old state    730
 New state    730 was old state    729
 New state    732 was old state    733
 New state    733 was old state    734
 New state    734 was old state    732
 New state    736 was old state    737
 New state    737 was old state    736
 New state    738 was old state    739
 New state    739 was old state    745
 New state    740 was old state    741
 New state    741 was old state    740
 New state    742 was old state    744
 New state    743 was old state    742
 New state    744 was old state    738
 New state    745 was old state    754
 New state    746 was old state    743
 New state    748 was old state    755
 New state    749 was old state    748
 New state    751 was old state    757
 New state    752 was old state    746
 New state    753 was old state    762
 New state    754 was old state    764
 New state    755 was old state    758
 New state    756 was old state    753
 New state    757 was old state    760
 New state    758 was old state    751
 New state    759 was old state    756
 New state    760 was old state    752
 New state    761 was old state    759
 New state    762 was old state    763
 New state    763 was old state    761
 New state    764 was old state    768
 New state    768 was old state    788
 New state    769 was old state    771
 New state    770 was old state    769
 New state    771 was old state    770
 New state    772 was old state    776
 New state    773 was old state    772
 New state    774 was old state    775
 New state    775 was old state    773
 New state    776 was old state    778
 New state    777 was old state    774
 New state    778 was old state    779
 New state    779 was old state    777
 New state    780 was old state    781
 New state    781 was old state    780
 New state    782 was old state    785
 New state    783 was old state    782
 New state    785 was old state    783
 New state    786 was old state    793
 New state    787 was old state    786
 New state    788 was old state    789
 New state    789 was old state    787
 New state    793 was old state    796
 New state    794 was old state    795
 New state    795 was old state    794
 New state    796 was old state    811
 New state    797 was old state    799
 New state    798 was old state    797
 New state    799 was old state    800
 New state    800 was old state    801
 New state    801 was old state    802
 New state    802 was old state    805
 New state    803 was old state    798
 New state    804 was old state    803
 New state    805 was old state    806
 New state    806 was old state    804
 New state    808 was old state    809
 New state    809 was old state    810
 New state    810 was old state    812
 New state    811 was old state    808
 New state    812 was old state    820
 New state    813 was old state    816
 New state    814 was old state    815
 New state    815 was old state    818
 New state    816 was old state    813
 New state    817 was old state    819
 New state    818 was old state    814
 New state    819 was old state    817
 No map to state    820
 New state    822 was old state    825
 New state    823 was old state    822
 New state    825 was old state    823
 New state    826 was old state    828
 New state    828 was old state    831
 New state    830 was old state    832
 New state    831 was old state    833
 New state    832 was old state    826
 New state    833 was old state    830
 New state    837 was old state    838
 New state    838 was old state    837
 New state    841 was old state    842
 New state    842 was old state    843
 New state    843 was old state    841
 New state    852 was old state    853
 New state    853 was old state    852
 New state    854 was old state    856
 New state    855 was old state    854
 New state    856 was old state    855
 New state    859 was old state    860
 New state    860 was old state    859
 New state    861 was old state    862
 New state    862 was old state    864
 New state    864 was old state    861
 New state    865 was old state    866
 New state    866 was old state    865
 New state    869 was old state    870
 New state    870 was old state    869
 New state    871 was old state    873
 New state    872 was old state    871
 New state    873 was old state    872
 New state    874 was old state    875
 New state    875 was old state    874
 New state    877 was old state    879
 New state    878 was old state    877
 New state    879 was old state    885
 New state    881 was old state    878
 New state    882 was old state    884
 New state    883 was old state    882
 New state    884 was old state    883
 New state    885 was old state    888
 New state    886 was old state    887
 New state    887 was old state    889
 New state    888 was old state    886
 New state    889 was old state    881
 New state    896 was old state    899
 New state    897 was old state    896
 New state    898 was old state    897
 New state    899 was old state    900
 New state    900 was old state    898
 New state    904 was old state    906
 New state    905 was old state    909
 New state    906 was old state    908
 New state    907 was old state    910
 New state    908 was old state    904
 New state    909 was old state    905
 New state    910 was old state    907
 New state    911 was old state    914
 New state    913 was old state    911
 New state    914 was old state    915
 New state    915 was old state    913
 New state    917 was old state    919
 New state    919 was old state    920
 New state    920 was old state    917
 New state    922 was old state    923
 New state    923 was old state    927
 New state    924 was old state    922
 New state    926 was old state    924
 New state    927 was old state    926
 New state    928 was old state    929
 New state    929 was old state    931
 New state    930 was old state    933
 New state    931 was old state    928
 New state    932 was old state    930
 New state    933 was old state    936
 New state    934 was old state    935
 New state    935 was old state    934
 New state    936 was old state    938
 New state    938 was old state    945
 New state    939 was old state    940
 New state    940 was old state    939
 New state    942 was old state    943
 New state    943 was old state    942
 New state    944 was old state    946
 New state    945 was old state    944
 No map to state    946
 New state    947 was old state    950
 New state    949 was old state    947
 New state    950 was old state    949
 New state    952 was old state    953
 New state    953 was old state    952
 New state    954 was old state    955
 New state    955 was old state    954
 New state    956 was old state    958
 New state    958 was old state    956
 New state    960 was old state    962
 New state    961 was old state    960
 New state    962 was old state    965
 New state    963 was old state    961
 New state    964 was old state    963
 New state    965 was old state    964
 New state    966 was old state    967
 New state    967 was old state    971
 New state    968 was old state    966
 New state    969 was old state    968
 New state    970 was old state    969
 New state    971 was old state    972
 New state    972 was old state    970
 New state    973 was old state    974
 New state    974 was old state    973
 New state    975 was old state    977
 New state    976 was old state    975
 New state    977 was old state    978
 New state    978 was old state    976
 New state    979 was old state    980
 New state    980 was old state    981
 New state    981 was old state    982
 New state    982 was old state    979
 New state    983 was old state    986
 New state    984 was old state    985
 New state    985 was old state    984
 New state    986 was old state    983
 New state    987 was old state    988
 New state    988 was old state    990
 New state    990 was old state    991
 New state    991 was old state    987
 New state    993 was old state    994
 New state    994 was old state    993
 New state   1001 was old state   1002
 New state   1002 was old state   1004
 New state   1004 was old state   1001
 New state   1005 was old state   1006
 New state   1006 was old state   1005
 New state   1008 was old state   1009
 New state   1009 was old state   1008
 New state   1012 was old state   1017
 New state   1014 was old state   1016
 New state   1015 was old state   1012
 New state   1016 was old state   1014
 New state   1017 was old state   1015
 New state   1020 was old state   1021
 New state   1021 was old state   1020
 New state   1027 was old state   1028
 New state   1028 was old state   1027
 Excitation Energies [eV] at current iteration:
 Root      1 :     6.178158879073919
 Root      2 :     7.362879975769922
 Root      3 :     7.398365942113887
 Root      4 :     8.277623831403169
 Root      5 :     8.386419237541922
 Root      6 :     8.956023116268952
 Root      7 :     9.226493232138205
 Root      8 :     9.519799526430516
 Root      9 :     9.699358078709425
 Root     10 :    10.102947272729570
 Root     11 :    10.107242291017670
 Root     12 :    10.188008800349030
 Root     13 :    10.432676879782280
 Root     14 :    10.583594502189100
 Root     15 :    10.693098493874330
 Root     16 :    11.107058919018960
 Root     17 :    11.170235096176140
 Root     18 :    11.226732078039440
 Root     19 :    11.309629522317480
 Root     20 :    11.454353981163150
 Root     21 :    11.764856339028000
 Root     22 :    11.795549690332680
 Root     23 :    11.949582943743330
 Root     24 :    12.145054285031400
 Root     25 :    12.149367935268760
 Root     26 :    12.164961774646440
 Root     27 :    12.291713772131630
 Root     28 :    12.376624505886670
 Root     29 :    12.421337353459190
 Root     30 :    12.493411402072030
 Root     31 :    12.584280701733410
 Root     32 :    12.737431703449420
 Root     33 :    12.799806336906240
 Root     34 :    12.804316502595440
 Root     35 :    12.863709518142890
 Root     36 :    12.961837917586470
 Root     37 :    13.095078456490890
 Root     38 :    13.104934050147120
 Root     39 :    13.202217416746680
 Root     40 :    13.218828106889570
 Root     41 :    13.351482104275120
 Root     42 :    13.412345567545720
 Root     43 :    13.433469529030250
 Root     44 :    13.536666371769720
 Root     45 :    13.570340978596980
 Root     46 :    13.570823900609740
 Root     47 :    13.579245409130960
 Root     48 :    13.694169938880620
 Root     49 :    13.749793034113030
 Root     50 :    13.842985524867650
 Root     51 :    13.920908441242410
 Root     52 :    13.989838444752840
 Root     53 :    14.008905026214370
 Root     54 :    14.044944570796520
 Root     55 :    14.138188970064410
 Root     56 :    14.247172261969750
 Root     57 :    14.282238537210210
 Root     58 :    14.315392362783560
 Root     59 :    14.354517552478090
 Root     60 :    14.448063642527770
 Root     61 :    14.570770085757990
 Root     62 :    14.573202265429880
 Root     63 :    14.653488301469960
 Root     64 :    14.678503133378820
 Root     65 :    14.696670761953110
 Root     66 :    14.852297942834560
 Root     67 :    14.869832633727460
 Root     68 :    14.911634452511090
 Root     69 :    14.924777954987030
 Root     70 :    14.998846473552100
 Root     71 :    15.073320183488160
 Root     72 :    15.084500706778620
 Root     73 :    15.147269773219080
 Root     74 :    15.242323862442810
 Root     75 :    15.258919948877240
 Root     76 :    15.389310101519140
 Root     77 :    15.398006133784260
 Root     78 :    15.422101108823300
 Root     79 :    15.452041617288260
 Root     80 :    15.521694469967000
 Root     81 :    15.637467831224930
 Root     82 :    15.643853548408030
 Root     83 :    15.678035183235620
 Root     84 :    15.797879238315450
 Root     85 :    15.800742602333650
 Root     86 :    15.842579328452140
 Root     87 :    15.858746400530700
 Root     88 :    15.890448763448730
 Root     89 :    15.988105168224030
 Root     90 :    16.041495623917270
 Root     91 :    16.106477963886230
 Root     92 :    16.159905310622630
 Root     93 :    16.238444432627660
 Root     94 :    16.337248568404410
 Root     95 :    16.365011990815810
 Root     96 :    16.381123968901500
 Root     97 :    16.448646862150760
 Root     98 :    16.449450175308060
 Root     99 :    16.509932853098590
 Root    100 :    16.580645801714670
 Root    101 :    16.608428175438390
 Root    102 :    16.637429085456420
 Root    103 :    16.770257163212580
 Root    104 :    16.782210851882460
 Root    105 :    16.805452546628680
 Root    106 :    16.865342895386260
 Root    107 :    16.899377911162950
 Root    108 :    16.913872342046750
 Root    109 :    16.994246315385490
 Root    110 :    17.084154243972950
 Root    111 :    17.096206509087490
 Root    112 :    17.224725547400330
 Root    113 :    17.231103055254890
 Root    114 :    17.247995784923080
 Root    115 :    17.279612309932830
 Root    116 :    17.440340695708100
 Root    117 :    17.449361311919500
 Root    118 :    17.563610935835230
 Root    119 :    17.568722660267570
 Root    120 :    17.650930671495260
 Root    121 :    17.652857301575960
 Root    122 :    17.715357963601990
 Root    123 :    17.746704334607980
 Root    124 :    17.788994468398320
 Root    125 :    17.831673229142470
 Root    126 :    17.857050863246600
 Root    127 :    17.902494667394570
 Root    128 :    17.924978182128900
 Root    129 :    18.060059048979450
 Root    130 :    18.105171124012290
 Root    131 :    18.157652016039340
 Root    132 :    18.179811398790260
 Root    133 :    18.239422067171300
 Root    134 :    18.292759638345430
 Root    135 :    18.327107213920500
 Root    136 :    18.352851802455470
 Root    137 :    18.373586087865460
 Root    138 :    18.408298691391650
 Root    139 :    18.605930761026960
 Root    140 :    18.622114285588090
 Root    141 :    18.642496104899700
 Root    142 :    18.685568363224690
 Root    143 :    18.693737066927670
 Root    144 :    18.769604466585500
 Root    145 :    18.784033919716140
 Root    146 :    18.810984922624890
 Root    147 :    18.821774684454710
 Root    148 :    18.855177765634930
 Root    149 :    18.900291749502590
 Root    150 :    18.920158890809070
 Root    151 :    19.001304136956670
 Root    152 :    19.056248661584360
 Root    153 :    19.085429361811260
 Root    154 :    19.122388871972730
 Root    155 :    19.149166333222670
 Root    156 :    19.202297296247650
 Root    157 :    19.233646601090970
 Root    158 :    19.319069286247900
 Root    159 :    19.366898787366150
 Root    160 :    19.480248521549190
 Root    161 :    19.482766686110810
 Root    162 :    19.507513030646470
 Root    163 :    19.525847759584180
 Root    164 :    19.589632271377970
 Root    165 :    19.625729859226930
 Root    166 :    19.661332245743070
 Root    167 :    19.700047548461360
 Root    168 :    19.700927313053930
 Root    169 :    19.748432769016520
 Root    170 :    19.749147734637320
 Root    171 :    19.787410563060750
 Root    172 :    19.801050330744460
 Root    173 :    19.865355805753870
 Root    174 :    19.901665966782170
 Root    175 :    19.936928475912770
 Root    176 :    19.990943101405000
 Root    177 :    20.026473435354870
 Root    178 :    20.083014701181050
 Root    179 :    20.111477272658100
 Root    180 :    20.144641412005480
 Root    181 :    20.152920170902270
 Root    182 :    20.240542383940990
 Root    183 :    20.297514068108520
 Root    184 :    20.316435416710220
 Root    185 :    20.351724092775080
 Root    186 :    20.372609711033840
 Root    187 :    20.397160725006110
 Root    188 :    20.425350125118540
 Root    189 :    20.429705184935900
 Root    190 :    20.530190545017260
 Root    191 :    20.538612269492250
 Root    192 :    20.599765241378230
 Root    193 :    20.618598353251240
 Root    194 :    20.704917623409530
 Root    195 :    20.723021040923150
 Root    196 :    20.796331951854470
 Root    197 :    20.809513966481810
 Root    198 :    20.848739155047670
 Root    199 :    20.867787112145350
 Root    200 :    20.915398180163440
 Root    201 :    20.974369016637860
 Root    202 :    20.996831826707080
 Root    203 :    21.015937369010290
 Root    204 :    21.044543502573790
 Root    205 :    21.092796224174670
 Root    206 :    21.132921655402650
 Root    207 :    21.163904330156300
 Root    208 :    21.199415060738150
 Root    209 :    21.222167559812880
 Root    210 :    21.277317497897010
 Root    211 :    21.302577699411130
 Root    212 :    21.337809978188900
 Root    213 :    21.375066790242310
 Root    214 :    21.395552503533960
 Root    215 :    21.479060706582070
 Root    216 :    21.483817540236790
 Root    217 :    21.579968559458620
 Root    218 :    21.598278720125640
 Root    219 :    21.636533145486840
 Root    220 :    21.642638790195520
 Root    221 :    21.698860557645110
 Root    222 :    21.704012174751810
 Root    223 :    21.737265286997530
 Root    224 :    21.818334459213970
 Root    225 :    21.842928510893460
 Root    226 :    21.871510986245790
 Root    227 :    21.887456930569660
 Root    228 :    21.963394998752850
 Root    229 :    21.990984762763000
 Root    230 :    22.042587544523020
 Root    231 :    22.077133365509490
 Root    232 :    22.111508393326560
 Root    233 :    22.161343632333750
 Root    234 :    22.171696743395380
 Root    235 :    22.184024429280410
 Root    236 :    22.253528141479390
 Root    237 :    22.330900501460880
 Root    238 :    22.368094395202000
 Root    239 :    22.393172964000280
 Root    240 :    22.423852598218180
 Root    241 :    22.446744974851180
 Root    242 :    22.454010058543010
 Root    243 :    22.539743453177290
 Root    244 :    22.615555475578470
 Root    245 :    22.623084025051650
 Root    246 :    22.649577643960240
 Root    247 :    22.718097602381380
 Root    248 :    22.761331704787690
 Root    249 :    22.763659070016850
 Root    250 :    22.828711103281440
 Root    251 :    22.846781646862180
 Root    252 :    22.903204179506160
 Root    253 :    22.921594430039080
 Root    254 :    22.987615784710970
 Root    255 :    23.005128177806080
 Root    256 :    23.048993192237010
 Root    257 :    23.079336057444960
 Root    258 :    23.091338382403250
 Root    259 :    23.111519505667760
 Root    260 :    23.159804133657360
 Root    261 :    23.177501386701060
 Root    262 :    23.194302611167370
 Root    263 :    23.233540900575520
 Root    264 :    23.334970711737250
 Root    265 :    23.337020330997210
 Root    266 :    23.365949031659470
 Root    267 :    23.368289058678520
 Root    268 :    23.491119091524770
 Root    269 :    23.502636339641850
 Root    270 :    23.507933469660250
 Root    271 :    23.557955522562280
 Root    272 :    23.609601617040680
 Root    273 :    23.614943836189890
 Root    274 :    23.676410755720840
 Root    275 :    23.683964347273510
 Root    276 :    23.718275588624990
 Root    277 :    23.744818624624550
 Root    278 :    23.749449190158590
 Root    279 :    23.770682130749280
 Root    280 :    23.901652339634410
 Root    281 :    23.909712572445690
 Root    282 :    23.928640364223710
 Root    283 :    23.939563306611660
 Root    284 :    23.996208972668820
 Root    285 :    24.076011798121320
 Root    286 :    24.122120096429250
 Root    287 :    24.150167309392900
 Root    288 :    24.198273653616320
 Root    289 :    24.272767518279690
 Root    290 :    24.309938661108430
 Root    291 :    24.333759966888370
 Root    292 :    24.361551144467650
 Root    293 :    24.517229277678050
 Root    294 :    24.529955503407620
 Root    295 :    24.549507080256630
 Root    296 :    24.682242041024690
 Root    297 :    24.807718095729250
 Root    298 :    24.814400429506680
 Root    299 :    24.829144419688080
 Root    300 :    24.855283047804750
 Root    301 :    24.871344365684830
 Root    302 :    24.913907724818830
 Root    303 :    24.977531520138360
 Root    304 :    25.017784463027410
 Root    305 :    25.059116551939590
 Root    306 :    25.102891045855700
 Root    307 :    25.126904207092330
 Root    308 :    25.138104609948460
 Root    309 :    25.169726311541370
 Root    310 :    25.260393429901810
 Root    311 :    25.291640916209420
 Root    312 :    25.390587895784390
 Root    313 :    25.398152683461400
 Root    314 :    25.431604208004370
 Root    315 :    25.453094264907810
 Root    316 :    25.596690962783310
 Root    317 :    25.682172049715130
 Root    318 :    25.711172844537650
 Root    319 :    25.767967767975640
 Root    320 :    25.784526129150740
 Root    321 :    25.860201441169800
 Root    322 :    25.948075894680280
 Root    323 :    25.976319565641530
 Root    324 :    25.999120255515390
 Root    325 :    26.002689262458760
 Root    326 :    26.110631602184040
 Root    327 :    26.166394594334180
 Root    328 :    26.197042186731760
 Root    329 :    26.217587007347020
 Root    330 :    26.230302010728950
 Root    331 :    26.244932332125790
 Root    332 :    26.297161724593110
 Root    333 :    26.327664959001120
 Root    334 :    26.359459482137040
 Root    335 :    26.428884752274730
 Root    336 :    26.437281336556430
 Root    337 :    26.508739014852800
 Root    338 :    26.522013650917900
 Root    339 :    26.551172900670470
 Root    340 :    26.670062238962680
 Root    341 :    26.709414983124640
 Root    342 :    26.741170046384440
 Root    343 :    26.792914048638060
 Root    344 :    26.840930128038590
 Root    345 :    26.900941915934060
 Root    346 :    27.008227114383500
 Root    347 :    27.040980006800350
 Root    348 :    27.044021984927960
 Root    349 :    27.095304225760210
 Root    350 :    27.227148459603420
 Root    351 :    27.263451447630120
 Root    352 :    27.287798449063140
 Root    353 :    27.301994166852590
 Root    354 :    27.333625392188410
 Root    355 :    27.345450551791770
 Root    356 :    27.384468904061720
 Root    357 :    27.456042622474060
 Root    358 :    27.471064953443460
 Root    359 :    27.513441889828120
 Root    360 :    27.626432121776550
 Root    361 :    27.631342241955450
 Root    362 :    27.682820560112590
 Root    363 :    27.763951926351090
 Root    364 :    27.779651675211710
 Root    365 :    27.855698279853670
 Root    366 :    27.919215932460600
 Root    367 :    27.950838507301030
 Root    368 :    27.961781322694090
 Root    369 :    27.986415725729880
 Root    370 :    28.078530089303830
 Root    371 :    28.126778956083470
 Root    372 :    28.186362542318790
 Root    373 :    28.214715915727360
 Root    374 :    28.313190660969650
 Root    375 :    28.331504509531160
 Root    376 :    28.333022309378440
 Root    377 :    28.398744391100350
 Root    378 :    28.432208880932380
 Root    379 :    28.452448638546540
 Root    380 :    28.466539948199450
 Root    381 :    28.484148200936230
 Root    382 :    28.581857909834890
 Root    383 :    28.615223354625070
 Root    384 :    28.663003831695610
 Root    385 :    28.740362519878710
 Root    386 :    28.940916365089230
 Root    387 :    29.023695595321930
 Root    388 :    29.070798231391600
 Root    389 :    29.124244241335380
 Root    390 :    29.223642168817610
 Root    391 :    29.254136869961280
 Root    392 :    29.304442917579530
 Root    393 :    29.382468581245470
 Root    394 :    29.396659299032750
 Root    395 :    29.504142737547270
 Root    396 :    29.510146499107480
 Root    397 :    29.522469824683100
 Root    398 :    29.586886269517410
 Root    399 :    29.600272673731280
 Root    400 :    29.621183295428220
 Root    401 :    29.702940900492540
 Root    402 :    29.831070555147370
 Root    403 :    29.880550381079260
 Root    404 :    29.985919295582250
 Root    405 :    29.993034630747820
 Root    406 :    30.033218700406640
 Root    407 :    30.086378613408880
 Root    408 :    30.092119034561240
 Root    409 :    30.140951467647140
 Root    410 :    30.236197484568540
 Root    411 :    30.269046543454010
 Root    412 :    30.286923822104130
 Root    413 :    30.416981430351320
 Root    414 :    30.527994176076100
 Root    415 :    30.604975765985000
 Root    416 :    30.631474946894360
 Root    417 :    30.667185618054700
 Root    418 :    30.781090528433610
 Root    419 :    30.905329776891680
 Root    420 :    30.953828669475780
 Root    421 :    31.059293554099970
 Root    422 :    31.116317751539030
 Root    423 :    31.167378747424260
 Root    424 :    31.242405355872350
 Root    425 :    31.377171119333990
 Root    426 :    31.410217005510330
 Root    427 :    31.540032040190790
 Root    428 :    31.651511914744000
 Root    429 :    31.717310127809090
 Root    430 :    31.766152049673360
 Root    431 :    31.766240866476170
 Root    432 :    31.805313855626950
 Root    433 :    31.907646205985480
 Root    434 :    31.923355142128840
 Root    435 :    32.109572038417050
 Root    436 :    32.193050482676330
 Root    437 :    32.243193418734240
 Root    438 :    32.248642014457980
 Root    439 :    32.306013089301460
 Root    440 :    32.452888682460600
 Root    441 :    32.492915706864220
 Root    442 :    32.669179710138910
 Root    443 :    32.695021409831480
 Root    444 :    32.702347906423770
 Root    445 :    32.744623266914700
[...]
      3  -0.206995D-01 -0.269186D-02  0.000000D+00  0.737156D-01  0.000000D+00
      4   0.000000D+00  0.000000D+00 -0.530065D-01  0.000000D+00  0.221352D-01
      5  -0.173954D-01 -0.366342D-01  0.000000D+00  0.117656D+00  0.000000D+00
      6   0.585357D-01  0.130784D-01  0.000000D+00 -0.196847D+00  0.000000D+00
      7   0.000000D+00  0.000000D+00  0.156746D+00  0.000000D+00 -0.831269D-01
      8   0.000000D+00  0.000000D+00  0.870860D-01  0.000000D+00 -0.322248D+00
      9   0.000000D+00  0.000000D+00 -0.335885D+00  0.000000D+00  0.247617D-01
     10  -0.495515D-01 -0.186404D+00  0.000000D+00  0.128591D+00  0.000000D+00
     11  -0.156193D+00 -0.548113D-02  0.000000D+00  0.299536D-01  0.000000D+00
     12   0.111428D+00 -0.269548D+00  0.000000D+00  0.171608D+00  0.000000D+00
     13  -0.718399D+00 -0.704798D+00  0.000000D+00 -0.150553D+01  0.000000D+00
     14   0.865871D-01  0.244202D+00  0.000000D+00 -0.162687D+00  0.000000D+00
     15   0.000000D+00  0.000000D+00 -0.299950D+00  0.000000D+00 -0.335756D-01
     16   0.000000D+00  0.000000D+00 -0.351270D+00  0.000000D+00  0.198061D+00
               966           967           968           969           970 
      1  -0.131640D+03 -0.131639D+03 -0.131627D+03 -0.131626D+03 -0.131622D+03
      2  -0.747392D-01  0.000000D+00 -0.690790D-02  0.000000D+00  0.674332D-01
      3  -0.296398D-01  0.000000D+00  0.198965D-01  0.000000D+00 -0.109117D+00
      4   0.000000D+00  0.424141D-01  0.000000D+00 -0.123111D+00  0.000000D+00
      5   0.206132D+00  0.000000D+00  0.222223D-01  0.000000D+00 -0.193663D+00
      6   0.647047D-01  0.000000D+00 -0.644582D-01  0.000000D+00  0.322250D+00
      7   0.000000D+00 -0.122799D+00  0.000000D+00  0.386535D+00  0.000000D+00
      8   0.000000D+00 -0.516813D-02  0.000000D+00  0.383895D+00  0.000000D+00
      9   0.000000D+00  0.346259D+00  0.000000D+00  0.432092D+00  0.000000D+00
     10   0.118482D+00  0.000000D+00 -0.523650D-01  0.000000D+00  0.156102D+00
     11   0.757497D-01  0.000000D+00  0.996709D-01  0.000000D+00  0.304260D-01
     12  -0.328040D+00  0.000000D+00  0.167781D+00  0.000000D+00  0.362923D+00
     13   0.361475D+00  0.000000D+00  0.505537D+00  0.000000D+00 -0.287612D+00
     14  -0.571996D-01  0.000000D+00  0.251284D-01  0.000000D+00 -0.267772D+00
     15   0.000000D+00  0.320713D+00  0.000000D+00  0.525309D+00  0.000000D+00
     16   0.000000D+00 -0.290182D+00  0.000000D+00  0.325851D+00  0.000000D+00
               971           972           973           974           975 
      1  -0.131619D+03 -0.131614D+03 -0.131596D+03 -0.131595D+03 -0.131593D+03
      2  -0.235233D-01  0.000000D+00 -0.413087D-01  0.000000D+00  0.000000D+00
      3   0.228424D-01  0.000000D+00  0.197617D-01  0.000000D+00  0.000000D+00
      4   0.000000D+00 -0.353431D-01  0.000000D+00 -0.674181D-01  0.784289D-02
      5   0.685523D-01  0.000000D+00  0.117869D+00  0.000000D+00  0.000000D+00
      6  -0.596906D-01  0.000000D+00 -0.396913D-01  0.000000D+00  0.000000D+00
      7   0.000000D+00  0.842022D-01  0.000000D+00  0.213934D+00 -0.211465D-01
      8   0.000000D+00  0.416094D-01  0.000000D+00 -0.130606D+00  0.262891D+00
      9   0.000000D+00  0.988625D-02  0.000000D+00  0.110369D+00 -0.569715D+00
     10   0.422438D-01  0.000000D+00 -0.733407D-01  0.000000D+00  0.000000D+00
     11  -0.145567D+00  0.000000D+00  0.763397D-01  0.000000D+00  0.000000D+00
     12   0.247075D-01  0.000000D+00 -0.127933D+00  0.000000D+00  0.000000D+00
     13  -0.140682D+00  0.000000D+00  0.144444D+00  0.000000D+00  0.000000D+00
     14   0.556708D-01  0.000000D+00  0.447110D-03  0.000000D+00  0.000000D+00
     15   0.000000D+00  0.745774D-01  0.000000D+00  0.411820D-01 -0.504877D+00
     16   0.000000D+00  0.155554D+00  0.000000D+00  0.286092D-01  0.109019D-01
               976           977           978           979           980 
      1  -0.131590D+03 -0.131584D+03 -0.131582D+03 -0.131556D+03 -0.131537D+03
      2   0.187014D-01 -0.757687D-01  0.000000D+00  0.000000D+00  0.000000D+00
      3  -0.130546D-01 -0.669092D-01  0.000000D+00  0.000000D+00  0.000000D+00
      4   0.000000D+00  0.000000D+00 -0.949129D-01  0.117574D+00  0.238688D-01
      5  -0.476542D-01  0.213833D+00  0.000000D+00  0.000000D+00  0.000000D+00
      6   0.432145D-01  0.204639D+00  0.000000D+00  0.000000D+00  0.000000D+00
      7   0.000000D+00  0.000000D+00  0.268807D+00 -0.356565D+00 -0.707488D-01
      8   0.000000D+00  0.000000D+00 -0.525695D-02  0.579373D+00 -0.258568D+00
      9   0.000000D+00  0.000000D+00  0.324503D+00  0.284938D+00  0.461635D+00
     10   0.964308D-01 -0.171813D+00  0.000000D+00  0.000000D+00  0.000000D+00
     11  -0.585978D-01 -0.120772D-01  0.000000D+00  0.000000D+00  0.000000D+00
     12   0.774615D+00 -0.365412D-01  0.000000D+00  0.000000D+00  0.000000D+00
     13   0.121244D+00 -0.279266D+00  0.000000D+00  0.000000D+00  0.000000D+00
     14  -0.129635D+00  0.142478D+00  0.000000D+00  0.000000D+00  0.000000D+00
     15   0.000000D+00  0.000000D+00  0.263365D+00  0.317417D+00  0.370612D+00
     16   0.000000D+00  0.000000D+00 -0.165378D-01 -0.251787D+00  0.184105D+00
               981           982           983           984           985 
      1  -0.131533D+03 -0.131529D+03 -0.131524D+03 -0.131515D+03 -0.131511D+03
      2  -0.184920D-01 -0.136716D-01  0.115649D+00  0.000000D+00  0.366702D-01
      3  -0.161194D-01 -0.555168D-01 -0.229353D-01  0.000000D+00  0.385901D-01
      4   0.000000D+00  0.000000D+00  0.000000D+00  0.287359D-01  0.000000D+00
      5   0.379048D-01  0.193657D-01 -0.326752D+00  0.000000D+00 -0.109822D+00
      6   0.598105D-01  0.165904D+00  0.747582D-01  0.000000D+00 -0.133449D+00
      7   0.000000D+00  0.000000D+00  0.000000D+00 -0.100028D+00  0.000000D+00
      8   0.000000D+00  0.000000D+00  0.000000D+00 -0.294797D+00  0.000000D+00
      9   0.000000D+00  0.000000D+00  0.000000D+00  0.132607D+00  0.000000D+00
     10  -0.147940D-01  0.131712D+00  0.114455D+00  0.000000D+00  0.376817D-01
     11   0.169213D-02  0.103263D-01  0.241861D-01  0.000000D+00  0.433120D-01
     12   0.276730D+00 -0.133737D+00 -0.134816D-02  0.000000D+00  0.115432D+00
     13   0.387202D+00 -0.681417D-01  0.599483D-01  0.000000D+00  0.429466D+00
     14  -0.277848D-01 -0.145088D+00 -0.309021D+00  0.000000D+00 -0.102747D+00
     15   0.000000D+00  0.000000D+00  0.000000D+00  0.755517D-01  0.000000D+00
     16   0.000000D+00  0.000000D+00  0.000000D+00 -0.201039D-02  0.000000D+00
               986           987           988           989           990 
      1  -0.131500D+03 -0.131482D+03 -0.131474D+03 -0.131471D+03 -0.131466D+03
      2   0.000000D+00 -0.233403D-01  0.000000D+00  0.209077D-02  0.000000D+00
      3   0.000000D+00 -0.278910D-01  0.000000D+00 -0.102833D+00  0.000000D+00
      4   0.715837D-03  0.000000D+00 -0.974255D-01  0.000000D+00  0.797920D-01
      5   0.000000D+00  0.770558D-01  0.000000D+00 -0.286421D-02  0.000000D+00
      6   0.000000D+00  0.768218D-01  0.000000D+00  0.324519D+00  0.000000D+00
      7  -0.566784D-02  0.000000D+00  0.318718D+00  0.000000D+00 -0.262513D+00
      8   0.139711D+00  0.000000D+00  0.118451D+00  0.000000D+00 -0.877772D-02
      9  -0.218783D-01  0.000000D+00  0.134910D-01  0.000000D+00 -0.170342D+00
     10   0.000000D+00  0.645663D-01  0.000000D+00 -0.377644D-02  0.000000D+00
     11   0.000000D+00  0.387534D-01  0.000000D+00  0.592493D-01  0.000000D+00
     12   0.000000D+00  0.143192D-01  0.000000D+00  0.125956D+00  0.000000D+00
     13   0.000000D+00 -0.609879D+00  0.000000D+00  0.575790D+00  0.000000D+00
     14   0.000000D+00 -0.201342D+00  0.000000D+00 -0.470192D-01  0.000000D+00
     15  -0.131176D+00  0.000000D+00 -0.460608D-01  0.000000D+00 -0.101362D+00
     16  -0.966462D-02  0.000000D+00  0.157343D+00  0.000000D+00 -0.407221D+00
               991           992           993           994           995 
      1  -0.131465D+03 -0.131458D+03 -0.131457D+03 -0.131455D+03 -0.131441D+03
      2   0.274291D-01  0.000000D+00  0.835691D-02  0.229481D-01 -0.262130D-01
      3   0.628786D-03  0.000000D+00 -0.422544D-01 -0.729019D-01  0.529413D-02
      4   0.000000D+00  0.550217D-01  0.000000D+00  0.000000D+00  0.000000D+00
      5  -0.745902D-01  0.000000D+00 -0.189674D-01 -0.561691D-01  0.772303D-01
      6  -0.154404D-01  0.000000D+00  0.134227D+00  0.240479D+00 -0.222729D-01
      7   0.000000D+00 -0.188470D+00  0.000000D+00  0.000000D+00  0.000000D+00
      8   0.000000D+00 -0.495814D+00  0.000000D+00  0.000000D+00  0.000000D+00
      9   0.000000D+00 -0.235955D+00  0.000000D+00  0.000000D+00  0.000000D+00
     10  -0.203188D+00  0.000000D+00  0.152264D-01 -0.757312D-01  0.155837D-01
     11   0.978631D-01  0.000000D+00  0.122621D+00 -0.319145D-01 -0.156215D-01
     12  -0.204001D+00  0.000000D+00  0.251578D-01  0.128702D+00 -0.113721D+00
     13  -0.581520D+00  0.000000D+00  0.266180D+00 -0.441465D+00  0.230824D+00
     14   0.165995D+00  0.000000D+00 -0.471471D-01  0.746127D-01  0.237183D-01
     15   0.000000D+00 -0.131838D+00  0.000000D+00  0.000000D+00  0.000000D+00
     16   0.000000D+00  0.265990D+00  0.000000D+00  0.000000D+00  0.000000D+00
               996           997           998           999          1000 
      1  -0.131436D+03 -0.131429D+03 -0.131418D+03 -0.131414D+03 -0.131400D+03
      2   0.000000D+00  0.372288D-01  0.000000D+00  0.294697D-01  0.000000D+00
      3   0.000000D+00  0.210731D-01  0.000000D+00  0.551557D-02  0.000000D+00
      4   0.263263D-01  0.000000D+00  0.335305D-01  0.000000D+00 -0.806259D-02
      5   0.000000D+00 -0.105180D+00  0.000000D+00 -0.781867D-01  0.000000D+00
      6   0.000000D+00 -0.616875D-01  0.000000D+00 -0.298927D-01  0.000000D+00
      7  -0.908091D-01  0.000000D+00 -0.123316D+00  0.000000D+00  0.345381D-01
      8  -0.150661D+00  0.000000D+00 -0.122616D+00  0.000000D+00 -0.416224D+00
      9  -0.156137D+00  0.000000D+00  0.266106D+00  0.000000D+00 -0.367585D+00
     10   0.000000D+00 -0.170505D+00  0.000000D+00 -0.489458D-01  0.000000D+00
     11   0.000000D+00 -0.568500D-01  0.000000D+00 -0.859756D-01  0.000000D+00
     12   0.000000D+00 -0.653269D-01  0.000000D+00 -0.489487D-01  0.000000D+00
     13   0.000000D+00  0.318723D+00  0.000000D+00  0.378293D+00  0.000000D+00
     14   0.000000D+00  0.880926D-01  0.000000D+00  0.887743D-01  0.000000D+00
     15  -0.164683D+00  0.000000D+00  0.241002D+00  0.000000D+00 -0.378316D+00
     16   0.904192D-01  0.000000D+00 -0.150488D-01  0.000000D+00  0.716392D+00
              1001          1002          1003          1004          1005 
      1  -0.131397D+03 -0.131390D+03 -0.131390D+03 -0.131386D+03 -0.131369D+03
      2   0.199544D-01 -0.237073D-01  0.000000D+00  0.000000D+00 -0.138472D-01
      3  -0.370296D-01  0.675906D-03  0.000000D+00  0.000000D+00 -0.176698D+00
      4   0.000000D+00  0.000000D+00  0.298549D-01 -0.147160D-01  0.000000D+00
      5  -0.550189D-01  0.720193D-01  0.000000D+00  0.000000D+00  0.459124D-01
      6   0.120441D+00 -0.915191D-02  0.000000D+00  0.000000D+00  0.581949D+00
      7   0.000000D+00  0.000000D+00 -0.867149D-01  0.320303D-01  0.000000D+00
      8   0.000000D+00  0.000000D+00 -0.195656D-01 -0.373683D+00  0.000000D+00
      9   0.000000D+00  0.000000D+00 -0.687894D-01  0.189799D+00  0.000000D+00
     10   0.191790D-02 -0.511472D-01  0.000000D+00  0.000000D+00 -0.642150D-01
     11   0.240851D-02  0.140824D+00  0.000000D+00  0.000000D+00  0.513179D-01
     12   0.256460D+00 -0.392139D+00  0.000000D+00  0.000000D+00  0.107972D+01
     13  -0.542143D+00  0.882031D+00  0.000000D+00  0.000000D+00 -0.414572D+00
     14  -0.161791D-02  0.605285D-01  0.000000D+00  0.000000D+00 -0.688410D-01
     15   0.000000D+00  0.000000D+00 -0.138488D+00  0.564522D-01  0.000000D+00
     16   0.000000D+00  0.000000D+00 -0.834854D-01  0.106239D+00  0.000000D+00
              1006          1007          1008          1009          1010 
      1  -0.131368D+03 -0.131341D+03 -0.131335D+03 -0.131329D+03 -0.131270D+03
      2   0.000000D+00  0.000000D+00  0.000000D+00  0.926990D-03  0.000000D+00
      3   0.000000D+00  0.000000D+00  0.000000D+00 -0.609812D-01  0.000000D+00
      4  -0.596779D-02 -0.848895D-01  0.340951D-02  0.000000D+00  0.237532D-01
      5   0.000000D+00  0.000000D+00  0.000000D+00 -0.442235D-02  0.000000D+00
      6   0.000000D+00  0.000000D+00  0.000000D+00  0.155623D+00  0.000000D+00
      7   0.645714D-02  0.310158D+00 -0.282617D-01  0.000000D+00 -0.740598D-01
      8   0.829932D-01  0.594400D+00 -0.124688D+00  0.000000D+00  0.680273D-02
      9  -0.556057D+00  0.354657D-01 -0.220822D-01  0.000000D+00  0.142436D-01
     10   0.000000D+00  0.000000D+00  0.000000D+00 -0.199166D-01  0.000000D+00
     11   0.000000D+00  0.000000D+00  0.000000D+00  0.216477D+00  0.000000D+00
     12   0.000000D+00  0.000000D+00  0.000000D+00 -0.502712D+00  0.000000D+00
     13   0.000000D+00  0.000000D+00  0.000000D+00  0.442994D+00  0.000000D+00
     14   0.000000D+00  0.000000D+00  0.000000D+00  0.257786D-01  0.000000D+00
     15  -0.685013D+00 -0.747739D-01 -0.180738D-01  0.000000D+00  0.678157D-01
     16  -0.263077D+00 -0.760702D-01  0.289639D-01  0.000000D+00  0.126173D+00
              1011          1012          1013          1014          1015 
      1  -0.131263D+03 -0.131220D+03 -0.131211D+03 -0.131207D+03 -0.131201D+03
      2  -0.359604D-02  0.914038D-01  0.000000D+00  0.912955D-01  0.626719D-01
      3   0.226515D-01 -0.254614D-01  0.000000D+00  0.597171D-01  0.701796D-02
      4   0.000000D+00  0.000000D+00 -0.459027D-01  0.000000D+00  0.000000D+00
      5   0.130263D-01 -0.275486D+00  0.000000D+00 -0.297122D+00 -0.228197D+00
      6  -0.752042D-01  0.637458D-01  0.000000D+00 -0.183936D+00 -0.326651D-01
      7   0.000000D+00  0.000000D+00  0.136933D+00  0.000000D+00  0.000000D+00
      8   0.000000D+00  0.000000D+00 -0.420137D+00  0.000000D+00  0.000000D+00
      9   0.000000D+00  0.000000D+00  0.186362D-01  0.000000D+00  0.000000D+00
     10   0.219521D-01 -0.455463D-01  0.000000D+00  0.102176D+00  0.361725D+00
     11  -0.349598D-01 -0.863060D-01  0.000000D+00  0.117087D+00  0.618152D-01
     12   0.298856D-01  0.823656D-01  0.000000D+00 -0.288447D+00 -0.110470D+00
     13   0.297059D+00 -0.206232D+00  0.000000D+00 -0.648565D-01 -0.406490D-01
     14   0.380354D-01 -0.305297D-01  0.000000D+00 -0.132241D+00 -0.151322D+00
     15   0.000000D+00  0.000000D+00  0.307650D-01  0.000000D+00  0.000000D+00
     16   0.000000D+00  0.000000D+00 -0.160143D+00  0.000000D+00  0.000000D+00
              1016          1017          1018          1019          1020 
      1  -0.131201D+03 -0.131195D+03 -0.131167D+03 -0.131155D+03 -0.131131D+03
      2   0.000000D+00  0.000000D+00  0.000000D+00  0.335207D-01  0.000000D+00
      3   0.000000D+00  0.000000D+00  0.000000D+00  0.103655D-03  0.000000D+00
      4   0.745964D-01 -0.149136D-01  0.188475D-02  0.000000D+00  0.837841D-01
      5   0.000000D+00  0.000000D+00  0.000000D+00 -0.997539D-01  0.000000D+00
      6   0.000000D+00  0.000000D+00  0.000000D+00  0.824190D-02  0.000000D+00
      7  -0.269677D+00  0.741190D-01 -0.181815D-02  0.000000D+00 -0.310420D+00
      8  -0.465254D+00 -0.868488D-01 -0.742277D-01  0.000000D+00 -0.275579D+00
      9   0.568799D-02 -0.572569D-02  0.181031D+00  0.000000D+00 -0.468974D-01
     10   0.000000D+00  0.000000D+00  0.000000D+00 -0.270982D-01  0.000000D+00
     11   0.000000D+00  0.000000D+00  0.000000D+00  0.314976D-01  0.000000D+00
     12   0.000000D+00  0.000000D+00  0.000000D+00  0.851253D-01  0.000000D+00
     13   0.000000D+00  0.000000D+00  0.000000D+00  0.241221D+00  0.000000D+00
     14   0.000000D+00  0.000000D+00  0.000000D+00 -0.918567D-01  0.000000D+00
     15   0.102920D+00 -0.767397D-01  0.292120D+00  0.000000D+00  0.204596D-01
     16  -0.191522D-01  0.624294D+00  0.849902D-01  0.000000D+00 -0.294117D+00
              1021          1022          1023          1024          1025 
      1  -0.131126D+03 -0.131117D+03 -0.131113D+03 -0.131076D+03 -0.131009D+03
      2  -0.706950D-02  0.991287D-02  0.000000D+00 -0.817546D-01  0.000000D+00
      3   0.232393D-01 -0.386789D-01  0.000000D+00 -0.437915D-01  0.000000D+00
      4   0.000000D+00  0.000000D+00 -0.154131D-01  0.000000D+00  0.423378D-02
      5   0.166324D-01 -0.393915D-01  0.000000D+00  0.280302D+00  0.000000D+00
      6  -0.966951D-01  0.128521D+00  0.000000D+00  0.159156D+00  0.000000D+00
      7   0.000000D+00  0.000000D+00  0.645175D-01  0.000000D+00  0.478221D-02
      8   0.000000D+00  0.000000D+00 -0.284505D+00  0.000000D+00  0.624417D-01
      9   0.000000D+00  0.000000D+00 -0.165246D-01  0.000000D+00 -0.345146D+00
     10  -0.117514D-01  0.137981D-01  0.000000D+00 -0.360378D+00  0.000000D+00
     11   0.821261D-01  0.108007D+00  0.000000D+00 -0.164053D+00  0.000000D+00
     12  -0.443021D+00  0.235167D+00  0.000000D+00  0.540800D+00  0.000000D+00
     13  -0.930417D+00  0.742243D-01  0.000000D+00  0.254962D+00  0.000000D+00
     14   0.216073D-01 -0.364645D-01  0.000000D+00  0.297403D+00  0.000000D+00
     15   0.000000D+00  0.000000D+00 -0.433192D-02  0.000000D+00 -0.363874D+00
     16   0.000000D+00  0.000000D+00  0.201666D+00  0.000000D+00  0.936203D-02
              1026          1027          1028          1029          1030 
      1  -0.131009D+03 -0.130949D+03 -0.130937D+03 -0.130857D+03 -0.130692D+03
      2   0.983725D-02  0.000000D+00 -0.117238D-01  0.000000D+00 -0.526345D-01
      3  -0.276657D-01  0.000000D+00 -0.112205D-01  0.000000D+00 -0.410169D-01
      4   0.000000D+00  0.496157D-01  0.000000D+00 -0.964636D-02  0.000000D+00
      5  -0.341742D-01  0.000000D+00  0.387876D-01  0.000000D+00  0.178147D+00
      6   0.799478D-01  0.000000D+00  0.396736D-01  0.000000D+00  0.119927D+00
      7   0.000000D+00 -0.996541D-01  0.000000D+00  0.611866D-01  0.000000D+00
      8   0.000000D+00  0.259473D-01  0.000000D+00 -0.599672D-02  0.000000D+00
      9   0.000000D+00  0.569567D-01  0.000000D+00  0.774872D-01  0.000000D+00
     10   0.395709D-01  0.000000D+00 -0.198293D-01  0.000000D+00 -0.150912D+00
     11   0.125338D+00  0.000000D+00  0.251542D-01  0.000000D+00 -0.852823D-01
     12  -0.289960D+00  0.000000D+00 -0.332083D-01  0.000000D+00  0.192750D+00
     13   0.289555D+00  0.000000D+00 -0.416131D+00  0.000000D+00  0.132550D-02
     14  -0.597935D-01  0.000000D+00  0.790065D-01  0.000000D+00  0.341090D-01
     15   0.000000D+00  0.104808D+00  0.000000D+00  0.326868D-01  0.000000D+00
     16   0.000000D+00 -0.666812D-01  0.000000D+00  0.345590D+00  0.000000D+00
 Unable to Open any file for archive entry.
 1\1\GINC-HEL03\SP\RwB97XD TD-FC\Gen\C2H7N1\RR\12-Feb-2022\0\\#P TD(Nst
 ates=10000) wB97XD/Gen SCF(maxcycles=100) Int(Grid=ultrafine)\\xGDB7_0
 0001_tier4.com\\0,1\C,0,-0.026047,-0.217143,1.209876\N,0,-0.026047,0.5
 70772,0.\C,0,-0.026047,-0.217143,-1.209876\H,0,0.013735,0.440621,2.090
 832\H,0,0.813545,-0.943661,1.286149\H,0,-0.961368,-0.797172,1.277991\H
 ,0,0.763067,1.210735,0.\H,0,-0.961368,-0.797172,-1.277991\H,0,0.813545
 ,-0.943661,-1.286149\H,0,0.013735,0.440621,-2.090832\\Version=EM64L-G1
 6RevC.01\State=1-A'\HF=-135.033847\RMSD=3.915e-09\PG=CS [SG(H1N1),X(C2
 H6)]\\@
 The archive entry for this job was punched.


            THE IRISH PIG
 'TWAS AN EVENING IN NOVEMBER,
 AS I VERY WELL REMEMBER
 I WAS STROLLING DOWN THE STREET IN DRUNKEN PRIDE,
 BUT MY KNEES WERE ALL A'FLUTTER
 SO I LANDED IN THE GUTTER,
 AND A PIG CAME UP AND LAY DOWN BY MY SIDE.

 YES, I LAY THERE IN THE GUTTER
 THINKING THOUGHTS I COULD NOT UTTER
 WHEN A COLLEEN PASSING BY DID SOFTLY SAY,
 'YE CAN TELL A MAN THAT BOOZES
 BY THE COMPANY THAT HE CHOOSES.' -
 AT THAT, THE PIG GOT UP AND WALKED AWAY!
     -- THE ECONOMIST, AUGUST 23, 1986
 Job cpu time:       0 days  0 hours 19 minutes 59.6 seconds.
 Elapsed time:       0 days  0 hours  2 minutes 30.3 seconds.
 File lengths (MBytes):  RWF=   1370 Int=      0 D2E=      0 Chk=    332 Scr=      1
 Normal termination of Gaussian 16 at Sat Feb 12 22:20:24 2022.
