 Entering Gaussian System, Link 0=g16
 Input=bigQM7w_TDwB97XD_def2SVPD_000009.com
 Output=bigQM7w_TDwB97XD_def2SVPD_000009.log
 Initial command:
 /home/rr/g16/l1.exe "/scratch/rr/PBS_7839454.helios/Gau-17422.inp" -scrdir="/scratch/rr/PBS_7839454.helios/"
 Entering Link 1 = /home/rr/g16/l1.exe PID=     17433.
  
 Copyright (c) 1988-2019, Gaussian, Inc.  All Rights Reserved.
  
 This is part of the Gaussian(R) 16 program.  It is based on
 the Gaussian(R) 09 system (copyright 2009, Gaussian, Inc.),
 the Gaussian(R) 03 system (copyright 2003, Gaussian, Inc.),
 the Gaussian(R) 98 system (copyright 1998, Gaussian, Inc.),
 the Gaussian(R) 94 system (copyright 1995, Gaussian, Inc.),
 the Gaussian 92(TM) system (copyright 1992, Gaussian, Inc.),
 the Gaussian 90(TM) system (copyright 1990, Gaussian, Inc.),
 the Gaussian 88(TM) system (copyright 1988, Gaussian, Inc.),
 the Gaussian 86(TM) system (copyright 1986, Carnegie Mellon
 University), and the Gaussian 82(TM) system (copyright 1983,
 Carnegie Mellon University). Gaussian is a federally registered
 trademark of Gaussian, Inc.
  
 This software contains proprietary and confidential information,
 including trade secrets, belonging to Gaussian, Inc.
  
 This software is provided under written license and may be
 used, copied, transmitted, or stored only in accord with that
 written license.
  
 The following legend is applicable only to US Government
 contracts under FAR:
  
                    RESTRICTED RIGHTS LEGEND
  
 Use, reproduction and disclosure by the US Government is
 subject to restrictions as set forth in subparagraphs (a)
 and (c) of the Commercial Computer Software - Restricted
 Rights clause in FAR 52.227-19.
  
 Gaussian, Inc.
 340 Quinnipiac St., Bldg. 40, Wallingford CT 06492
  
  
 ---------------------------------------------------------------
 Warning -- This program may not be used in any manner that
 competes with the business of Gaussian, Inc. or will provide
 assistance to any competitor of Gaussian, Inc.  The licensee
 of this program is prohibited from giving any competitor of
 Gaussian, Inc. access to this program.  By using this program,
 the user acknowledges that Gaussian, Inc. is engaged in the
 business of creating and licensing software in the field of
 computational chemistry and represents and warrants to the
 licensee that it is not a competitor of Gaussian, Inc. and that
 it will not use this program in any manner prohibited above.
 ---------------------------------------------------------------
  

 Cite this work as:
 Gaussian 16, Revision C.01,
 M. J. Frisch, G. W. Trucks, H. B. Schlegel, G. E. Scuseria, 
 M. A. Robb, J. R. Cheeseman, G. Scalmani, V. Barone, 
 G. A. Petersson, H. Nakatsuji, X. Li, M. Caricato, A. V. Marenich, 
 J. Bloino, B. G. Janesko, R. Gomperts, B. Mennucci, H. P. Hratchian, 
 J. V. Ortiz, A. F. Izmaylov, J. L. Sonnenberg, D. Williams-Young, 
 F. Ding, F. Lipparini, F. Egidi, J. Goings, B. Peng, A. Petrone, 
 T. Henderson, D. Ranasinghe, V. G. Zakrzewski, J. Gao, N. Rega, 
 G. Zheng, W. Liang, M. Hada, M. Ehara, K. Toyota, R. Fukuda, 
 J. Hasegawa, M. Ishida, T. Nakajima, Y. Honda, O. Kitao, H. Nakai, 
 T. Vreven, K. Throssell, J. A. Montgomery, Jr., J. E. Peralta, 
 F. Ogliaro, M. J. Bearpark, J. J. Heyd, E. N. Brothers, K. N. Kudin, 
 V. N. Staroverov, T. A. Keith, R. Kobayashi, J. Normand, 
 K. Raghavachari, A. P. Rendell, J. C. Burant, S. S. Iyengar, 
 J. Tomasi, M. Cossi, J. M. Millam, M. Klene, C. Adamo, R. Cammi, 
 J. W. Ochterski, R. L. Martin, K. Morokuma, O. Farkas, 
 J. B. Foresman, and D. J. Fox, Gaussian, Inc., Wallingford CT, 2019.
 
 ******************************************
 Gaussian 16:  EM64L-G16RevC.01  3-Jul-2019
                12-Feb-2022 
 ******************************************
 %mem=64gb
 %nproc=8
 Will use up to    8 processors via shared memory.
 ----------------------------------------------------------------------
 #P TD(Nstates=10000) wB97XD/Gen SCF(maxcycles=100) Int(Grid=ultrafine)
 ----------------------------------------------------------------------
 1/38=1,172=1/1;
 2/12=2,17=6,18=5,40=1/2;
 3/5=7,11=9,25=1,30=1,74=-58,75=-5/1,2,3,8;
 4//1;
 5/5=2,7=100,38=5/2;
 8/6=1,10=1,108=10000/1;
 9/41=10000,42=1,70=2/14;
 6/7=2,8=2,9=2,10=2/1;
 99/5=1,9=1/99;
 Leave Link    1 at Sat Feb 12 22:25:04 2022, MaxMem=  8589934592 cpu:               0.4 elap:               0.1
 (Enter /home/rr/g16/l101.exe)
 ---------------------
 xGDB7_00001_tier4.com
 ---------------------
 Symbolic Z-matrix:
 Charge =  0 Multiplicity = 1
 9                     0.        0.        0.68846 
 9                     0.        0.       -0.68846 
 
 ITRead=  0  0
 MicOpt= -1 -1
 NAtoms=      2 NQM=        2 NQMF=       0 NMMI=      0 NMMIF=      0
                NMic=       0 NMicF=      0.
                    Isotopes and Nuclear Properties:
 (Nuclear quadrupole moments (NQMom) in fm**2, nuclear magnetic moments (NMagM)
  in nuclear magnetons)

  Atom         1           2
 IAtWgt=          19          19
 AtmWgt=  18.9984033  18.9984033
 NucSpn=           1           1
 AtZEff=  -0.0000000  -0.0000000
 NQMom=    0.0000000   0.0000000
 NMagM=    2.6288670   2.6288670
 AtZNuc=   9.0000000   9.0000000
 Leave Link  101 at Sat Feb 12 22:25:04 2022, MaxMem=  8589934592 cpu:               0.7 elap:               0.1
 (Enter /home/rr/g16/l202.exe)
                          Input orientation:                          
 ---------------------------------------------------------------------
 Center     Atomic      Atomic             Coordinates (Angstroms)
 Number     Number       Type             X           Y           Z
 ---------------------------------------------------------------------
      1          9           0        0.000000    0.000000    0.688459
      2          9           0        0.000000    0.000000   -0.688459
 ---------------------------------------------------------------------
 Stoichiometry    F2
 Framework group  D*H[C*(F.F)]
 Deg. of freedom     1
 Full point group                 D*H     NOp   8
 Largest Abelian subgroup         D2H     NOp   8
 Largest concise Abelian subgroup C2      NOp   2
                         Standard orientation:                         
 ---------------------------------------------------------------------
 Center     Atomic      Atomic             Coordinates (Angstroms)
 Number     Number       Type             X           Y           Z
 ---------------------------------------------------------------------
      1          9           0        0.000000    0.000000    0.688459
      2          9           0        0.000000    0.000000   -0.688459
 ---------------------------------------------------------------------
 Rotational constants (GHZ):           0.0000000          28.0616975          28.0616975
 Leave Link  202 at Sat Feb 12 22:25:04 2022, MaxMem=  8589934592 cpu:               0.1 elap:               0.0
 (Enter /home/rr/g16/l301.exe)
 General basis read from cards:  (5D, 7F)
 Centers:       1      2
 S 5 1.00
     Exponent=  2.8948325990D+03 Coefficients= -5.3408255515D-03
     Exponent=  4.3541939120D+02 Coefficients= -3.9904258866D-02
     Exponent=  9.8843328866D+01 Coefficients= -1.7912768038D-01
     Exponent=  2.7485198001D+01 Coefficients= -4.6758090825D-01
     Exponent=  8.5405498171D+00 Coefficients= -4.4653131020D-01
 S 1 1.00
     Exponent=  1.0654578038D+00 Coefficients=  1.0000000000D+00
 S 1 1.00
     Exponent=  3.3247346748D-01 Coefficients=  1.0000000000D+00
 S 1 1.00
     Exponent=  9.8097752264D-02 Coefficients=  1.0000000000D+00
 P 3 1.00
     Exponent=  2.2696633924D+01 Coefficients= -4.5212874436D-02
     Exponent=  4.9872339257D+00 Coefficients= -2.3754317067D-01
     Exponent=  1.3491613954D+00 Coefficients= -5.1287353587D-01
 P 1 1.00
     Exponent=  3.4829881977D-01 Coefficients=  1.0000000000D+00
 P 1 1.00
     Exponent=  8.3372148304D-02 Coefficients=  1.0000000000D+00
 D 1 1.00
     Exponent=  1.4000000000D+00 Coefficients=  1.0000000000D+00
 D 1 1.00
     Exponent=  2.2301361948D-01 Coefficients=  1.0000000000D+00
 ****
 Ernie: Thresh=  0.10000D-02 Tol=  0.10000D-05 Strict=F.
 There are    13 symmetry adapted cartesian basis functions of AG  symmetry.
 There are     2 symmetry adapted cartesian basis functions of B1G symmetry.
 There are     5 symmetry adapted cartesian basis functions of B2G symmetry.
 There are     5 symmetry adapted cartesian basis functions of B3G symmetry.
 There are     2 symmetry adapted cartesian basis functions of AU  symmetry.
 There are    13 symmetry adapted cartesian basis functions of B1U symmetry.
 There are     5 symmetry adapted cartesian basis functions of B2U symmetry.
 There are     5 symmetry adapted cartesian basis functions of B3U symmetry.
 There are    11 symmetry adapted basis functions of AG  symmetry.
 There are     2 symmetry adapted basis functions of B1G symmetry.
 There are     5 symmetry adapted basis functions of B2G symmetry.
 There are     5 symmetry adapted basis functions of B3G symmetry.
 There are     2 symmetry adapted basis functions of AU  symmetry.
 There are    11 symmetry adapted basis functions of B1U symmetry.
 There are     5 symmetry adapted basis functions of B2U symmetry.
 There are     5 symmetry adapted basis functions of B3U symmetry.
    46 basis functions,    70 primitive gaussians,    50 cartesian basis functions
     9 alpha electrons        9 beta electrons
       nuclear repulsion energy        31.1299250097 Hartrees.
 IExCor= 4639 DFT=T Ex+Corr=wB97XD ExCW=0 ScaHFX=  1.000000
 ScaDFX=  1.000000  1.000000  1.000000  1.000000 ScalE2=  1.000000  1.000000
 IRadAn=      5 IRanWt=     -1 IRanGd=            0 ICorTp=0 IEmpDi=121
 HFx  wShort=  0.000000 wLong=  0.200000 cFull=  0.222036 cShort=  0.000000 cLong=  0.777964
 DFx  wShort=  0.000000 wLong=  0.200000 cFull=  0.000000 cShort=  0.000000 cLong=  1.000000
 NAtoms=    2 NActive=    2 NUniq=    1 SFac= 4.00D+00 NAtFMM=   60 NAOKFM=F Big=F
 Integral buffers will be    131072 words long.
 Raffenetti 1 integral format.
 Two-electron integral symmetry is turned on.
 R6Disp:  Grimme-D2 Dispersion energy=       -0.0000038353 Hartrees.
 Nuclear repulsion after empirical dispersion term =       31.1299211744 Hartrees.
 Leave Link  301 at Sat Feb 12 22:25:04 2022, MaxMem=  8589934592 cpu:               0.5 elap:               0.1
 (Enter /home/rr/g16/l302.exe)
 NPDir=0 NMtPBC=     1 NCelOv=     1 NCel=       1 NClECP=     1 NCelD=      1
         NCelK=      1 NCelE2=     1 NClLst=     1 CellRange=     0.0.
 One-electron integrals computed using PRISM.
 One-electron integral symmetry used in STVInt
 NBasis=    46 RedAO= T EigKep=  2.61D-03  NBF=    11     2     5     5     2    11     5     5
 NBsUse=    46 1.00D-06 EigRej= -1.00D+00 NBFU=    11     2     5     5     2    11     5     5
 Precomputing XC quadrature grid using
 IXCGrd= 4 IRadAn=           5 IRanWt=          -1 IRanGd=           0 AccXCQ= 0.00D+00.
 Generated NRdTot=       0 NPtTot=           0 NUsed=           0 NTot=          32
 NSgBfM=    50    50    50    50    50 MxSgAt=     2 MxSgA2=     2.
 Leave Link  302 at Sat Feb 12 22:25:04 2022, MaxMem=  8589934592 cpu:               0.9 elap:               0.1
 (Enter /home/rr/g16/l303.exe)
 DipDrv:  MaxL=1.
 Leave Link  303 at Sat Feb 12 22:25:04 2022, MaxMem=  8589934592 cpu:               0.2 elap:               0.1
 (Enter /home/rr/g16/l308.exe)
 Leave Link  308 at Sat Feb 12 22:25:04 2022, MaxMem=  8589934592 cpu:               0.2 elap:               0.0
 (Enter /home/rr/g16/l401.exe)
 ExpMin= 8.34D-02 ExpMax= 2.89D+03 ExpMxC= 4.35D+02 IAcc=3 IRadAn=         5 AccDes= 0.00D+00
 Harris functional with IExCor= 4639 and IRadAn=       5 diagonalized for initial guess.
 HarFok:  IExCor= 4639 AccDes= 0.00D+00 IRadAn=         5 IDoV= 1 UseB2=F ITyADJ=14
 ICtDFT=  3500011 ScaDFX=  1.000000  1.000000  1.000000  1.000000
 FoFCou: FMM=F IPFlag=           0 FMFlag=      100000 FMFlg1=           0
         NFxFlg=           0 DoJE=T BraDBF=F KetDBF=T FulRan=T
         wScrn=  0.000000 ICntrl=       500 IOpCl=  0 I1Cent=   200000004 NGrid=           0
         NMat0=    1 NMatS0=      1 NMatT0=    0 NMatD0=    1 NMtDS0=    0 NMtDT0=    0
 Petite list used in FoFCou.
 Harris En= -193.465983792256    
 JPrj=0 DoOrth=F DoCkMO=F.
 Initial guess orbital symmetries:
       Occupied  (SGU) (SGG) (SGG) (SGU) (SGG) (PIU) (PIU) (PIG)
                 (PIG)
       Virtual   (SGU) (SGG) (SGU) (PIU) (PIU) (PIG) (PIG) (SGG)
                 (SGU) (DLTG) (DLTG) (PIU) (PIU) (DLTU) (DLTU)
                 (SGU) (SGG) (PIG) (PIG) (PIU) (PIU) (SGG) (SGU)
                 (PIG) (PIG) (SGG) (SGU) (SGG) (PIU) (PIU) (DLTG)
                 (DLTG) (DLTU) (DLTU) (PIG) (PIG) (SGU)
 The electronic state of the initial guess is 1-SGG.
 Leave Link  401 at Sat Feb 12 22:25:05 2022, MaxMem=  8589934592 cpu:               1.1 elap:               0.2
 (Enter /home/rr/g16/l502.exe)
 Keep R1 ints in memory in symmetry-blocked form, NReq=8208712.
 FoFCou: FMM=F IPFlag=           0 FMFlag=           0 FMFlg1=           0
         NFxFlg=           0 DoJE=F BraDBF=F KetDBF=F FulRan=T
         wScrn=  0.000000 ICntrl=       600 IOpCl=  0 I1Cent=           0 NGrid=           0
         NMat0=    1 NMatS0=   1081 NMatT0=    0 NMatD0=    1 NMtDS0=    0 NMtDT0=    0
 Petite list used in FoFCou.
 Closed shell SCF:
 Using DIIS extrapolation, IDIIS=  1040.
 NGot=  8589934592 LenX=  8589844957 LenY=  8589842016
 Requested convergence on RMS density matrix=1.00D-08 within 100 cycles.
 Requested convergence on MAX density matrix=1.00D-06.
 Requested convergence on             energy=1.00D-06.
 No special actions if energy rises.
 Integral accuracy reduced to 1.0D-05 until final iterations.

 Cycle   1  Pass 0  IDiag  1:
 E= -199.011333614722    
 DIIS: error= 9.09D-02 at cycle   1 NSaved=   1.
 NSaved= 1 IEnMin= 1 EnMin= -199.011333614722     IErMin= 1 ErrMin= 9.09D-02
 ErrMax= 9.09D-02  0.00D+00 EMaxC= 1.00D-01 BMatC= 4.69D-01 BMatP= 4.69D-01
 IDIUse=3 WtCom= 9.12D-02 WtEn= 9.09D-01
 Coeff-Com:  0.100D+01
 Coeff-En:   0.100D+01
 Coeff:      0.100D+01
 Gap=     0.621 Goal=   None    Shift=    0.000
 GapD=    0.621 DampG=2.000 DampE=0.500 DampFc=1.0000 IDamp=-1.
 RMSDP=1.44D-02 MaxDP=1.82D-01              OVMax= 1.78D-01

 Cycle   2  Pass 0  IDiag  1:
 E= -199.166083054699     Delta-E=       -0.154749439977 Rises=F Damp=F
 DIIS: error= 6.13D-02 at cycle   2 NSaved=   2.
 NSaved= 2 IEnMin= 2 EnMin= -199.166083054699     IErMin= 2 ErrMin= 6.13D-02
 ErrMax= 6.13D-02  0.00D+00 EMaxC= 1.00D-01 BMatC= 2.23D-01 BMatP= 4.69D-01
 IDIUse=3 WtCom= 3.87D-01 WtEn= 6.13D-01
 Coeff-Com:  0.404D+00 0.596D+00
 Coeff-En:   0.272D+00 0.728D+00
 Coeff:      0.323D+00 0.677D+00
 Gap=     0.459 Goal=   None    Shift=    0.000
 RMSDP=6.91D-03 MaxDP=9.81D-02 DE=-1.55D-01 OVMax= 7.30D-02

 Cycle   3  Pass 0  IDiag  1:
 E= -199.299596359236     Delta-E=       -0.133513304537 Rises=F Damp=F
 DIIS: error= 7.25D-03 at cycle   3 NSaved=   3.
 NSaved= 3 IEnMin= 3 EnMin= -199.299596359236     IErMin= 3 ErrMin= 7.25D-03
 ErrMax= 7.25D-03  0.00D+00 EMaxC= 1.00D-01 BMatC= 3.20D-03 BMatP= 2.23D-01
 IDIUse=3 WtCom= 9.28D-01 WtEn= 7.25D-02
 Coeff-Com: -0.373D-01 0.640D-01 0.973D+00
 Coeff-En:   0.000D+00 0.000D+00 0.100D+01
 Coeff:     -0.346D-01 0.593D-01 0.975D+00
 Gap=     0.450 Goal=   None    Shift=    0.000
 RMSDP=9.71D-04 MaxDP=9.72D-03 DE=-1.34D-01 OVMax= 1.10D-02

 Cycle   4  Pass 0  IDiag  1:
 E= -199.301731655871     Delta-E=       -0.002135296635 Rises=F Damp=F
 DIIS: error= 5.24D-04 at cycle   4 NSaved=   4.
 NSaved= 4 IEnMin= 4 EnMin= -199.301731655871     IErMin= 4 ErrMin= 5.24D-04
 ErrMax= 5.24D-04  0.00D+00 EMaxC= 1.00D-01 BMatC= 1.51D-05 BMatP= 3.20D-03
 IDIUse=3 WtCom= 9.95D-01 WtEn= 5.24D-03
 Coeff-Com:  0.315D-02-0.205D-01-0.133D+00 0.115D+01
 Coeff-En:   0.000D+00 0.000D+00 0.000D+00 0.100D+01
 Coeff:      0.313D-02-0.204D-01-0.133D+00 0.115D+01
 Gap=     0.449 Goal=   None    Shift=    0.000
 RMSDP=9.79D-05 MaxDP=8.77D-04 DE=-2.14D-03 OVMax= 7.47D-04

 Cycle   5  Pass 0  IDiag  1:
 E= -199.301742009456     Delta-E=       -0.000010353585 Rises=F Damp=F
 DIIS: error= 1.81D-05 at cycle   5 NSaved=   5.
 NSaved= 5 IEnMin= 5 EnMin= -199.301742009456     IErMin= 5 ErrMin= 1.81D-05
 ErrMax= 1.81D-05  0.00D+00 EMaxC= 1.00D-01 BMatC= 8.82D-09 BMatP= 1.51D-05
 IDIUse=1 WtCom= 1.00D+00 WtEn= 0.00D+00
 Coeff-Com: -0.327D-03 0.202D-02 0.131D-01-0.129D+00 0.111D+01
 Coeff:     -0.327D-03 0.202D-02 0.131D-01-0.129D+00 0.111D+01
 Gap=     0.449 Goal=   None    Shift=    0.000
 RMSDP=5.29D-06 MaxDP=4.17D-05 DE=-1.04D-05 OVMax= 4.24D-05

 Initial convergence to 1.0D-05 achieved.  Increase integral accuracy.
 Cycle   6  Pass 1  IDiag  1:
 E= -199.301726219075     Delta-E=        0.000015790381 Rises=F Damp=F
 DIIS: error= 1.02D-05 at cycle   1 NSaved=   1.
 NSaved= 1 IEnMin= 1 EnMin= -199.301726219075     IErMin= 1 ErrMin= 1.02D-05
 ErrMax= 1.02D-05  0.00D+00 EMaxC= 1.00D-01 BMatC= 6.62D-09 BMatP= 6.62D-09
 IDIUse=1 WtCom= 1.00D+00 WtEn= 0.00D+00
 Coeff-Com:  0.100D+01
 Coeff:      0.100D+01
 Gap=     0.449 Goal=   None    Shift=    0.000
 RMSDP=5.29D-06 MaxDP=4.17D-05 DE= 1.58D-05 OVMax= 1.78D-05

 Cycle   7  Pass 1  IDiag  1:
 E= -199.301726225176     Delta-E=       -0.000000006101 Rises=F Damp=F
 DIIS: error= 4.59D-06 at cycle   2 NSaved=   2.
 NSaved= 2 IEnMin= 2 EnMin= -199.301726225176     IErMin= 2 ErrMin= 4.59D-06
 ErrMax= 4.59D-06  0.00D+00 EMaxC= 1.00D-01 BMatC= 7.13D-10 BMatP= 6.62D-09
 IDIUse=1 WtCom= 1.00D+00 WtEn= 0.00D+00
 Coeff-Com:  0.140D+00 0.860D+00
 Coeff:      0.140D+00 0.860D+00
 Gap=     0.449 Goal=   None    Shift=    0.000
 RMSDP=4.81D-07 MaxDP=6.07D-06 DE=-6.10D-09 OVMax= 8.18D-06

 Cycle   8  Pass 1  IDiag  1:
 E= -199.301726225656     Delta-E=       -0.000000000479 Rises=F Damp=F
 DIIS: error= 1.83D-06 at cycle   3 NSaved=   3.
 NSaved= 3 IEnMin= 3 EnMin= -199.301726225656     IErMin= 3 ErrMin= 1.83D-06
 ErrMax= 1.83D-06  0.00D+00 EMaxC= 1.00D-01 BMatC= 1.63D-10 BMatP= 7.13D-10
 IDIUse=1 WtCom= 1.00D+00 WtEn= 0.00D+00
 Coeff-Com: -0.669D-01 0.275D+00 0.792D+00
 Coeff:     -0.669D-01 0.275D+00 0.792D+00
 Gap=     0.449 Goal=   None    Shift=    0.000
 RMSDP=2.17D-07 MaxDP=2.72D-06 DE=-4.79D-10 OVMax= 2.11D-06

 Cycle   9  Pass 1  IDiag  1:
 E= -199.301726225762     Delta-E=       -0.000000000106 Rises=F Damp=F
 DIIS: error= 1.31D-07 at cycle   4 NSaved=   4.
 NSaved= 4 IEnMin= 4 EnMin= -199.301726225762     IErMin= 4 ErrMin= 1.31D-07
 ErrMax= 1.31D-07  0.00D+00 EMaxC= 1.00D-01 BMatC= 3.24D-13 BMatP= 1.63D-10
 IDIUse=1 WtCom= 1.00D+00 WtEn= 0.00D+00
 Coeff-Com:  0.130D-02-0.250D-01-0.502D-01 0.107D+01
 Coeff:      0.130D-02-0.250D-01-0.502D-01 0.107D+01
 Gap=     0.449 Goal=   None    Shift=    0.000
 RMSDP=1.72D-08 MaxDP=1.36D-07 DE=-1.06D-10 OVMax= 3.30D-07

 Cycle  10  Pass 1  IDiag  1:
 E= -199.301726225762     Delta-E=       -0.000000000000 Rises=F Damp=F
 DIIS: error= 2.62D-08 at cycle   5 NSaved=   5.
 NSaved= 5 IEnMin= 5 EnMin= -199.301726225762     IErMin= 5 ErrMin= 2.62D-08
 ErrMax= 2.62D-08  0.00D+00 EMaxC= 1.00D-01 BMatC= 2.70D-14 BMatP= 3.24D-13
 IDIUse=1 WtCom= 1.00D+00 WtEn= 0.00D+00
 Coeff-Com:  0.315D-02-0.151D-01-0.399D-01 0.236D+00 0.816D+00
 Coeff:      0.315D-02-0.151D-01-0.399D-01 0.236D+00 0.816D+00
 Gap=     0.449 Goal=   None    Shift=    0.000
 RMSDP=2.59D-09 MaxDP=2.03D-08 DE=-4.83D-13 OVMax= 3.70D-08

 SCF Done:  E(RwB97XD) =  -199.301726226     A.U. after   10 cycles
            NFock= 10  Conv=0.26D-08     -V/T= 2.0048
 KE= 1.983437572817D+02 PE=-5.379633551075D+02 EE= 1.091879504257D+02
 Leave Link  502 at Sat Feb 12 22:25:05 2022, MaxMem=  8589934592 cpu:               2.4 elap:               0.3
 (Enter /home/rr/g16/l801.exe)
 DoSCS=F DFT=T ScalE2(SS,OS)=  1.000000  1.000000
 ExpMin= 8.34D-02 ExpMax= 2.89D+03 ExpMxC= 4.35D+02 IAcc=3 IRadAn=         5 AccDes= 0.00D+00
 HarFok:  IExCor=  205 AccDes= 0.00D+00 IRadAn=         5 IDoV=-2 UseB2=F ITyADJ=14
 ICtDFT= 12500011 ScaDFX=  1.000000  1.000000  1.000000  1.000000
 Largest valence mixing into a core orbital is  3.86D-05
 Largest core mixing into a valence orbital is  1.53D-05
 Range of M.O.s used for correlation:     3    46
 NBasis=    46 NAE=     9 NBE=     9 NFC=     2 NFV=     0
 NROrb=     44 NOA=     7 NOB=     7 NVA=    37 NVB=    37
 Leave Link  801 at Sat Feb 12 22:25:05 2022, MaxMem=  8589934592 cpu:               0.4 elap:               0.1
 (Enter /home/rr/g16/l914.exe)
 RHF ground state
 Keep R1, R2, and R3 ints in memory in symmetry-blocked form, NReq=77772932.
 FoFCou: FMM=F IPFlag=           0 FMFlag=           0 FMFlg1=           0
         NFxFlg=           0 DoJE=F BraDBF=F KetDBF=F FulRan=T
         wScrn=  0.000000 ICntrl=       600 IOpCl=  0 I1Cent=           0 NGrid=           0
         NMat0=    1 NMatS0=   1081 NMatT0=    0 NMatD0=    1 NMtDS0=    0 NMtDT0=    0
 Petite list used in FoFCou.
 MDV=  8589934592 DFT=T DoStab=F Mixed=T DoRPA=T DoScal=F NonHer=T
 Making orbital integer symmetry assigments:
 Orbital symmetries:
       Occupied  (SGU) (SGG) (SGG) (SGU) (SGG) (PIU) (PIU) (PIG)
                 (PIG)
       Virtual   (SGU) (SGU) (SGG) (PIU) (PIU) (PIG) (PIG) (SGG)
                 (SGU) (DLTG) (DLTG) (PIU) (PIU) (DLTU) (DLTU)
                 (SGU) (PIG) (PIG) (SGG) (PIU) (PIU) (SGG) (SGU)
                 (PIG) (PIG) (SGG) (SGU) (SGG) (PIU) (PIU) (DLTG)
                 (DLTG) (DLTU) (DLTU) (PIG) (PIG) (SGU)
   259 initial guesses have been made.
 Convergence on wavefunction:    0.001000000000000
 Davidson Disk Diagonalization:  ConvIn= 1.00D-03 SkipCon=T Conv= 1.00D-03.
 Max sub-space:  1554 roots to seek:   518 dimension of matrix:          518
 *** WARNING: Number of orthogonal guesses is          259
 Iteration     1 Dimension   259 NMult     0 NNew    259
 CISAX will form   259 AO SS matrices at one time.
 NMat=   259 NSing=   259 JSym2X=-1.
 New state      1 was old state      2
 New state      2 was old state      1
 New state      3 was old state      4
 New state      4 was old state      3
 New state      5 was old state      8
 New state      6 was old state      9
 New state      7 was old state      6
 New state      8 was old state      7
 New state      9 was old state      5
 New state     10 was old state     11
 New state     11 was old state     13
 New state     13 was old state     18
 New state     14 was old state     19
 New state     15 was old state     16
 New state     16 was old state     14
 New state     17 was old state     10
 New state     18 was old state     17
 New state     19 was old state     15
 New state     20 was old state     22
 New state     21 was old state     23
 New state     22 was old state     20
 New state     23 was old state     21
 New state     24 was old state     25
 New state     25 was old state     26
 New state     26 was old state     28
 New state     27 was old state     29
 New state     28 was old state     27
 New state     29 was old state     24
 New state     30 was old state     34
 New state     31 was old state     35
 New state     32 was old state     37
 New state     33 was old state     36
 New state     34 was old state     31
 New state     35 was old state     33
 New state     36 was old state     32
 New state     37 was old state     30
 New state     38 was old state     40
 New state     39 was old state     41
 New state     40 was old state     38
 New state     41 was old state     39
 New state     43 was old state     46
 New state     44 was old state     45
 New state     45 was old state     44
 New state     46 was old state     43
 New state     50 was old state     53
 New state     51 was old state     54
 New state     52 was old state     50
 New state     53 was old state     55
 New state     54 was old state     56
 New state     55 was old state     58
 New state     56 was old state     52
 New state     57 was old state     51
 New state     58 was old state     59
 New state     59 was old state     60
 New state     60 was old state     57
 New state     63 was old state     65
 New state     64 was old state     66
 New state     65 was old state     63
 New state     66 was old state     64
 New state     67 was old state     76
 New state     68 was old state     75
 New state     69 was old state     77
 New state     70 was old state     72
 New state     71 was old state     73
 New state     72 was old state     78
 New state     73 was old state     68
 New state     74 was old state     69
 New state     75 was old state     70
 New state     76 was old state     74
 New state     77 was old state     67
 New state     78 was old state     79
 New state     79 was old state     71
 New state     80 was old state     81
 New state     81 was old state     80
 New state     84 was old state     86
 New state     85 was old state     87
 New state     86 was old state     84
 New state     87 was old state     85
 New state     88 was old state     89
 New state     89 was old state     88
 New state     90 was old state     95
 New state     91 was old state     93
 New state     92 was old state     94
 New state     93 was old state     90
 New state     94 was old state     91
 New state     95 was old state     92
 New state     96 was old state     98
 New state     97 was old state     96
 New state     98 was old state     99
 New state     99 was old state    100
 New state    100 was old state    101
 New state    101 was old state     97
 New state    105 was old state    106
 New state    106 was old state    105
 New state    110 was old state    113
 New state    111 was old state    114
 New state    113 was old state    111
 New state    114 was old state    110
 New state    116 was old state    118
 New state    117 was old state    116
 New state    118 was old state    119
 New state    119 was old state    120
 New state    120 was old state    127
 New state    121 was old state    128
 New state    122 was old state    126
 New state    123 was old state    121
 New state    124 was old state    122
 New state    125 was old state    123
 New state    126 was old state    124
 New state    127 was old state    135
 New state    128 was old state    134
 New state    129 was old state    117
 New state    130 was old state    129
 New state    131 was old state    130
 New state    132 was old state    137
 New state    133 was old state    136
 New state    134 was old state    133
 New state    135 was old state    131
 New state    136 was old state    132
 New state    137 was old state    125
 New state    138 was old state    141
 New state    139 was old state    140
 New state    140 was old state    139
 New state    141 was old state    138
 New state    142 was old state    152
 New state    143 was old state    153
 New state    144 was old state    145
 New state    145 was old state    151
 New state    146 was old state    149
 New state    147 was old state    150
 New state    148 was old state    142
 New state    149 was old state    143
 New state    150 was old state    147
 New state    151 was old state    146
 New state    152 was old state    144
 New state    153 was old state    155
 New state    155 was old state    156
 New state    156 was old state    168
 New state    157 was old state    161
 New state    158 was old state    159
 New state    159 was old state    162
 New state    160 was old state    163
 New state    161 was old state    164
 New state    162 was old state    158
 New state    163 was old state    157
 New state    164 was old state    165
 New state    165 was old state    166
 New state    166 was old state    167
 New state    167 was old state    169
 New state    168 was old state    170
 New state    169 was old state    171
 New state    170 was old state    148
 New state    171 was old state    173
 New state    173 was old state    174
 New state    174 was old state    175
 New state    175 was old state    181
 New state    176 was old state    177
 New state    177 was old state    176
 New state    178 was old state    182
 New state    181 was old state    178
 New state    182 was old state    184
 New state    184 was old state    185
 New state    185 was old state    186
 No map to state    186
 New state    191 was old state    192
 New state    192 was old state    191
 New state    193 was old state    195
 New state    194 was old state    193
 New state    195 was old state    194
 New state    196 was old state    197
 New state    197 was old state    196
 New state    198 was old state    200
 New state    200 was old state    202
 New state    201 was old state    198
 New state    202 was old state    205
 New state    203 was old state    206
 New state    204 was old state    203
 New state    205 was old state    204
 New state    206 was old state    212
 New state    207 was old state    211
 New state    208 was old state    201
 New state    209 was old state    207
 New state    210 was old state    208
 New state    211 was old state    209
 New state    212 was old state    210
 New state    213 was old state    215
 New state    214 was old state    216
 New state    215 was old state    217
 New state    216 was old state    218
 New state    217 was old state    220
 New state    218 was old state    219
 New state    219 was old state    225
 New state    220 was old state    226
 New state    221 was old state    223
 New state    222 was old state    227
 New state    223 was old state    228
 New state    224 was old state    222
 New state    225 was old state    221
 New state    226 was old state    229
 New state    227 was old state    230
 New state    228 was old state    231
 New state    229 was old state    232
 New state    230 was old state    214
 New state    231 was old state    213
 New state    232 was old state    224
 New state    234 was old state    236
 New state    235 was old state    237
 New state    236 was old state    235
 New state    237 was old state    234
 New state    243 was old state    244
 New state    244 was old state    243
 New state    253 was old state    254
 New state    254 was old state    253
 New state    255 was old state    256
 New state    256 was old state    255
 Excitation Energies [eV] at current iteration:
 Root      1 :     4.884928258146281
 Root      2 :     4.884928258146719
 Root      3 :     8.786002261093945
 Root      4 :     8.786002261093984
 Root      5 :    13.363084148759330
 Root      6 :    13.363084148759390
 Root      7 :    13.499536377372300
 Root      8 :    13.499536377372670
 Root      9 :    13.538463180209730
 Root     10 :    14.450149295164250
 Root     11 :    14.450190888733150
 Root     12 :    14.513933888194310
 Root     13 :    16.127021468625050
 Root     14 :    16.127021468625310
 Root     15 :    16.260660572295260
 Root     16 :    16.260684953786190
 Root     17 :    16.323472787438710
 Root     18 :    16.324459706692720
 Root     19 :    16.837144905698690
 Root     20 :    17.435667482821740
 Root     21 :    17.435667482821880
 Root     22 :    17.662176902406420
 Root     23 :    17.662176902406440
 Root     24 :    18.426028623515160
 Root     25 :    18.426040509679560
 Root     26 :    18.515694324992970
 Root     27 :    18.761417416348300
 Root     28 :    19.469841697244180
 Root     29 :    19.493277228913330
 Root     30 :    19.995784095162520
 Root     31 :    19.995784095162530
 Root     32 :    20.176922850212140
 Root     33 :    20.176922850212180
 Root     34 :    20.279100419261140
 Root     35 :    20.279101108476020
 Root     36 :    20.333123395627100
 Root     37 :    20.693365374990340
 Root     38 :    21.678077142842940
 Root     39 :    21.678077142843670
 Root     40 :    21.820667479685240
 Root     41 :    21.820667479685240
 Root     42 :    21.837555242672110
 Root     43 :    22.994360079318970
 Root     44 :    22.994360079318980
 Root     45 :    23.420604287110500
 Root     46 :    23.420604287110520
 Root     47 :    25.345053486327620
 Root     48 :    25.519149885279920
 Root     49 :    25.519149885280180
 Root     50 :    26.602173038775510
 Root     51 :    26.602173038775540
 Root     52 :    27.013876707802730
 Root     53 :    27.100182166115360
 Root     54 :    27.100335439552550
 Root     55 :    27.333452252457280
 Root     56 :    27.740013065076160
 Root     57 :    27.740013065076170
 Root     58 :    28.692854293125260
 Root     59 :    28.692867519583540
 Root     60 :    28.800802614381460
 Root     61 :    29.419591724808270
 Root     62 :    29.419591724808280
 Root     63 :    29.466191080476020
 Root     64 :    29.466191080476240
 Root     65 :    29.844943608027240
 Root     66 :    29.844943608027350
 Root     67 :    30.535984531330520
 Root     68 :    30.536082314724840
 Root     69 :    30.923316455366780
 Root     70 :    31.227621477540520
 Root     71 :    31.227621477540720
 Root     72 :    31.549766194337590
 Root     73 :    31.808788010600840
 Root     74 :    31.808823915966650
 Root     75 :    31.859008857910780
 Root     76 :    32.324635934222550
 Root     77 :    32.377961776600740
 Root     78 :    32.740146904066790
 Root     79 :    32.783665813369540
 Root     80 :    33.060882387346100
 Root     81 :    33.060882387346270
 Root     82 :    33.064221125725260
 Root     83 :    33.064221125725330
 Root     84 :    33.142484833343300
 Root     85 :    33.142484833343420
 Root     86 :    33.647843966354270
 Root     87 :    33.647843966354290
 Root     88 :    33.837306724856800
 Root     89 :    33.837306724856820
 Root     90 :    34.435449294596400
 Root     91 :    34.786636052932020
 Root     92 :    34.786722667246640
 Root     93 :    35.036746691337920
 Root     94 :    35.036746691338290
 Root     95 :    35.082073188116300
 Root     96 :    35.401915460172330
 Root     97 :    35.401922252441420
 Root     98 :    35.455667888205150
 Root     99 :    35.725993419413780
 Root    100 :    35.725993419413880
 Root    101 :    36.688723887425870
 Root    102 :    36.717324916829630
 Root    103 :    36.717324916829820
 Root    104 :    36.888021535576610
 Root    105 :    39.622095844310290
 Root    106 :    39.755408769387670
 Root    107 :    40.475351274021930
 Root    108 :    40.661742587769450
 Root    109 :    40.661742587769540
 Root    110 :    41.824662156890690
 Root    111 :    41.824690119358050
 Root    112 :    42.447404342102500
 Root    113 :    42.473724827823200
 Root    114 :    42.473724827823200
 Root    115 :    43.564662985996620
 Root    116 :    43.643322495535710
 Root    117 :    43.643343592613630
 Root    118 :    45.983731849390800
 Root    119 :    45.983731849390870
 Root    120 :    47.418894047119570
 Root    121 :    47.457923626807330
 Root    122 :    47.457973014628020
 Root    123 :    47.467513829535140
 Root    124 :    48.001430875346080
 Root    125 :    48.001547720480430
 Root    126 :    48.201491447678220
 Root    127 :    48.823149453356240
 Root    128 :    48.823149453356670
 Root    129 :    48.960416204044770
 Root    130 :    49.393092898734080
 Root    131 :    49.393110245328650
 Root    132 :    49.655448670786750
 Root    133 :    49.655448670789560
 Root    134 :    50.171123369777720
 Root    135 :    50.249385685788040
 Root    136 :    50.249385685788150
 Root    137 :    50.480194225256030
 Root    138 :    53.179887817598280
 Root    139 :    53.179887817599690
 Root    140 :    53.704432973783190
 Root    141 :    53.704432973784560
 Root    142 :    55.029442770612260
 Root    143 :    55.029442770612430
 Root    144 :    55.255320650275470
 Root    145 :    55.281077949045420
 Root    146 :    55.281132068998200
 Root    147 :    55.339377559300390
 Root    148 :    55.494949438606290
 Root    149 :    55.495078993008640
 Root    150 :    55.529900107460150
 Root    151 :    55.529900107461100
 Root    152 :    55.967312052790870
 Root    153 :    57.700721007590620
 Root    154 :    57.700721007590730
 Root    155 :    57.835988111952760
 Root    156 :    58.048555509721620
 Root    157 :    59.088697610182680
 Root    158 :    59.088722545682220
 Root    159 :    59.208885308766670
 Root    160 :    59.260344517556900
 Root    161 :    59.260344517557190
 Root    162 :    59.388247903538020
 Root    163 :    59.388247903538830
 Root    164 :    60.023092967937270
 Root    165 :    60.547824904451190
 Root    166 :    60.547824904452230
 Root    167 :    62.639238549061410
 Root    168 :    62.639238549062140
 Root    169 :    63.943428361654030
 Root    170 :    64.528861381860980
 Root    171 :    68.700108589820910
 Root    172 :    68.700108589822260
 Root    173 :    69.878932872793140
 Root    174 :    69.878932872795350
 Root    175 :    71.230458879432650
 Root    176 :    72.487345685670650
 Root    177 :    72.487345685672760
 Root    178 :    73.597514351429500
 Root    179 :    74.101671109108120
 Root    180 :    74.101671109108420
 Root    181 :    75.117971822703340
 Root    182 :    75.781548184151150
 Root    183 :    77.473821022262060
 Root    184 :    81.319945249882300
 Root    185 :    81.319945249882620
 Root    186 :    82.017998477392340
 Root    187 :    82.498854562046400
 Root    188 :    86.109848144414970
 Root    189 :    86.109848144415040
 Root    190 :    88.000377609575710
 Root    191 :    89.895743238324740
 Root    192 :    89.895743238324750
 Root    193 :    90.161571729008400
 Root    194 :    90.161589508601890
 Root    195 :    90.284056147677160
 Root    196 :    91.723741122214220
 Root    197 :    93.216258286926570
 Root    198 :    93.988574102261840
 Root    199 :    93.988602759570940
 Root    200 :    94.112476268898190
 Root    201 :    95.482736837754320
 Root    202 :    95.733931918244200
 Root    203 :    95.733931918244320
 Root    204 :    96.016539043052830
 Root    205 :    96.016539043052930
 Root    206 :    97.059320875354700
 Root    207 :    97.059320875355040
 Root    208 :    98.117749333948570
 Root    209 :    98.642108459090880
 Root    210 :    98.642108459090890
 Root    211 :   100.156578547996700
 Root    212 :   100.156578547996900
 Root    213 :   100.595900813837200
 Root    214 :   100.595900813837200
 Root    215 :   101.584030006332700
 Root    216 :   101.584107098001000
 Root    217 :   101.927641423281700
 Root    218 :   101.927641423281700
 Root    219 :   102.779148533224300
 Root    220 :   102.779153351295600
 Root    221 :   102.832984570469700
 Root    222 :   103.195327493785500
 Root    223 :   103.195411114137500
 Root    224 :   103.997172854222800
 Root    225 :   103.997172854222900
 Root    226 :   105.056078343829900
 Root    227 :   106.580686320526800
 Root    228 :   106.580688160241500
 Root    229 :   106.672701798734300
 Root    230 :   106.716562275988900
 Root    231 :   106.716562275989000
 Root    232 :   108.039377425119300
 Root    233 :   109.493822043258100
 Root    234 :   109.745989222519600
 Root    235 :   109.745989222519800
 Root    236 :   111.050033616225900
 Root    237 :   111.050033616226000
 Root    238 :   113.165739724037500
 Root    239 :   115.588897766660100
 Root    240 :   115.588993828908700
 Root    241 :   117.288240819578400
 Root    242 :   117.288328581699700
 Root    243 :   117.478651678128900
 Root    244 :   117.478651678129200
 Root    245 :   122.156629183432500
 Root    246 :   122.156629183432900
 Root    247 :   122.809519330112300
 Root    248 :   122.809603890612200
 Root    249 :   124.380279653410000
 Root    250 :   124.380366662260300
 Root    251 :   129.179812769130400
 Root    252 :   129.179812769130400
 Root    253 :   130.979203160441800
 Root    254 :   130.979203160442600
 Root    255 :   134.666313253367800
 Root    256 :   134.666313253368100
 Root    257 :   136.945252307552900
 Root    258 :   149.542786262927100
 Root    259 :   156.488867939403300
 Convergence achieved for final wavefunctions.
 ***********************************************************************
 Excited states from <AA,BB:AA,BB> singles matrix:
 ***********************************************************************
 
 1PDM for each excited state written to RWF  633
 Ground to excited state transition densities written to RWF  633
 Ground to excited state transition electric dipole moments (Au):
       state          X           Y           Z        Dip. S.      Osc.
         1        -0.0048     -0.0211      0.0000      0.0005      0.0001
         2        -0.0211      0.0048     -0.0000      0.0005      0.0001
         3        -0.0000      0.0000     -0.0000      0.0000      0.0000
         4         0.0000      0.0000     -0.0000      0.0000      0.0000
         5         0.0000     -0.0000     -0.0000      0.0000      0.0000
         6        -0.0000     -0.0000     -0.0000      0.0000      0.0000
         7        -0.2921      0.1174      0.0000      0.0991      0.0328
         8        -0.1174     -0.2921      0.0000      0.0991      0.0328
         9        -0.0000      0.0000     -1.1575      1.3399      0.4444
        10         0.0000     -0.0000     -0.0000      0.0000      0.0000
        11        -0.0000     -0.0000     -0.0000      0.0000      0.0000
        12        -0.0000     -0.0000     -0.0000      0.0000      0.0000
        13        -0.0000     -0.0000     -0.0000      0.0000      0.0000
        14        -0.0000      0.0000      0.0000      0.0000      0.0000
        15        -0.0000      0.0000      0.0000      0.0000      0.0000
        16        -0.0000     -0.0000     -0.0000      0.0000      0.0000
        17         0.0000     -0.0000     -0.8042      0.6468      0.2587
        18        -0.0000     -0.0000      0.0000      0.0000      0.0000
        19        -0.0000     -0.0000      0.0000      0.0000      0.0000
        20        -0.0574      0.5405     -0.0000      0.2954      0.1262
        21         0.5405      0.0574     -0.0000      0.2954      0.1262
        22        -0.0000     -0.0000      0.0000      0.0000      0.0000
        23        -0.0000     -0.0000      0.0000      0.0000      0.0000
        24         0.0000      0.0000     -0.0000      0.0000      0.0000
        25        -0.0000     -0.0000     -0.0000      0.0000      0.0000
        26        -0.0000     -0.0000     -0.0000      0.0000      0.0000
        27        -0.0000     -0.0000      0.0000      0.0000      0.0000
        28        -0.0000     -0.0000      0.0000      0.0000      0.0000
        29        -0.0000     -0.0000      0.1255      0.0157      0.0075
        30         0.1360      0.0102     -0.0000      0.0186      0.0091
        31        -0.0102      0.1360      0.0000      0.0186      0.0091
        32        -0.3822      0.0780     -0.0000      0.1522      0.0752
        33        -0.0780     -0.3822     -0.0000      0.1522      0.0752
        34         0.0000      0.0000      0.0000      0.0000      0.0000
        35        -0.0000      0.0000     -0.0000      0.0000      0.0000
        36         0.0000      0.0000     -0.0000      0.0000      0.0000
        37         0.0000     -0.0000      0.1341      0.0180      0.0091
        38         0.3449      0.0279     -0.0000      0.1198      0.0636
        39        -0.0279      0.3449      0.0000      0.1198      0.0636
        40         0.0000     -0.0000      0.0000      0.0000      0.0000
        41        -0.0000     -0.0000      0.0000      0.0000      0.0000
        42        -0.0000      0.0000      0.0000      0.0000      0.0000
        43         0.0000      0.0000     -0.0000      0.0000      0.0000
        44        -0.0000      0.0000     -0.0000      0.0000      0.0000
        45         0.0000     -0.0000      0.0000      0.0000      0.0000
        46        -0.0000     -0.0000      0.0000      0.0000      0.0000
        47         0.0000     -0.0000     -0.0000      0.0000      0.0000
        48         0.0000      0.0000      0.0000      0.0000      0.0000
        49         0.0000      0.0000      0.0000      0.0000      0.0000
        50         0.0000     -0.0000     -0.0000      0.0000      0.0000
        51         0.0000      0.0000     -0.0000      0.0000      0.0000
        52        -0.0000      0.0000      0.6719      0.4515      0.2988
        53         0.0000     -0.0000     -0.0000      0.0000      0.0000
        54         0.0000     -0.0000      0.0000      0.0000      0.0000
        55        -0.0000     -0.0000     -0.0000      0.0000      0.0000
        56         0.7806     -0.3066      0.0000      0.7033      0.4780
        57        -0.3066     -0.7806     -0.0000      0.7033      0.4780
        58         0.0000      0.0000      0.0000      0.0000      0.0000
        59        -0.0000     -0.0000      0.0000      0.0000      0.0000
        60        -0.0000     -0.0000      1.1537      1.3311      0.9392
        61         0.0004     -0.0003      0.0000      0.0000      0.0000
        62        -0.0003     -0.0004      0.0000      0.0000      0.0000
        63        -0.1654     -0.0716     -0.0000      0.0325      0.0235
        64         0.0716     -0.1654      0.0000      0.0325      0.0235
        65         0.0652      0.7211      0.0000      0.5243      0.3833
        66         0.7211     -0.0652      0.0000      0.5243      0.3833
        67        -0.0000      0.0000      0.0000      0.0000      0.0000
        68         0.0000     -0.0000      0.0000      0.0000      0.0000
        69         0.0000      0.0000     -0.0000      0.0000      0.0000
        70         0.0000     -0.0000      0.0000      0.0000      0.0000
        71         0.0000      0.0000      0.0000      0.0000      0.0000
        72         0.0000     -0.0000      0.0000      0.0000      0.0000
        73        -0.0000     -0.0000      0.0000      0.0000      0.0000
        74        -0.0000     -0.0000     -0.0000      0.0000      0.0000
        75         0.0000      0.0000     -0.0000      0.0000      0.0000
        76         0.0000      0.0000      0.1491      0.0222      0.0176
        77         0.0000     -0.0000     -0.0000      0.0000      0.0000
        78         0.0000     -0.0000     -0.2791      0.0779      0.0625
        79         0.0000      0.0000     -0.0000      0.0000      0.0000
        80         0.0000     -0.0000      0.0000      0.0000      0.0000
        81        -0.0000      0.0000      0.0000      0.0000      0.0000
        82         0.0408      0.6998     -0.0000      0.4914      0.3981
        83         0.6998     -0.0408     -0.0000      0.4914      0.3981
        84        -0.0000     -0.0000     -0.0000      0.0000      0.0000
        85         0.0000      0.0000     -0.0000      0.0000      0.0000
        86        -0.0000     -0.0000      0.0000      0.0000      0.0000
        87         0.0000     -0.0000     -0.0000      0.0000      0.0000
        88         0.0000      0.0000      0.0000      0.0000      0.0000
        89         0.0000      0.0000     -0.0000      0.0000      0.0000
        90        -0.0000     -0.0000      0.2429      0.0590      0.0498
        91        -0.0000      0.0000      0.0000      0.0000      0.0000
        92        -0.0000     -0.0000      0.0000      0.0000      0.0000
        93        -0.0017      0.0300      0.0000      0.0009      0.0008
        94         0.0300      0.0017     -0.0000      0.0009      0.0008
        95        -0.0000      0.0000      0.0054      0.0000      0.0000
        96        -0.0000     -0.0000     -0.0000      0.0000      0.0000
        97        -0.0000     -0.0000     -0.0000      0.0000      0.0000
        98        -0.0000     -0.0000      0.0000      0.0000      0.0000
        99        -0.0324     -0.2650     -0.0000      0.0713      0.0624
       100        -0.2650      0.0324      0.0000      0.0713      0.0624
       101         0.0000     -0.0000      0.2291      0.0525      0.0472
       102        -0.0000     -0.0000     -0.0000      0.0000      0.0000
       103         0.0000      0.0000     -0.0000      0.0000      0.0000
       104         0.0000     -0.0000      0.0000      0.0000      0.0000
       105         0.0000      0.0000      0.0000      0.0000      0.0000
       106         0.0000      0.0000      0.0325      0.0011      0.0010
       107        -0.0000     -0.0000     -0.0000      0.0000      0.0000
       108        -0.0101      0.0021      0.0000      0.0001      0.0001
       109        -0.0021     -0.0101      0.0000      0.0001      0.0001
       110         0.0000     -0.0000      0.0000      0.0000      0.0000
       111         0.0000     -0.0000      0.0000      0.0000      0.0000
       112        -0.0000      0.0000      0.0000      0.0000      0.0000
       113        -0.0000     -0.0000     -0.0000      0.0000      0.0000
       114         0.0000     -0.0000      0.0000      0.0000      0.0000
       115         0.0000     -0.0000      0.0000      0.0000      0.0000
       116         0.0000      0.0000     -0.0000      0.0000      0.0000
       117         0.0000     -0.0000      0.0000      0.0000      0.0000
       118         0.0000      0.0000     -0.0000      0.0000      0.0000
       119         0.0000      0.0000      0.0000      0.0000      0.0000
       120        -0.0000      0.0000      0.0000      0.0000      0.0000
       121        -0.0000      0.0000      0.0000      0.0000      0.0000
       122        -0.0000     -0.0000     -0.0000      0.0000      0.0000
       123        -0.0000     -0.0000     -0.1145      0.0131      0.0152
       124         0.0000      0.0000     -0.0000      0.0000      0.0000
       125        -0.0000     -0.0000     -0.0000      0.0000      0.0000
       126        -0.0000      0.0000      0.0000      0.0000      0.0000
       127         0.1644      0.0074     -0.0000      0.0271      0.0324
       128        -0.0074      0.1644      0.0000      0.0271      0.0324
       129        -0.0000      0.0000     -0.1829      0.0334      0.0401
       130        -0.0000     -0.0000     -0.0000      0.0000      0.0000
       131         0.0000      0.0000     -0.0000      0.0000      0.0000
       132        -0.0000      0.0000      0.0000      0.0000      0.0000
       133        -0.0000      0.0000      0.0000      0.0000      0.0000
       134         0.0000      0.0000     -0.1025      0.0105      0.0129
       135        -0.0861     -0.0525      0.0000      0.0102      0.0125
       136         0.0525     -0.0861     -0.0000      0.0102      0.0125
       137        -0.0000      0.0000      0.0000      0.0000      0.0000
       138         0.1771      0.0021      0.0000      0.0314      0.0409
       139        -0.0021      0.1771      0.0000      0.0314      0.0409
       140         0.3365      0.0024     -0.0000      0.1132      0.1490
       141        -0.0024      0.3365      0.0000      0.1132      0.1490
       142         0.0000      0.0000     -0.0000      0.0000      0.0000
       143        -0.0000     -0.0000      0.0000      0.0000      0.0000
       144        -0.0000     -0.0000     -0.0000      0.0000      0.0000
       145         0.0000      0.0000      0.0000      0.0000      0.0000
       146         0.0000      0.0000     -0.0000      0.0000      0.0000
       147        -0.0000     -0.0000     -0.0000      0.0000      0.0000
       148        -0.0000     -0.0000     -0.0000      0.0000      0.0000
       149         0.0000      0.0000      0.0000      0.0000      0.0000
       150         0.0010     -0.0699     -0.0000      0.0049      0.0066
       151        -0.0699     -0.0010     -0.0000      0.0049      0.0066
       152         0.0000     -0.0000     -0.0852      0.0073      0.0100
       153        -0.0000     -0.0000     -0.0000      0.0000      0.0000
       154        -0.0000     -0.0000     -0.0000      0.0000      0.0000
       155         0.0000      0.0000     -0.0000      0.0000      0.0000
       156         0.0000     -0.0000     -0.0000      0.0000      0.0000
       157         0.0000      0.0000     -0.0000      0.0000      0.0000
       158        -0.0000     -0.0000     -0.0000      0.0000      0.0000
       159        -0.0000      0.0000     -0.0000      0.0000      0.0000
       160         0.0264     -0.0918     -0.0000      0.0091      0.0132
       161        -0.0918     -0.0264     -0.0000      0.0091      0.0132
       162        -0.0000      0.0000     -0.0000      0.0000      0.0000
       163        -0.0000      0.0000      0.0000      0.0000      0.0000
       164        -0.0000      0.0000     -0.1473      0.0217      0.0319
       165         0.0000      0.0000      0.0000      0.0000      0.0000
       166         0.0000     -0.0000      0.0000      0.0000      0.0000
       167        -0.0000      0.0000      0.0000      0.0000      0.0000
       168         0.0000     -0.0000      0.0000      0.0000      0.0000
       169         0.0000      0.0000     -0.1081      0.0117      0.0183
       170        -0.0000     -0.0000      0.0000      0.0000      0.0000
       171         0.0051      0.2169      0.0000      0.0471      0.0792
       172         0.2169     -0.0051     -0.0000      0.0471      0.0792
       173        -0.0035     -0.3571      0.0000      0.1275      0.2183
       174        -0.3571      0.0035     -0.0000      0.1275      0.2183
       175        -0.0000      0.0000     -0.0754      0.0057      0.0099
       176         0.0000      0.0000     -0.0000      0.0000      0.0000
       177        -0.0000      0.0000      0.0000      0.0000      0.0000
       178         0.0000      0.0000     -0.4011      0.1609      0.2901
       179        -0.2612      0.0633     -0.0000      0.0723      0.1312
       180        -0.0633     -0.2612     -0.0000      0.0723      0.1312
       181         0.0000     -0.0000     -0.0000      0.0000      0.0000
       182         0.0000     -0.0000      0.0017      0.0000      0.0000
       183        -0.0000      0.0000     -0.0000      0.0000      0.0000
       184        -0.0000     -0.0000     -0.0000      0.0000      0.0000
       185         0.0000     -0.0000     -0.0000      0.0000      0.0000
       186         0.0000     -0.0000      0.1414      0.0200      0.0402
       187         0.0000     -0.0000     -0.0000      0.0000      0.0000
       188        -0.0000     -0.0000     -0.0000      0.0000      0.0000
       189        -0.0000      0.0000      0.0000      0.0000      0.0000
       190        -0.0000     -0.0000      0.0000      0.0000      0.0000
       191        -0.0746      0.0447     -0.0000      0.0076      0.0167
       192        -0.0447     -0.0746      0.0000      0.0076      0.0167
       193         0.0000     -0.0000     -0.0000      0.0000      0.0000
       194        -0.0000      0.0000      0.0000      0.0000      0.0000
       195         0.0000     -0.0000      0.0000      0.0000      0.0000
       196        -0.0000     -0.0000     -0.0000      0.0000      0.0000
       197         0.0000     -0.0000      0.6239      0.3893      0.8890
       198        -0.0000      0.0000      0.0000      0.0000      0.0000
       199        -0.0000     -0.0000      0.0000      0.0000      0.0000
       200        -0.0000      0.0000      0.0000      0.0000      0.0000
       201         0.0000     -0.0000      0.0733      0.0054      0.0126
       202         0.0000      0.0000      0.0000      0.0000      0.0000
       203         0.0000      0.0000      0.0000      0.0000      0.0000
       204         0.0443      0.0309      0.0000      0.0029      0.0069
       205        -0.0309      0.0443      0.0000      0.0029      0.0069
       206         0.0000      0.0000     -0.0000      0.0000      0.0000
       207        -0.0000      0.0000     -0.0000      0.0000      0.0000
       208        -0.0000      0.0000      0.0000      0.0000      0.0000
       209         0.0000     -0.0000      0.0000      0.0000      0.0000
       210         0.0000     -0.0000     -0.0000      0.0000      0.0000
       211        -0.0455      0.1506     -0.0000      0.0248      0.0607
       212         0.1506      0.0455     -0.0000      0.0248      0.0607
       213        -0.0000      0.0000     -0.0000      0.0000      0.0000
       214        -0.0000     -0.0000      0.0000      0.0000      0.0000
       215         0.0000      0.0000     -0.0000      0.0000      0.0000
       216        -0.0000      0.0000     -0.0000      0.0000      0.0000
       217         0.0000     -0.0000     -0.0000      0.0000      0.0000
       218         0.0000      0.0000      0.0000      0.0000      0.0000
       219         0.0000      0.0000     -0.0000      0.0000      0.0000
       220         0.0000     -0.0000     -0.0000      0.0000      0.0000
       221        -0.0000     -0.0000      0.0000      0.0000      0.0000
       222         0.0000      0.0000      0.0000      0.0000      0.0000
       223        -0.0000      0.0000     -0.0000      0.0000      0.0000
       224        -0.0000     -0.0000      0.0000      0.0000      0.0000
       225        -0.0000      0.0000     -0.0000      0.0000      0.0000
       226         0.0000      0.0000      0.0496      0.0025      0.0063
       227         0.0000      0.0000      0.0000      0.0000      0.0000
       228        -0.0000      0.0000     -0.0000      0.0000      0.0000
       229        -0.0000      0.0000     -0.0000      0.0000      0.0000
       230         0.1242     -0.8692     -0.0000      0.7709      2.0154
       231         0.8692      0.1242     -0.0000      0.7709      2.0154
       232        -0.0000     -0.0000      0.0000      0.0000      0.0000
       233         0.0000     -0.0000      0.4864      0.2366      0.6346
       234         0.0000      0.0000     -0.0000      0.0000      0.0000
       235        -0.0000     -0.0000      0.0000      0.0000      0.0000
       236         0.0000      0.0000     -0.0000      0.0000      0.0000
       237        -0.0000      0.0000      0.0000      0.0000      0.0000
       238        -0.0000      0.0000     -0.0000      0.0000      0.0000
       239        -0.0000      0.0000     -0.0000      0.0000      0.0000
       240        -0.0000      0.0000     -0.0000      0.0000      0.0000
       241         0.0000      0.0000     -0.0000      0.0000      0.0000
       242         0.0000     -0.0000     -0.0000      0.0000      0.0000
       243        -0.0489      0.1543     -0.0000      0.0262      0.0754
       244         0.1543      0.0489      0.0000      0.0262      0.0754
       245        -0.0013     -0.0401     -0.0000      0.0016      0.0048
       246        -0.0401      0.0013      0.0000      0.0016      0.0048
       247        -0.0000     -0.0000     -0.0000      0.0000      0.0000
       248        -0.0000      0.0000     -0.0000      0.0000      0.0000
       249         0.0000      0.0000     -0.0000      0.0000      0.0000
       250        -0.0000      0.0000      0.0000      0.0000      0.0000
       251         0.0000      0.0000     -0.0000      0.0000      0.0000
       252        -0.0000      0.0000      0.0000      0.0000      0.0000
       253        -0.0012     -0.1987     -0.0000      0.0395      0.1268
       254        -0.1987      0.0012      0.0000      0.0395      0.1268
       255        -0.0000     -0.0000      0.0000      0.0000      0.0000
       256        -0.0000      0.0000      0.0000      0.0000      0.0000
       257         0.0000     -0.0000      0.2674      0.0715      0.2398
       258         0.0000      0.0000      0.0000      0.0000      0.0000
       259         0.0000     -0.0000      0.0484      0.0023      0.0090
 Ground to excited state transition velocity dipole moments (Au):
       state          X           Y           Z        Dip. S.      Osc.
         1         0.0035      0.0154     -0.0000      0.0002      0.0009
         2         0.0154     -0.0035     -0.0000      0.0002      0.0009
         3         0.0000      0.0000     -0.0000      0.0000      0.0000
         4         0.0000     -0.0000     -0.0000      0.0000      0.0000
         5        -0.0000      0.0000      0.0000      0.0000      0.0000
         6         0.0000      0.0000      0.0000      0.0000      0.0000
         7         0.1453     -0.0584     -0.0000      0.0245      0.0329
         8         0.0584      0.1453     -0.0000      0.0245      0.0329
         9         0.0000     -0.0000      0.5825      0.3393      0.4546
        10         0.0000      0.0000     -0.0000      0.0000      0.0000
        11         0.0000      0.0000      0.0000      0.0000      0.0000
        12        -0.0000      0.0000      0.0000      0.0000      0.0000
        13         0.0000      0.0000      0.0000      0.0000      0.0000
        14         0.0000      0.0000     -0.0000      0.0000      0.0000
        15         0.0000     -0.0000     -0.0000      0.0000      0.0000
        16        -0.0000      0.0000      0.0000      0.0000      0.0000
        17        -0.0000      0.0000      0.4922      0.2423      0.2692
        18         0.0000      0.0000     -0.0000      0.0000      0.0000
        19         0.0000      0.0000     -0.0000      0.0000      0.0000
        20         0.0381     -0.3585      0.0000      0.1300      0.1353
        21        -0.3585     -0.0381      0.0000      0.1300      0.1353
        22         0.0000      0.0000     -0.0000      0.0000      0.0000
        23         0.0000      0.0000      0.0000      0.0000      0.0000
        24        -0.0000     -0.0000      0.0000      0.0000      0.0000
        25        -0.0000      0.0000      0.0000      0.0000      0.0000
        26        -0.0000      0.0000     -0.0000      0.0000      0.0000
        27         0.0000      0.0000     -0.0000      0.0000      0.0000
        28         0.0000      0.0000     -0.0000      0.0000      0.0000
        29        -0.0000      0.0000     -0.0809      0.0065      0.0061
        30        -0.0891     -0.0067     -0.0000      0.0080      0.0072
        31         0.0067     -0.0891     -0.0000      0.0080      0.0072
        32         0.2710     -0.0553      0.0000      0.0765      0.0688
        33         0.0553      0.2710     -0.0000      0.0765      0.0688
        34        -0.0000     -0.0000      0.0000      0.0000      0.0000
        35         0.0000     -0.0000      0.0000      0.0000      0.0000
        36        -0.0000     -0.0000      0.0000      0.0000      0.0000
        37        -0.0000     -0.0000     -0.1122      0.0126      0.0110
        38        -0.2862     -0.0232     -0.0000      0.0824      0.0690
        39         0.0232     -0.2862      0.0000      0.0824      0.0690
        40        -0.0000      0.0000     -0.0000      0.0000      0.0000
        41         0.0000      0.0000     -0.0000      0.0000      0.0000
        42        -0.0000     -0.0000     -0.0000      0.0000      0.0000
        43         0.0000     -0.0000      0.0000      0.0000      0.0000
        44         0.0000     -0.0000      0.0000      0.0000      0.0000
        45        -0.0000      0.0000     -0.0000      0.0000      0.0000
        46        -0.0000      0.0000     -0.0000      0.0000      0.0000
        47        -0.0000      0.0000      0.0000      0.0000      0.0000
        48         0.0000     -0.0000     -0.0000      0.0000      0.0000
        49         0.0000     -0.0000     -0.0000      0.0000      0.0000
        50        -0.0000      0.0000      0.0000      0.0000      0.0000
        51        -0.0000     -0.0000      0.0000      0.0000      0.0000
        52         0.0000     -0.0000     -0.6568      0.4314      0.2897
        53        -0.0000      0.0000      0.0000      0.0000      0.0000
        54         0.0000      0.0000     -0.0000      0.0000      0.0000
        55         0.0000      0.0000      0.0000      0.0000      0.0000
        56        -0.8065      0.3167     -0.0000      0.7508      0.4910
        57         0.3167      0.8065      0.0000      0.7508      0.4910
        58        -0.0000     -0.0000     -0.0000      0.0000      0.0000
        59         0.0000      0.0000     -0.0000      0.0000      0.0000
        60         0.0000      0.0000     -1.2638      1.5972      1.0060
        61        -0.0004      0.0003     -0.0000      0.0000      0.0000
        62         0.0003      0.0004     -0.0000      0.0000      0.0000
        63         0.1620      0.0701     -0.0000      0.0312      0.0192
        64        -0.0701      0.1620      0.0000      0.0312      0.0192
        65        -0.0729     -0.8063     -0.0000      0.6555      0.3984
        66        -0.8063      0.0729      0.0000      0.6555      0.3984
        67         0.0000     -0.0000     -0.0000      0.0000      0.0000
        68        -0.0000      0.0000      0.0000      0.0000      0.0000
        69        -0.0000     -0.0000      0.0000      0.0000      0.0000
        70        -0.0000      0.0000     -0.0000      0.0000      0.0000
        71        -0.0000     -0.0000     -0.0000      0.0000      0.0000
        72         0.0000      0.0000     -0.0000      0.0000      0.0000
        73         0.0000      0.0000     -0.0000      0.0000      0.0000
        74         0.0000      0.0000      0.0000      0.0000      0.0000
        75        -0.0000     -0.0000      0.0000      0.0000      0.0000
        76        -0.0000     -0.0000     -0.2036      0.0414      0.0233
        77        -0.0000      0.0000      0.0000      0.0000      0.0000
        78        -0.0000      0.0000      0.3242      0.1051      0.0582
        79        -0.0000     -0.0000      0.0000      0.0000      0.0000
        80        -0.0000      0.0000     -0.0000      0.0000      0.0000
        81         0.0000     -0.0000     -0.0000      0.0000      0.0000
        82        -0.0493     -0.8454      0.0000      0.7171      0.3934
        83        -0.8454      0.0493      0.0000      0.7171      0.3934
        84         0.0000      0.0000      0.0000      0.0000      0.0000
        85        -0.0000     -0.0000      0.0000      0.0000      0.0000
        86         0.0000      0.0000     -0.0000      0.0000      0.0000
        87        -0.0000      0.0000      0.0000      0.0000      0.0000
        88        -0.0000     -0.0000     -0.0000      0.0000      0.0000
        89         0.0000     -0.0000     -0.0000      0.0000      0.0000
        90         0.0000      0.0000     -0.3222      0.1038      0.0547
        91         0.0000     -0.0000     -0.0000      0.0000      0.0000
        92         0.0000      0.0000     -0.0000      0.0000      0.0000
        93         0.0025     -0.0452     -0.0000      0.0020      0.0011
        94        -0.0452     -0.0025     -0.0000      0.0020      0.0011
        95        -0.0000      0.0000     -0.0256      0.0007      0.0003
        96         0.0000     -0.0000      0.0000      0.0000      0.0000
        97         0.0000      0.0000      0.0000      0.0000      0.0000
        98         0.0000      0.0000     -0.0000      0.0000      0.0000
        99         0.0426      0.3487      0.0000      0.1234      0.0627
       100         0.3487     -0.0426     -0.0000      0.1234      0.0627
       101        -0.0000      0.0000     -0.3552      0.1262      0.0624
       102         0.0000      0.0000      0.0000      0.0000      0.0000
       103         0.0000     -0.0000      0.0000      0.0000      0.0000
       104        -0.0000      0.0000      0.0000      0.0000      0.0000
       105        -0.0000      0.0000     -0.0000      0.0000      0.0000
       106        -0.0000     -0.0000     -0.0323      0.0010      0.0005
       107         0.0000      0.0000      0.0000      0.0000      0.0000
       108         0.0167     -0.0035      0.0000      0.0003      0.0001
       109         0.0035      0.0167     -0.0000      0.0003      0.0001
       110        -0.0000      0.0000     -0.0000      0.0000      0.0000
       111        -0.0000      0.0000     -0.0000      0.0000      0.0000
       112        -0.0000      0.0000      0.0000      0.0000      0.0000
       113         0.0000      0.0000      0.0000      0.0000      0.0000
       114        -0.0000     -0.0000     -0.0000      0.0000      0.0000
       115        -0.0000      0.0000     -0.0000      0.0000      0.0000
       116        -0.0000     -0.0000     -0.0000      0.0000      0.0000
       117        -0.0000      0.0000      0.0000      0.0000      0.0000
       118         0.0000     -0.0000      0.0000      0.0000      0.0000
       119        -0.0000     -0.0000      0.0000      0.0000      0.0000
       120         0.0000     -0.0000     -0.0000      0.0000      0.0000
       121         0.0000     -0.0000     -0.0000      0.0000      0.0000
       122         0.0000      0.0000     -0.0000      0.0000      0.0000
       123         0.0000      0.0000      0.2078      0.0432      0.0165
       124        -0.0000     -0.0000      0.0000      0.0000      0.0000
       125         0.0000      0.0000      0.0000      0.0000      0.0000
       126         0.0000     -0.0000      0.0000      0.0000      0.0000
       127        -0.3088     -0.0140     -0.0000      0.0956      0.0355
       128         0.0140     -0.3088     -0.0000      0.0956      0.0355
       129         0.0000     -0.0000      0.3190      0.1018      0.0377
       130         0.0000      0.0000     -0.0000      0.0000      0.0000
       131        -0.0000     -0.0000      0.0000      0.0000      0.0000
       132         0.0000     -0.0000     -0.0000      0.0000      0.0000
       133         0.0000     -0.0000     -0.0000      0.0000      0.0000
       134        -0.0000     -0.0000      0.1952      0.0381      0.0138
       135         0.1450      0.0884      0.0000      0.0288      0.0104
       136        -0.0884      0.1450     -0.0000      0.0288      0.0104
       137         0.0000     -0.0000     -0.0000      0.0000      0.0000
       138        -0.3596     -0.0043      0.0000      0.1293      0.0441
       139         0.0043     -0.3596     -0.0000      0.1293      0.0441
       140        -0.6425     -0.0046      0.0000      0.4128      0.1394
       141         0.0046     -0.6425     -0.0000      0.4128      0.1394
       142        -0.0000     -0.0000      0.0000      0.0000      0.0000
       143         0.0000      0.0000     -0.0000      0.0000      0.0000
       144         0.0000      0.0000     -0.0000      0.0000      0.0000
       145        -0.0000     -0.0000      0.0000      0.0000      0.0000
       146        -0.0000     -0.0000      0.0000      0.0000      0.0000
       147         0.0000     -0.0000      0.0000      0.0000      0.0000
       148         0.0000      0.0000      0.0000      0.0000      0.0000
       149        -0.0000     -0.0000     -0.0000      0.0000      0.0000
       150        -0.0021      0.1500      0.0000      0.0225      0.0073
       151         0.1500      0.0021     -0.0000      0.0225      0.0073
       152        -0.0000      0.0000      0.1160      0.0134      0.0044
       153         0.0000      0.0000      0.0000      0.0000      0.0000
       154         0.0000     -0.0000      0.0000      0.0000      0.0000
       155        -0.0000      0.0000      0.0000      0.0000      0.0000
       156        -0.0000      0.0000     -0.0000      0.0000      0.0000
       157        -0.0000     -0.0000      0.0000      0.0000      0.0000
       158         0.0000      0.0000     -0.0000      0.0000      0.0000
       159         0.0000     -0.0000      0.0000      0.0000      0.0000
       160        -0.0571      0.1988      0.0000      0.0428      0.0131
       161         0.1988      0.0571      0.0000      0.0428      0.0131
       162         0.0000     -0.0000      0.0000      0.0000      0.0000
       163         0.0000     -0.0000     -0.0000      0.0000      0.0000
       164         0.0000     -0.0000      0.3712      0.1378      0.0417
       165        -0.0000     -0.0000     -0.0000      0.0000      0.0000
       166         0.0000      0.0000     -0.0000      0.0000      0.0000
       167         0.0000     -0.0000     -0.0000      0.0000      0.0000
       168        -0.0000      0.0000     -0.0000      0.0000      0.0000
       169        -0.0000     -0.0000      0.2368      0.0561      0.0159
       170         0.0000      0.0000     -0.0000      0.0000      0.0000
       171        -0.0134     -0.5765     -0.0000      0.3325      0.0878
       172        -0.5765      0.0134      0.0000      0.3325      0.0878
       173         0.0097      0.9728     -0.0000      0.9465      0.2457
       174         0.9728     -0.0097      0.0000      0.9465      0.2457
       175         0.0000     -0.0000      0.2466      0.0608      0.0155
       176        -0.0000     -0.0000      0.0000      0.0000      0.0000
       177         0.0000     -0.0000     -0.0000      0.0000      0.0000
       178        -0.0000     -0.0000      1.1144      1.2418      0.3061
       179         0.7852     -0.1904     -0.0000      0.6527      0.1598
       180         0.1904      0.7852     -0.0000      0.6527      0.1598
       181        -0.0000      0.0000     -0.0000      0.0000      0.0000
       182        -0.0000      0.0000     -0.0917      0.0084      0.0020
       183        -0.0000     -0.0000     -0.0000      0.0000      0.0000
       184         0.0000      0.0000      0.0000      0.0000      0.0000
       185        -0.0000      0.0000      0.0000      0.0000      0.0000
       186        -0.0000      0.0000     -0.4665      0.2177      0.0481
       187        -0.0000      0.0000     -0.0000      0.0000      0.0000
       188         0.0000      0.0000      0.0000      0.0000      0.0000
       189         0.0000      0.0000     -0.0000      0.0000      0.0000
       190         0.0000      0.0000     -0.0000      0.0000      0.0000
       191         0.1974     -0.1182     -0.0000      0.0530      0.0107
       192         0.1182      0.1974     -0.0000      0.0530      0.0107
       193        -0.0000      0.0000      0.0000      0.0000      0.0000
       194         0.0000     -0.0000     -0.0000      0.0000      0.0000
       195        -0.0000      0.0000     -0.0000      0.0000      0.0000
       196         0.0000      0.0000      0.0000      0.0000      0.0000
       197        -0.0000      0.0000     -1.8152      3.2949      0.6412
       198         0.0000     -0.0000     -0.0000      0.0000      0.0000
       199         0.0000      0.0000     -0.0000      0.0000      0.0000
       200         0.0000     -0.0000     -0.0000      0.0000      0.0000
       201        -0.0000      0.0000     -0.3490      0.1218      0.0231
       202        -0.0000     -0.0000     -0.0000      0.0000      0.0000
       203        -0.0000     -0.0000     -0.0000      0.0000      0.0000
       204        -0.0963     -0.0671     -0.0000      0.0138      0.0026
       205         0.0671     -0.0963     -0.0000      0.0138      0.0026
       206        -0.0000     -0.0000      0.0000      0.0000      0.0000
       207         0.0000     -0.0000      0.0000      0.0000      0.0000
       208         0.0000     -0.0000     -0.0000      0.0000      0.0000
       209        -0.0000      0.0000     -0.0000      0.0000      0.0000
       210        -0.0000      0.0000      0.0000      0.0000      0.0000
       211         0.1547     -0.5120      0.0000      0.2861      0.0518
       212        -0.5120     -0.1547      0.0000      0.2861      0.0518
       213         0.0000     -0.0000      0.0000      0.0000      0.0000
       214         0.0000      0.0000      0.0000      0.0000      0.0000
       215        -0.0000     -0.0000      0.0000      0.0000      0.0000
       216         0.0000     -0.0000      0.0000      0.0000      0.0000
       217        -0.0000      0.0000      0.0000      0.0000      0.0000
       218        -0.0000     -0.0000     -0.0000      0.0000      0.0000
       219        -0.0000     -0.0000      0.0000      0.0000      0.0000
       220        -0.0000      0.0000      0.0000      0.0000      0.0000
       221         0.0000      0.0000     -0.0000      0.0000      0.0000
       222        -0.0000     -0.0000     -0.0000      0.0000      0.0000
       223         0.0000     -0.0000      0.0000      0.0000      0.0000
       224         0.0000      0.0000     -0.0000      0.0000      0.0000
       225         0.0000     -0.0000      0.0000      0.0000      0.0000
       226        -0.0000     -0.0000     -0.1352      0.0183      0.0032
       227        -0.0000     -0.0000     -0.0000      0.0000      0.0000
       228         0.0000     -0.0000      0.0000      0.0000      0.0000
       229         0.0000     -0.0000      0.0000      0.0000      0.0000
       230        -0.4217      2.9501      0.0000      8.8811      1.5097
       231        -2.9501     -0.4217      0.0000      8.8811      1.5097
       232         0.0000      0.0000     -0.0000      0.0000      0.0000
       233        -0.0000      0.0000     -1.8264      3.3357      0.5527
       234        -0.0000     -0.0000     -0.0000      0.0000      0.0000
       235         0.0000      0.0000     -0.0000      0.0000      0.0000
       236        -0.0000     -0.0000      0.0000      0.0000      0.0000
       237         0.0000     -0.0000     -0.0000      0.0000      0.0000
       238         0.0000     -0.0000      0.0000      0.0000      0.0000
       239         0.0000     -0.0000      0.0000      0.0000      0.0000
       240         0.0000     -0.0000      0.0000      0.0000      0.0000
       241        -0.0000     -0.0000      0.0000      0.0000      0.0000
       242        -0.0000      0.0000      0.0000      0.0000      0.0000
       243         0.1755     -0.5544      0.0000      0.3382      0.0522
       244        -0.5544     -0.1755      0.0000      0.3382      0.0522
       245         0.0048      0.1552      0.0000      0.0241      0.0036
       246         0.1552     -0.0048      0.0000      0.0241      0.0036
       247         0.0000      0.0000      0.0000      0.0000      0.0000
       248        -0.0000     -0.0000      0.0000      0.0000      0.0000
       249        -0.0000     -0.0000      0.0000      0.0000      0.0000
       250         0.0000     -0.0000     -0.0000      0.0000      0.0000
       251         0.0000     -0.0000     -0.0000      0.0000      0.0000
       252         0.0000     -0.0000     -0.0000      0.0000      0.0000
       253         0.0051      0.8333      0.0000      0.6944      0.0962
       254         0.8333     -0.0051     -0.0000      0.6944      0.0962
       255         0.0000      0.0000     -0.0000      0.0000      0.0000
       256         0.0000     -0.0000     -0.0000      0.0000      0.0000
       257        -0.0000      0.0000     -1.3932      1.9410      0.2571
       258        -0.0000     -0.0000     -0.0000      0.0000      0.0000
       259        -0.0000      0.0000     -0.4065      0.1653      0.0192
 Ground to excited state transition magnetic dipole moments (Au):
       state          X           Y           Z
         1         0.0000      0.0000      0.0000
         2         0.0000     -0.0000     -0.0000
         3         0.2669     -0.9817     -0.0000
         4         0.9817      0.2669     -0.0000
         5        -0.4029     -0.5166     -0.0000
         6         0.5166     -0.4029      0.0000
         7        -0.0000     -0.0000     -0.0000
         8        -0.0000      0.0000      0.0000
         9        -0.0000     -0.0000     -0.0000
        10         0.0000     -0.0000     -0.0000
        11        -0.0000     -0.0000      0.0000
        12         0.0000     -0.0000     -0.0000
        13        -0.0456      0.4897      0.0000
        14        -0.4897     -0.0456      0.0000
        15         0.0000     -0.0000      0.0000
        16         0.0000     -0.0000     -0.0000
        17        -0.0000     -0.0000      0.0000
        18         0.0000     -0.0000      0.0000
        19        -0.0000      0.0000     -0.0000
        20        -0.0000      0.0000     -0.0000
        21        -0.0000      0.0000     -0.0000
[...]
     10   0.000000D+00  0.000000D+00  0.000000D+00  0.000000D+00  0.000000D+00
     11   0.000000D+00 -0.999605D+00  0.000000D+00  0.000000D+00  0.121483D+01
     12   0.000000D+00 -0.999605D+00  0.000000D+00  0.000000D+00  0.121483D+01
     13   0.000000D+00  0.581653D+00  0.000000D+00  0.000000D+00 -0.176724D+01
     14   0.000000D+00  0.000000D+00  0.000000D+00  0.000000D+00  0.000000D+00
     15   0.000000D+00  0.000000D+00  0.302590D+00 -0.140244D+00  0.000000D+00
     16   0.000000D+00  0.000000D+00  0.140244D+00  0.302590D+00  0.000000D+00
               191           192           193           194           195 
      1  -0.195998D+03 -0.195998D+03 -0.195988D+03 -0.195988D+03 -0.195984D+03
      2  -0.745993D-01 -0.446679D-01  0.000000D+00  0.000000D+00  0.000000D+00
      3   0.446679D-01 -0.745993D-01  0.000000D+00  0.000000D+00  0.000000D+00
      4   0.000000D+00  0.000000D+00  0.000000D+00  0.000000D+00  0.000000D+00
      5   0.197441D+00  0.118222D+00  0.000000D+00  0.000000D+00  0.000000D+00
      6  -0.118222D+00  0.197441D+00  0.000000D+00  0.000000D+00  0.000000D+00
      7   0.000000D+00  0.000000D+00  0.000000D+00  0.000000D+00  0.000000D+00
      8   0.000000D+00  0.000000D+00  0.000000D+00  0.000000D+00  0.000000D+00
      9   0.000000D+00  0.000000D+00  0.000000D+00  0.000000D+00  0.000000D+00
     10   0.000000D+00  0.000000D+00  0.000000D+00  0.000000D+00  0.000000D+00
     11   0.000000D+00  0.000000D+00  0.000000D+00  0.000000D+00  0.000000D+00
     12   0.000000D+00  0.000000D+00  0.000000D+00  0.000000D+00  0.000000D+00
     13   0.000000D+00  0.000000D+00  0.000000D+00  0.000000D+00  0.000000D+00
     14   0.000000D+00  0.000000D+00  0.000000D+00  0.000000D+00  0.000000D+00
     15   0.000000D+00  0.000000D+00  0.000000D+00  0.000000D+00  0.000000D+00
     16   0.000000D+00  0.000000D+00  0.000000D+00  0.000000D+00  0.000000D+00
               196           197           198           199           200 
      1  -0.195931D+03 -0.195876D+03 -0.195848D+03 -0.195848D+03 -0.195843D+03
      2   0.000000D+00  0.000000D+00  0.000000D+00  0.000000D+00  0.000000D+00
      3   0.000000D+00  0.000000D+00  0.000000D+00  0.000000D+00  0.000000D+00
      4   0.000000D+00  0.623901D+00  0.000000D+00  0.000000D+00  0.000000D+00
      5   0.000000D+00  0.000000D+00  0.000000D+00  0.000000D+00  0.000000D+00
      6   0.000000D+00  0.000000D+00  0.000000D+00  0.000000D+00  0.000000D+00
      7   0.000000D+00 -0.181520D+01  0.000000D+00  0.000000D+00  0.000000D+00
      8   0.000000D+00  0.000000D+00  0.000000D+00  0.000000D+00  0.000000D+00
      9   0.000000D+00  0.000000D+00  0.000000D+00  0.000000D+00  0.000000D+00
     10   0.000000D+00  0.000000D+00  0.000000D+00  0.000000D+00  0.000000D+00
     11   0.176986D-01  0.000000D+00 -0.120422D+00  0.000000D+00  0.000000D+00
     12   0.176986D-01  0.000000D+00  0.120422D+00  0.000000D+00  0.000000D+00
     13  -0.114941D+01  0.000000D+00  0.000000D+00  0.000000D+00  0.000000D+00
     14   0.000000D+00  0.000000D+00  0.000000D+00 -0.120420D+00  0.000000D+00
     15   0.000000D+00  0.000000D+00  0.000000D+00  0.000000D+00  0.000000D+00
     16   0.000000D+00  0.000000D+00  0.000000D+00  0.000000D+00  0.000000D+00
               201           202           203           204           205 
      1  -0.195793D+03 -0.195784D+03 -0.195784D+03 -0.195773D+03 -0.195773D+03
      2   0.000000D+00  0.000000D+00  0.000000D+00  0.443150D-01 -0.309036D-01
      3   0.000000D+00  0.000000D+00  0.000000D+00  0.309036D-01  0.443150D-01
      4   0.733371D-01  0.000000D+00  0.000000D+00  0.000000D+00  0.000000D+00
      5   0.000000D+00  0.000000D+00  0.000000D+00 -0.962576D-01  0.671264D-01
      6   0.000000D+00  0.000000D+00  0.000000D+00 -0.671264D-01 -0.962576D-01
      7  -0.348974D+00  0.000000D+00  0.000000D+00  0.000000D+00  0.000000D+00
      8   0.000000D+00  0.266253D-04  0.203146D-04  0.000000D+00  0.000000D+00
      9   0.000000D+00  0.203146D-04 -0.266253D-04  0.000000D+00  0.000000D+00
     10   0.000000D+00  0.000000D+00  0.000000D+00  0.000000D+00  0.000000D+00
     11   0.000000D+00  0.000000D+00  0.000000D+00  0.000000D+00  0.000000D+00
     12   0.000000D+00  0.000000D+00  0.000000D+00  0.000000D+00  0.000000D+00
     13   0.000000D+00  0.000000D+00  0.000000D+00  0.000000D+00  0.000000D+00
     14   0.000000D+00  0.000000D+00  0.000000D+00  0.000000D+00  0.000000D+00
     15   0.000000D+00  0.184121D-04 -0.241317D-04  0.000000D+00  0.000000D+00
     16   0.000000D+00 -0.241317D-04 -0.184121D-04  0.000000D+00  0.000000D+00
               206           207           208           209           210 
      1  -0.195735D+03 -0.195735D+03 -0.195696D+03 -0.195677D+03 -0.195677D+03
      2   0.000000D+00 -0.518293D-05  0.000000D+00  0.000000D+00  0.000000D+00
      3   0.518293D-05  0.000000D+00  0.000000D+00  0.000000D+00  0.000000D+00
      4   0.000000D+00  0.000000D+00  0.000000D+00  0.000000D+00  0.000000D+00
      5   0.000000D+00  0.166681D-04  0.000000D+00  0.000000D+00  0.000000D+00
      6  -0.166681D-04  0.000000D+00  0.000000D+00  0.000000D+00  0.000000D+00
      7   0.000000D+00  0.000000D+00  0.000000D+00  0.000000D+00  0.000000D+00
      8   0.000000D+00  0.000000D+00  0.000000D+00 -0.721107D+00 -0.155831D+01
      9   0.000000D+00  0.000000D+00  0.000000D+00 -0.155831D+01  0.721107D+00
     10   0.000000D+00  0.000000D+00  0.000000D+00  0.000000D+00  0.000000D+00
     11   0.000000D+00  0.000000D+00 -0.432007D+00  0.000000D+00  0.000000D+00
     12   0.000000D+00  0.000000D+00 -0.432007D+00  0.000000D+00  0.000000D+00
     13   0.000000D+00  0.000000D+00 -0.325295D+01  0.000000D+00  0.000000D+00
     14   0.000000D+00  0.000000D+00  0.000000D+00  0.000000D+00  0.000000D+00
     15   0.000000D+00  0.000000D+00  0.000000D+00 -0.139356D+01  0.644869D+00
     16   0.000000D+00  0.000000D+00  0.000000D+00  0.644869D+00  0.139356D+01
               211           212           213           214           215 
      1  -0.195621D+03 -0.195621D+03 -0.195605D+03 -0.195605D+03 -0.195569D+03
      2  -0.455129D-01  0.150603D+00 -0.123549D-04 -0.137164D-04  0.000000D+00
      3   0.150603D+00  0.455129D-01  0.137164D-04 -0.123549D-04  0.000000D+00
      4   0.000000D+00  0.000000D+00  0.000000D+00  0.000000D+00  0.000000D+00
      5   0.154720D+00 -0.511971D+00  0.417579D-04  0.463594D-04  0.000000D+00
      6  -0.511971D+00 -0.154720D+00 -0.463594D-04  0.417579D-04  0.000000D+00
      7   0.000000D+00  0.000000D+00  0.000000D+00  0.000000D+00  0.000000D+00
      8   0.000000D+00  0.000000D+00  0.000000D+00  0.000000D+00  0.000000D+00
      9   0.000000D+00  0.000000D+00  0.000000D+00  0.000000D+00  0.000000D+00
     10   0.000000D+00  0.000000D+00  0.000000D+00  0.000000D+00  0.000000D+00
     11   0.000000D+00  0.000000D+00  0.000000D+00  0.000000D+00  0.000000D+00
     12   0.000000D+00  0.000000D+00  0.000000D+00  0.000000D+00  0.000000D+00
     13   0.000000D+00  0.000000D+00  0.000000D+00  0.000000D+00  0.000000D+00
     14   0.000000D+00  0.000000D+00  0.000000D+00  0.000000D+00 -0.208233D+00
     15   0.000000D+00  0.000000D+00  0.000000D+00  0.000000D+00  0.000000D+00
     16   0.000000D+00  0.000000D+00  0.000000D+00  0.000000D+00  0.000000D+00
               216           217           218           219           220 
      1  -0.195569D+03 -0.195556D+03 -0.195556D+03 -0.195525D+03 -0.195525D+03
      2   0.000000D+00  0.000000D+00  0.000000D+00  0.000000D+00  0.000000D+00
      3   0.000000D+00  0.000000D+00  0.000000D+00  0.000000D+00  0.000000D+00
      4   0.000000D+00  0.000000D+00  0.000000D+00  0.000000D+00  0.000000D+00
      5   0.000000D+00  0.000000D+00  0.000000D+00  0.000000D+00  0.000000D+00
      6   0.000000D+00  0.000000D+00  0.000000D+00  0.000000D+00  0.000000D+00
      7   0.000000D+00  0.000000D+00  0.000000D+00  0.000000D+00  0.000000D+00
      8   0.000000D+00  0.382819D-04 -0.254694D-04  0.000000D+00  0.000000D+00
      9   0.000000D+00 -0.254694D-04 -0.382819D-04  0.000000D+00  0.000000D+00
     10   0.000000D+00  0.000000D+00  0.000000D+00  0.000000D+00  0.000000D+00
     11  -0.208233D+00  0.000000D+00  0.000000D+00 -0.134499D+00  0.000000D+00
     12   0.208233D+00  0.000000D+00  0.000000D+00  0.134499D+00  0.000000D+00
     13   0.000000D+00  0.000000D+00  0.000000D+00  0.000000D+00  0.000000D+00
     14   0.000000D+00  0.000000D+00  0.000000D+00  0.000000D+00  0.134499D+00
     15   0.000000D+00 -0.224493D-04 -0.337425D-04  0.000000D+00  0.000000D+00
     16   0.000000D+00 -0.337425D-04  0.224493D-04  0.000000D+00  0.000000D+00
               221           222           223           224           225 
      1  -0.195523D+03 -0.195509D+03 -0.195509D+03 -0.195480D+03 -0.195480D+03
      2   0.000000D+00  0.000000D+00  0.000000D+00  0.000000D+00  0.000000D+00
      3   0.000000D+00  0.000000D+00  0.000000D+00  0.000000D+00  0.000000D+00
      4   0.000000D+00  0.000000D+00  0.000000D+00  0.000000D+00  0.000000D+00
      5   0.000000D+00  0.000000D+00  0.000000D+00  0.000000D+00  0.000000D+00
      6   0.000000D+00  0.000000D+00  0.000000D+00  0.000000D+00  0.000000D+00
      7   0.000000D+00  0.000000D+00  0.000000D+00  0.000000D+00  0.000000D+00
      8   0.000000D+00  0.000000D+00  0.000000D+00  0.107597D+01 -0.142750D+01
      9   0.000000D+00  0.000000D+00  0.000000D+00 -0.142750D+01 -0.107597D+01
     10   0.000000D+00  0.000000D+00  0.000000D+00  0.000000D+00  0.000000D+00
     11   0.000000D+00  0.000000D+00  0.000000D+00  0.000000D+00  0.000000D+00
     12   0.000000D+00  0.000000D+00  0.000000D+00  0.000000D+00  0.000000D+00
     13   0.000000D+00  0.000000D+00  0.000000D+00  0.000000D+00  0.000000D+00
     14   0.000000D+00  0.000000D+00  0.000000D+00  0.000000D+00  0.000000D+00
     15   0.000000D+00  0.000000D+00  0.000000D+00 -0.119981D+01 -0.904354D+00
     16   0.000000D+00  0.000000D+00  0.000000D+00 -0.904354D+00  0.119981D+01
               226           227           228           229           230 
      1  -0.195441D+03 -0.195385D+03 -0.195385D+03 -0.195382D+03 -0.195380D+03
      2   0.000000D+00  0.000000D+00  0.000000D+00  0.000000D+00  0.124241D+00
      3   0.000000D+00  0.000000D+00  0.000000D+00  0.000000D+00 -0.869154D+00
      4   0.496014D-01  0.000000D+00  0.000000D+00  0.000000D+00  0.000000D+00
      5   0.000000D+00  0.000000D+00  0.000000D+00  0.000000D+00 -0.421707D+00
      6   0.000000D+00  0.000000D+00  0.000000D+00  0.000000D+00  0.295013D+01
      7  -0.135154D+00  0.000000D+00  0.000000D+00  0.000000D+00  0.000000D+00
      8   0.000000D+00  0.000000D+00  0.000000D+00  0.000000D+00  0.000000D+00
      9   0.000000D+00  0.000000D+00  0.000000D+00  0.000000D+00  0.000000D+00
     10   0.000000D+00  0.000000D+00  0.000000D+00  0.000000D+00  0.000000D+00
     11   0.000000D+00  0.000000D+00  0.000000D+00  0.000000D+00  0.000000D+00
     12   0.000000D+00  0.000000D+00  0.000000D+00  0.000000D+00  0.000000D+00
     13   0.000000D+00  0.000000D+00  0.000000D+00  0.000000D+00  0.000000D+00
     14   0.000000D+00  0.000000D+00  0.000000D+00  0.000000D+00  0.000000D+00
     15   0.000000D+00  0.000000D+00  0.000000D+00  0.000000D+00  0.000000D+00
     16   0.000000D+00  0.000000D+00  0.000000D+00  0.000000D+00  0.000000D+00
               231           232           233           234           235 
      1  -0.195380D+03 -0.195331D+03 -0.195278D+03 -0.195269D+03 -0.195269D+03
      2   0.869154D+00  0.000000D+00  0.000000D+00  0.000000D+00  0.000000D+00
      3   0.124241D+00  0.000000D+00  0.000000D+00  0.000000D+00  0.000000D+00
      4   0.000000D+00  0.000000D+00  0.486386D+00  0.000000D+00  0.000000D+00
      5  -0.295013D+01  0.000000D+00  0.000000D+00  0.000000D+00  0.000000D+00
      6  -0.421707D+00  0.000000D+00  0.000000D+00  0.000000D+00  0.000000D+00
      7   0.000000D+00  0.000000D+00 -0.182638D+01  0.000000D+00  0.000000D+00
      8   0.000000D+00  0.000000D+00  0.000000D+00 -0.711282D-01 -0.123643D+00
      9   0.000000D+00  0.000000D+00  0.000000D+00  0.123643D+00 -0.711282D-01
     10   0.000000D+00  0.000000D+00  0.000000D+00  0.000000D+00  0.000000D+00
     11   0.000000D+00  0.244428D+00  0.000000D+00  0.000000D+00  0.000000D+00
     12   0.000000D+00  0.244428D+00  0.000000D+00  0.000000D+00  0.000000D+00
     13   0.000000D+00 -0.742506D+01  0.000000D+00  0.000000D+00  0.000000D+00
     14   0.000000D+00  0.000000D+00  0.000000D+00  0.000000D+00  0.000000D+00
     15   0.000000D+00  0.000000D+00  0.000000D+00  0.831898D+00 -0.478565D+00
     16   0.000000D+00  0.000000D+00  0.000000D+00  0.478565D+00  0.831898D+00
               236           237           238           239           240 
      1  -0.195221D+03 -0.195221D+03 -0.195143D+03 -0.195054D+03 -0.195054D+03
      2   0.000000D+00  0.000000D+00  0.000000D+00  0.000000D+00  0.000000D+00
      3   0.000000D+00  0.000000D+00  0.000000D+00  0.000000D+00  0.000000D+00
      4   0.000000D+00  0.000000D+00  0.000000D+00  0.000000D+00  0.000000D+00
      5   0.000000D+00  0.000000D+00  0.000000D+00  0.000000D+00  0.000000D+00
      6   0.000000D+00  0.000000D+00  0.000000D+00  0.000000D+00  0.000000D+00
      7   0.000000D+00  0.000000D+00  0.000000D+00  0.000000D+00  0.000000D+00
      8  -0.112447D+01  0.266989D+01  0.000000D+00  0.000000D+00  0.000000D+00
      9  -0.266989D+01 -0.112447D+01  0.000000D+00  0.000000D+00  0.000000D+00
     10   0.000000D+00  0.000000D+00  0.000000D+00  0.000000D+00  0.000000D+00
     11   0.000000D+00  0.000000D+00 -0.429643D+00  0.000000D+00  0.000000D+00
     12   0.000000D+00  0.000000D+00 -0.429643D+00  0.000000D+00  0.000000D+00
     13   0.000000D+00  0.000000D+00 -0.190938D+01  0.000000D+00  0.000000D+00
     14   0.000000D+00  0.000000D+00  0.000000D+00  0.000000D+00  0.000000D+00
     15  -0.318282D+01 -0.134049D+01  0.000000D+00  0.000000D+00  0.000000D+00
     16   0.134049D+01 -0.318282D+01  0.000000D+00  0.000000D+00  0.000000D+00
               241           242           243           244           245 
      1  -0.194991D+03 -0.194991D+03 -0.194984D+03 -0.194984D+03 -0.194813D+03
      2   0.000000D+00  0.000000D+00 -0.488619D-01  0.154323D+00 -0.125403D-02
      3   0.000000D+00  0.000000D+00  0.154323D+00  0.488619D-01 -0.401307D-01
      4   0.000000D+00  0.000000D+00  0.000000D+00  0.000000D+00  0.000000D+00
      5   0.000000D+00  0.000000D+00  0.175542D+00 -0.554424D+00  0.484929D-02
      6   0.000000D+00  0.000000D+00 -0.554424D+00 -0.175542D+00  0.155184D+00
      7   0.000000D+00  0.000000D+00  0.000000D+00  0.000000D+00  0.000000D+00
      8   0.000000D+00  0.000000D+00  0.000000D+00  0.000000D+00  0.000000D+00
      9   0.000000D+00  0.000000D+00  0.000000D+00  0.000000D+00  0.000000D+00
     10   0.000000D+00  0.000000D+00  0.000000D+00  0.000000D+00  0.000000D+00
     11   0.000000D+00  0.909462D+00  0.000000D+00  0.000000D+00  0.000000D+00
     12   0.000000D+00 -0.909462D+00  0.000000D+00  0.000000D+00  0.000000D+00
     13   0.000000D+00  0.000000D+00  0.000000D+00  0.000000D+00  0.000000D+00
     14   0.909462D+00  0.000000D+00  0.000000D+00  0.000000D+00  0.000000D+00
     15   0.000000D+00  0.000000D+00  0.000000D+00  0.000000D+00  0.000000D+00
     16   0.000000D+00  0.000000D+00  0.000000D+00  0.000000D+00  0.000000D+00
               246           247           248           249           250 
      1  -0.194813D+03 -0.194789D+03 -0.194789D+03 -0.194731D+03 -0.194731D+03
      2  -0.401307D-01  0.000000D+00  0.000000D+00  0.000000D+00  0.000000D+00
      3   0.125403D-02  0.000000D+00  0.000000D+00  0.000000D+00  0.000000D+00
      4   0.000000D+00  0.000000D+00  0.000000D+00  0.000000D+00  0.000000D+00
      5   0.155184D+00  0.000000D+00  0.000000D+00  0.000000D+00  0.000000D+00
      6  -0.484929D-02  0.000000D+00  0.000000D+00  0.000000D+00  0.000000D+00
      7   0.000000D+00  0.000000D+00  0.000000D+00  0.000000D+00  0.000000D+00
      8   0.000000D+00  0.000000D+00  0.000000D+00  0.000000D+00  0.000000D+00
      9   0.000000D+00  0.000000D+00  0.000000D+00  0.000000D+00  0.000000D+00
     10   0.000000D+00  0.000000D+00  0.000000D+00  0.000000D+00  0.000000D+00
     11   0.000000D+00  0.000000D+00  0.757294D+00  0.000000D+00  0.000000D+00
     12   0.000000D+00  0.000000D+00 -0.757294D+00  0.000000D+00  0.000000D+00
     13   0.000000D+00  0.000000D+00  0.000000D+00  0.000000D+00  0.000000D+00
     14   0.000000D+00  0.757293D+00  0.000000D+00  0.000000D+00  0.000000D+00
     15   0.000000D+00  0.000000D+00  0.000000D+00  0.000000D+00  0.000000D+00
     16   0.000000D+00  0.000000D+00  0.000000D+00  0.000000D+00  0.000000D+00
               251           252           253           254           255 
      1  -0.194554D+03 -0.194554D+03 -0.194488D+03 -0.194488D+03 -0.194353D+03
      2   0.000000D+00  0.000000D+00 -0.122567D-02 -0.198749D+00  0.000000D+00
      3   0.000000D+00  0.000000D+00 -0.198749D+00  0.122567D-02  0.000000D+00
      4   0.000000D+00  0.000000D+00  0.000000D+00  0.000000D+00  0.000000D+00
      5   0.000000D+00  0.000000D+00  0.513899D-02  0.833315D+00  0.000000D+00
      6   0.000000D+00  0.000000D+00  0.833315D+00 -0.513899D-02  0.000000D+00
      7   0.000000D+00  0.000000D+00  0.000000D+00  0.000000D+00  0.000000D+00
      8   0.320429D+00 -0.142581D+00  0.000000D+00  0.000000D+00  0.568623D-01
      9  -0.142581D+00 -0.320429D+00  0.000000D+00  0.000000D+00  0.875827D+00
     10   0.000000D+00  0.000000D+00  0.000000D+00  0.000000D+00  0.000000D+00
     11   0.000000D+00  0.000000D+00  0.000000D+00  0.000000D+00  0.000000D+00
     12   0.000000D+00  0.000000D+00  0.000000D+00  0.000000D+00  0.000000D+00
     13   0.000000D+00  0.000000D+00  0.000000D+00  0.000000D+00  0.000000D+00
     14   0.000000D+00  0.000000D+00  0.000000D+00  0.000000D+00  0.000000D+00
     15   0.944235D-01  0.212201D+00  0.000000D+00  0.000000D+00  0.120276D+01
     16   0.212201D+00 -0.944235D-01  0.000000D+00  0.000000D+00 -0.780879D-01
               256           257           258           259 
      1  -0.194353D+03 -0.194269D+03 -0.193806D+03 -0.193551D+03
      2   0.000000D+00  0.000000D+00  0.000000D+00  0.000000D+00
      3   0.000000D+00  0.000000D+00  0.000000D+00  0.000000D+00
      4   0.000000D+00  0.267366D+00  0.000000D+00  0.483620D-01
      5   0.000000D+00  0.000000D+00  0.000000D+00  0.000000D+00
      6   0.000000D+00  0.000000D+00  0.000000D+00  0.000000D+00
      7   0.000000D+00 -0.139321D+01  0.000000D+00 -0.406522D+00
      8  -0.875827D+00  0.000000D+00  0.000000D+00  0.000000D+00
      9   0.568623D-01  0.000000D+00  0.000000D+00  0.000000D+00
     10   0.000000D+00  0.000000D+00  0.000000D+00  0.000000D+00
     11   0.000000D+00  0.000000D+00 -0.142882D+00  0.000000D+00
     12   0.000000D+00  0.000000D+00 -0.142882D+00  0.000000D+00
     13   0.000000D+00  0.000000D+00  0.626821D+00  0.000000D+00
     14   0.000000D+00  0.000000D+00  0.000000D+00  0.000000D+00
     15   0.780879D-01  0.000000D+00  0.000000D+00  0.000000D+00
     16   0.120276D+01  0.000000D+00  0.000000D+00  0.000000D+00
 Unable to Open any file for archive entry.
 1\1\GINC-HEL01\SP\RwB97XD TD-FC\Gen\F2\RR\12-Feb-2022\0\\#P TD(Nstates
 =10000) wB97XD/Gen SCF(maxcycles=100) Int(Grid=ultrafine)\\xGDB7_00001
 _tier4.com\\0,1\F,0,0.,0.,0.688459\F,0,0.,0.,-0.688459\\Version=EM64L-
 G16RevC.01\State=1-SGG\HF=-199.3017262\RMSD=2.591e-09\PG=D*H [C*(F1.F1
 )]\\@
 The archive entry for this job was punched.


 IT IS THE BEHAVIOR AND DISTRIBUTION OF THE ELECTRONS 
 AROUND THE NUCLEUS THAT GIVES THE FUNDAMENTAL 
 CHARACTER OF AN ATOM:  IT MUST BE THE SAME FOR MOLECULES.

                               -- C. A. COULSON, 1951
 Job cpu time:       0 days  0 hours  0 minutes 24.2 seconds.
 Elapsed time:       0 days  0 hours  0 minutes  3.3 seconds.
 File lengths (MBytes):  RWF=     87 Int=      0 D2E=      0 Chk=     16 Scr=      1
 Normal termination of Gaussian 16 at Sat Feb 12 22:25:07 2022.
