 Entering Gaussian System, Link 0=g16
 Input=bigQM7w_TDwB97XD_def2SVPD_000028.com
 Output=bigQM7w_TDwB97XD_def2SVPD_000028.log
 Initial command:
 /home/rr/g16/l1.exe "/scratch/rr/PBS_7839473.helios/Gau-139799.inp" -scrdir="/scratch/rr/PBS_7839473.helios/"
 Entering Link 1 = /home/rr/g16/l1.exe PID=    139803.
  
 Copyright (c) 1988-2019, Gaussian, Inc.  All Rights Reserved.
  
 This is part of the Gaussian(R) 16 program.  It is based on
 the Gaussian(R) 09 system (copyright 2009, Gaussian, Inc.),
 the Gaussian(R) 03 system (copyright 2003, Gaussian, Inc.),
 the Gaussian(R) 98 system (copyright 1998, Gaussian, Inc.),
 the Gaussian(R) 94 system (copyright 1995, Gaussian, Inc.),
 the Gaussian 92(TM) system (copyright 1992, Gaussian, Inc.),
 the Gaussian 90(TM) system (copyright 1990, Gaussian, Inc.),
 the Gaussian 88(TM) system (copyright 1988, Gaussian, Inc.),
 the Gaussian 86(TM) system (copyright 1986, Carnegie Mellon
 University), and the Gaussian 82(TM) system (copyright 1983,
 Carnegie Mellon University). Gaussian is a federally registered
 trademark of Gaussian, Inc.
  
 This software contains proprietary and confidential information,
 including trade secrets, belonging to Gaussian, Inc.
  
 This software is provided under written license and may be
 used, copied, transmitted, or stored only in accord with that
 written license.
  
 The following legend is applicable only to US Government
 contracts under FAR:
  
                    RESTRICTED RIGHTS LEGEND
  
 Use, reproduction and disclosure by the US Government is
 subject to restrictions as set forth in subparagraphs (a)
 and (c) of the Commercial Computer Software - Restricted
 Rights clause in FAR 52.227-19.
  
 Gaussian, Inc.
 340 Quinnipiac St., Bldg. 40, Wallingford CT 06492
  
  
 ---------------------------------------------------------------
 Warning -- This program may not be used in any manner that
 competes with the business of Gaussian, Inc. or will provide
 assistance to any competitor of Gaussian, Inc.  The licensee
 of this program is prohibited from giving any competitor of
 Gaussian, Inc. access to this program.  By using this program,
 the user acknowledges that Gaussian, Inc. is engaged in the
 business of creating and licensing software in the field of
 computational chemistry and represents and warrants to the
 licensee that it is not a competitor of Gaussian, Inc. and that
 it will not use this program in any manner prohibited above.
 ---------------------------------------------------------------
  

 Cite this work as:
 Gaussian 16, Revision C.01,
 M. J. Frisch, G. W. Trucks, H. B. Schlegel, G. E. Scuseria, 
 M. A. Robb, J. R. Cheeseman, G. Scalmani, V. Barone, 
 G. A. Petersson, H. Nakatsuji, X. Li, M. Caricato, A. V. Marenich, 
 J. Bloino, B. G. Janesko, R. Gomperts, B. Mennucci, H. P. Hratchian, 
 J. V. Ortiz, A. F. Izmaylov, J. L. Sonnenberg, D. Williams-Young, 
 F. Ding, F. Lipparini, F. Egidi, J. Goings, B. Peng, A. Petrone, 
 T. Henderson, D. Ranasinghe, V. G. Zakrzewski, J. Gao, N. Rega, 
 G. Zheng, W. Liang, M. Hada, M. Ehara, K. Toyota, R. Fukuda, 
 J. Hasegawa, M. Ishida, T. Nakajima, Y. Honda, O. Kitao, H. Nakai, 
 T. Vreven, K. Throssell, J. A. Montgomery, Jr., J. E. Peralta, 
 F. Ogliaro, M. J. Bearpark, J. J. Heyd, E. N. Brothers, K. N. Kudin, 
 V. N. Staroverov, T. A. Keith, R. Kobayashi, J. Normand, 
 K. Raghavachari, A. P. Rendell, J. C. Burant, S. S. Iyengar, 
 J. Tomasi, M. Cossi, J. M. Millam, M. Klene, C. Adamo, R. Cammi, 
 J. W. Ochterski, R. L. Martin, K. Morokuma, O. Farkas, 
 J. B. Foresman, and D. J. Fox, Gaussian, Inc., Wallingford CT, 2019.
 
 ******************************************
 Gaussian 16:  EM64L-G16RevC.01  3-Jul-2019
                12-Feb-2022 
 ******************************************
 %mem=64gb
 %nproc=8
 Will use up to    8 processors via shared memory.
 ----------------------------------------------------------------------
 #P TD(Nstates=10000) wB97XD/Gen SCF(maxcycles=100) Int(Grid=ultrafine)
 ----------------------------------------------------------------------
 1/38=1,172=1/1;
 2/12=2,17=6,18=5,40=1/2;
 3/5=7,11=9,25=1,30=1,74=-58,75=-5/1,2,3,8;
 4//1;
 5/5=2,7=100,38=5/2;
 8/6=1,10=1,108=10000/1;
 9/41=10000,42=1,70=2/14;
 6/7=2,8=2,9=2,10=2/1;
 99/5=1,9=1/99;
 Leave Link    1 at Sat Feb 12 21:40:24 2022, MaxMem=  8589934592 cpu:               0.3 elap:               0.0
 (Enter /home/rr/g16/l101.exe)
 ---------------------
 xGDB7_00001_tier4.com
 ---------------------
 Symbolic Z-matrix:
 Charge =  0 Multiplicity = 1
 7                     1.10362   0.13989  -0.08322 
 7                    -0.07259  -0.50627   0.00486 
 6                    -1.15537   0.16272   0.00819 
 1                     1.87531  -0.4115    0.26991 
 1                     1.1249    1.11616   0.21608 
 1                    -2.10171  -0.38332   0.0341 
 1                    -1.1835    1.26694  -0.02077 
 
 ITRead=  0  0  0  0  0  0  0
 MicOpt= -1 -1 -1 -1 -1 -1 -1
 NAtoms=      7 NQM=        7 NQMF=       0 NMMI=      0 NMMIF=      0
                NMic=       0 NMicF=      0.
                    Isotopes and Nuclear Properties:
 (Nuclear quadrupole moments (NQMom) in fm**2, nuclear magnetic moments (NMagM)
  in nuclear magnetons)

  Atom         1           2           3           4           5           6           7
 IAtWgt=          14          14          12           1           1           1           1
 AtmWgt=  14.0030740  14.0030740  12.0000000   1.0078250   1.0078250   1.0078250   1.0078250
 NucSpn=           2           2           0           1           1           1           1
 AtZEff=  -0.0000000  -0.0000000  -0.0000000  -0.0000000  -0.0000000  -0.0000000  -0.0000000
 NQMom=    2.0440000   2.0440000   0.0000000   0.0000000   0.0000000   0.0000000   0.0000000
 NMagM=    0.4037610   0.4037610   0.0000000   2.7928460   2.7928460   2.7928460   2.7928460
 AtZNuc=   7.0000000   7.0000000   6.0000000   1.0000000   1.0000000   1.0000000   1.0000000
 Leave Link  101 at Sat Feb 12 21:40:24 2022, MaxMem=  8589934592 cpu:               0.7 elap:               0.1
 (Enter /home/rr/g16/l202.exe)
                          Input orientation:                          
 ---------------------------------------------------------------------
 Center     Atomic      Atomic             Coordinates (Angstroms)
 Number     Number       Type             X           Y           Z
 ---------------------------------------------------------------------
      1          7           0        1.103618    0.139891   -0.083217
      2          7           0       -0.072588   -0.506265    0.004864
      3          6           0       -1.155369    0.162724    0.008193
      4          1           0        1.875310   -0.411500    0.269912
      5          1           0        1.124899    1.116158    0.216077
      6          1           0       -2.101707   -0.383324    0.034098
      7          1           0       -1.183499    1.266937   -0.020767
 ---------------------------------------------------------------------
                    Distance matrix (angstroms):
                    1          2          3          4          5
     1  N    0.000000
     2  N    1.344893   0.000000
     3  C    2.260951   1.272781   0.000000
     4  H    1.012048   1.968130   3.095682   0.000000
     5  H    1.021336   2.027521   2.480297   1.702866   0.000000
     6  H    3.249865   2.033050   1.092884   3.984102   3.562660
     7  H    2.550497   2.092612   1.104951   3.501137   2.325410
                    6          7
     6  H    0.000000
     7  H    1.889306   0.000000
 Stoichiometry    CH4N2
 Framework group  C1[X(CH4N2)]
 Deg. of freedom    15
 Full point group                 C1      NOp   1
 Largest Abelian subgroup         C1      NOp   1
 Largest concise Abelian subgroup C1      NOp   1
                         Standard orientation:                         
 ---------------------------------------------------------------------
 Center     Atomic      Atomic             Coordinates (Angstroms)
 Number     Number       Type             X           Y           Z
 ---------------------------------------------------------------------
      1          7           0        1.103618    0.139891   -0.083217
      2          7           0       -0.072588   -0.506265    0.004864
      3          6           0       -1.155369    0.162724    0.008193
      4          1           0        1.875310   -0.411500    0.269912
      5          1           0        1.124899    1.116158    0.216077
      6          1           0       -2.101707   -0.383324    0.034098
      7          1           0       -1.183499    1.266937   -0.020767
 ---------------------------------------------------------------------
 Rotational constants (GHZ):          67.2171875          11.4746180           9.8788451
 Leave Link  202 at Sat Feb 12 21:40:24 2022, MaxMem=  8589934592 cpu:               0.1 elap:               0.0
 (Enter /home/rr/g16/l301.exe)
 General basis read from cards:  (5D, 7F)
 Centers:       4      5      6      7
 S 3 1.00
     Exponent=  1.3010701000D+01 Coefficients=  1.9682158000D-02
     Exponent=  1.9622572000D+00 Coefficients=  1.3796524000D-01
     Exponent=  4.4453796000D-01 Coefficients=  4.7831935000D-01
 S 1 1.00
     Exponent=  1.2194962000D-01 Coefficients=  1.0000000000D+00
 P 1 1.00
     Exponent=  8.0000000000D-01 Coefficients=  1.0000000000D+00
 P 1 1.00
     Exponent=  1.1704099050D-01 Coefficients=  1.0000000000D+00
 ****
 Centers:       3
 S 5 1.00
     Exponent=  1.2384016938D+03 Coefficients=  5.4568832082D-03
     Exponent=  1.8629004992D+02 Coefficients=  4.0638409211D-02
     Exponent=  4.2251176346D+01 Coefficients=  1.8025593888D-01
     Exponent=  1.1676557932D+01 Coefficients=  4.6315121755D-01
     Exponent=  3.5930506482D+00 Coefficients=  4.4087173314D-01
 S 1 1.00
     Exponent=  4.0245147363D-01 Coefficients=  1.0000000000D+00
 S 1 1.00
     Exponent=  1.3090182668D-01 Coefficients=  1.0000000000D+00
 S 1 1.00
     Exponent=  6.7053540256D-02 Coefficients=  1.0000000000D+00
 P 3 1.00
     Exponent=  9.4680970621D+00 Coefficients=  3.8387871728D-02
     Exponent=  2.0103545142D+00 Coefficients=  2.1117025112D-01
     Exponent=  5.4771004707D-01 Coefficients=  5.1328172114D-01
 P 1 1.00
     Exponent=  1.5268613795D-01 Coefficients=  1.0000000000D+00
 D 1 1.00
     Exponent=  8.0000000000D-01 Coefficients=  1.0000000000D+00
 D 1 1.00
     Exponent=  1.1713185140D-01 Coefficients=  1.0000000000D+00
 ****
 Centers:       1      2
 S 5 1.00
     Exponent=  1.7128415853D+03 Coefficients= -5.3934125305D-03
     Exponent=  2.5764812677D+02 Coefficients= -4.0221581118D-02
     Exponent=  5.8458245853D+01 Coefficients= -1.7931144990D-01
     Exponent=  1.6198367905D+01 Coefficients= -4.6376317823D-01
     Exponent=  5.0052600809D+00 Coefficients= -4.4171422662D-01
 S 1 1.00
     Exponent=  5.8731856571D-01 Coefficients=  1.0000000000D+00
 S 1 1.00
     Exponent=  1.8764592253D-01 Coefficients=  1.0000000000D+00
 S 1 1.00
     Exponent=  9.6171241529D-02 Coefficients=  1.0000000000D+00
 P 3 1.00
     Exponent=  1.3571470233D+01 Coefficients= -4.0072398852D-02
     Exponent=  2.9257372874D+00 Coefficients= -2.1807045028D-01
     Exponent=  7.9927750754D-01 Coefficients= -5.1294466049D-01
 P 1 1.00
     Exponent=  2.1954348034D-01 Coefficients=  1.0000000000D+00
 D 1 1.00
     Exponent=  1.0000000000D+00 Coefficients=  1.0000000000D+00
 D 1 1.00
     Exponent=  1.6697708112D-01 Coefficients=  1.0000000000D+00
 ****
 Ernie: Thresh=  0.10000D-02 Tol=  0.10000D-05 Strict=F.
 There are    98 symmetry adapted cartesian basis functions of A   symmetry.
 There are    92 symmetry adapted basis functions of A   symmetry.
    92 basis functions,   136 primitive gaussians,    98 cartesian basis functions
    12 alpha electrons       12 beta electrons
       nuclear repulsion energy        73.0881526074 Hartrees.
 IExCor= 4639 DFT=T Ex+Corr=wB97XD ExCW=0 ScaHFX=  1.000000
 ScaDFX=  1.000000  1.000000  1.000000  1.000000 ScalE2=  1.000000  1.000000
 IRadAn=      5 IRanWt=     -1 IRanGd=            0 ICorTp=0 IEmpDi=121
 HFx  wShort=  0.000000 wLong=  0.200000 cFull=  0.222036 cShort=  0.000000 cLong=  0.777964
 DFx  wShort=  0.000000 wLong=  0.200000 cFull=  0.000000 cShort=  0.000000 cLong=  1.000000
 NAtoms=    7 NActive=    7 NUniq=    7 SFac= 1.00D+00 NAtFMM=   60 NAOKFM=F Big=F
 Integral buffers will be    131072 words long.
 Raffenetti 1 integral format.
 Two-electron integral symmetry is turned on.
 R6Disp:  Grimme-D2 Dispersion energy=       -0.0011800300 Hartrees.
 Nuclear repulsion after empirical dispersion term =       73.0869725774 Hartrees.
 Leave Link  301 at Sat Feb 12 21:40:24 2022, MaxMem=  8589934592 cpu:               0.5 elap:               0.1
 (Enter /home/rr/g16/l302.exe)
 NPDir=0 NMtPBC=     1 NCelOv=     1 NCel=       1 NClECP=     1 NCelD=      1
         NCelK=      1 NCelE2=     1 NClLst=     1 CellRange=     0.0.
 One-electron integrals computed using PRISM.
 One-electron integral symmetry used in STVInt
 NBasis=    92 RedAO= T EigKep=  3.65D-04  NBF=    92
 NBsUse=    92 1.00D-06 EigRej= -1.00D+00 NBFU=    92
 Precomputing XC quadrature grid using
 IXCGrd= 4 IRadAn=           5 IRanWt=          -1 IRanGd=           0 AccXCQ= 0.00D+00.
 Generated NRdTot=       0 NPtTot=           0 NUsed=           0 NTot=          32
 NSgBfM=    98    98    98    98    98 MxSgAt=     7 MxSgA2=     7.
 Leave Link  302 at Sat Feb 12 21:40:24 2022, MaxMem=  8589934592 cpu:               1.0 elap:               0.2
 (Enter /home/rr/g16/l303.exe)
 DipDrv:  MaxL=1.
 Leave Link  303 at Sat Feb 12 21:40:24 2022, MaxMem=  8589934592 cpu:               0.2 elap:               0.0
 (Enter /home/rr/g16/l308.exe)
 Leave Link  308 at Sat Feb 12 21:40:24 2022, MaxMem=  8589934592 cpu:               0.2 elap:               0.0
 (Enter /home/rr/g16/l401.exe)
 ExpMin= 6.71D-02 ExpMax= 1.71D+03 ExpMxC= 2.58D+02 IAcc=3 IRadAn=         5 AccDes= 0.00D+00
 Harris functional with IExCor= 4639 and IRadAn=       5 diagonalized for initial guess.
 HarFok:  IExCor= 4639 AccDes= 0.00D+00 IRadAn=         5 IDoV= 1 UseB2=F ITyADJ=14
 ICtDFT=  3500011 ScaDFX=  1.000000  1.000000  1.000000  1.000000
 FoFCou: FMM=F IPFlag=           0 FMFlag=      100000 FMFlg1=           0
         NFxFlg=           0 DoJE=T BraDBF=F KetDBF=T FulRan=T
         wScrn=  0.000000 ICntrl=       500 IOpCl=  0 I1Cent=   200000004 NGrid=           0
         NMat0=    1 NMatS0=      1 NMatT0=    0 NMatD0=    1 NMtDS0=    0 NMtDT0=    0
 Petite list used in FoFCou.
 Harris En= -143.458144414387    
 JPrj=0 DoOrth=F DoCkMO=F.
 Leave Link  401 at Sat Feb 12 21:40:25 2022, MaxMem=  8589934592 cpu:               2.8 elap:               0.4
 (Enter /home/rr/g16/l502.exe)
 Keep R1 ints in memory in canonical form, NReq=26088976.
 FoFCou: FMM=F IPFlag=           0 FMFlag=           0 FMFlg1=           0
         NFxFlg=           0 DoJE=F BraDBF=F KetDBF=F FulRan=T
         wScrn=  0.000000 ICntrl=       600 IOpCl=  0 I1Cent=           0 NGrid=           0
         NMat0=    1 NMatS0=   4278 NMatT0=    0 NMatD0=    1 NMtDS0=    0 NMtDT0=    0
 Symmetry not used in FoFCou.
 Two-electron integral symmetry not used.
 Closed shell SCF:
 Using DIIS extrapolation, IDIIS=  1040.
 NGot=  8589934592 LenX=  8571607788 LenY=  8571597743
 Requested convergence on RMS density matrix=1.00D-08 within 100 cycles.
 Requested convergence on MAX density matrix=1.00D-06.
 Requested convergence on             energy=1.00D-06.
 No special actions if energy rises.
 Integral accuracy reduced to 1.0D-05 until final iterations.

 Cycle   1  Pass 0  IDiag  1:
 E= -149.750601889943    
 DIIS: error= 2.36D-02 at cycle   1 NSaved=   1.
 NSaved= 1 IEnMin= 1 EnMin= -149.750601889943     IErMin= 1 ErrMin= 2.36D-02
 ErrMax= 2.36D-02  0.00D+00 EMaxC= 1.00D-01 BMatC= 1.07D-01 BMatP= 1.07D-01
 IDIUse=3 WtCom= 7.64D-01 WtEn= 2.36D-01
 Coeff-Com:  0.100D+01
 Coeff-En:   0.100D+01
 Coeff:      0.100D+01
 Gap=     0.378 Goal=   None    Shift=    0.000
 GapD=    0.378 DampG=1.000 DampE=0.500 DampFc=0.5000 IDamp=-1.
 Damping current iteration by 5.00D-01
 RMSDP=8.65D-03 MaxDP=1.98D-01              OVMax= 2.16D-01

 Cycle   2  Pass 0  IDiag  1:
 E= -149.775816177991     Delta-E=       -0.025214288048 Rises=F Damp=T
 DIIS: error= 9.76D-03 at cycle   2 NSaved=   2.
 NSaved= 2 IEnMin= 2 EnMin= -149.775816177991     IErMin= 2 ErrMin= 9.76D-03
 ErrMax= 9.76D-03  0.00D+00 EMaxC= 1.00D-01 BMatC= 1.56D-02 BMatP= 1.07D-01
 IDIUse=3 WtCom= 9.02D-01 WtEn= 9.76D-02
 Coeff-Com: -0.532D-01 0.105D+01
 Coeff-En:   0.124D+00 0.876D+00
 Coeff:     -0.358D-01 0.104D+01
 Gap=     0.373 Goal=   None    Shift=    0.000
 RMSDP=2.17D-03 MaxDP=3.67D-02 DE=-2.52D-02 OVMax= 1.22D-01

 Cycle   3  Pass 0  IDiag  1:
 E= -149.807695567384     Delta-E=       -0.031879389393 Rises=F Damp=F
 DIIS: error= 5.46D-03 at cycle   3 NSaved=   3.
 NSaved= 3 IEnMin= 3 EnMin= -149.807695567384     IErMin= 3 ErrMin= 5.46D-03
 ErrMax= 5.46D-03  0.00D+00 EMaxC= 1.00D-01 BMatC= 4.28D-03 BMatP= 1.56D-02
 IDIUse=3 WtCom= 9.45D-01 WtEn= 5.46D-02
 Coeff-Com: -0.169D+00 0.360D+00 0.809D+00
 Coeff-En:   0.000D+00 0.000D+00 0.100D+01
 Coeff:     -0.160D+00 0.340D+00 0.820D+00
 Gap=     0.383 Goal=   None    Shift=    0.000
 RMSDP=1.12D-03 MaxDP=2.74D-02 DE=-3.19D-02 OVMax= 3.17D-02

 Cycle   4  Pass 0  IDiag  1:
 E= -149.811603791346     Delta-E=       -0.003908223962 Rises=F Damp=F
 DIIS: error= 1.13D-03 at cycle   4 NSaved=   4.
 NSaved= 4 IEnMin= 4 EnMin= -149.811603791346     IErMin= 4 ErrMin= 1.13D-03
 ErrMax= 1.13D-03  0.00D+00 EMaxC= 1.00D-01 BMatC= 1.43D-04 BMatP= 4.28D-03
 IDIUse=3 WtCom= 9.89D-01 WtEn= 1.13D-02
 Coeff-Com: -0.446D-01 0.803D-01 0.289D+00 0.675D+00
 Coeff-En:   0.000D+00 0.000D+00 0.000D+00 0.100D+01
 Coeff:     -0.441D-01 0.794D-01 0.286D+00 0.679D+00
 Gap=     0.386 Goal=   None    Shift=    0.000
 RMSDP=1.44D-04 MaxDP=3.21D-03 DE=-3.91D-03 OVMax= 3.85D-03

 Cycle   5  Pass 0  IDiag  1:
 E= -149.811731025960     Delta-E=       -0.000127234614 Rises=F Damp=F
 DIIS: error= 2.40D-04 at cycle   5 NSaved=   5.
 NSaved= 5 IEnMin= 5 EnMin= -149.811731025960     IErMin= 5 ErrMin= 2.40D-04
 ErrMax= 2.40D-04  0.00D+00 EMaxC= 1.00D-01 BMatC= 9.20D-06 BMatP= 1.43D-04
 IDIUse=3 WtCom= 9.98D-01 WtEn= 2.40D-03
 Coeff-Com:  0.763D-02-0.196D-01-0.810D-03 0.177D+00 0.836D+00
 Coeff-En:   0.000D+00 0.000D+00 0.000D+00 0.000D+00 0.100D+01
 Coeff:      0.761D-02-0.196D-01-0.808D-03 0.176D+00 0.836D+00
 Gap=     0.386 Goal=   None    Shift=    0.000
 RMSDP=8.00D-05 MaxDP=1.97D-03 DE=-1.27D-04 OVMax= 1.46D-03

 Cycle   6  Pass 0  IDiag  1:
 E= -149.811743013653     Delta-E=       -0.000011987693 Rises=F Damp=F
 DIIS: error= 1.64D-04 at cycle   6 NSaved=   6.
 NSaved= 6 IEnMin= 6 EnMin= -149.811743013653     IErMin= 6 ErrMin= 1.64D-04
 ErrMax= 1.64D-04  0.00D+00 EMaxC= 1.00D-01 BMatC= 1.59D-06 BMatP= 9.20D-06
 IDIUse=3 WtCom= 9.98D-01 WtEn= 1.64D-03
 Coeff-Com:  0.108D-01-0.212D-01-0.452D-01-0.548D-01 0.286D+00 0.824D+00
 Coeff-En:   0.000D+00 0.000D+00 0.000D+00 0.000D+00 0.000D+00 0.100D+01
 Coeff:      0.107D-01-0.212D-01-0.452D-01-0.547D-01 0.286D+00 0.825D+00
 Gap=     0.386 Goal=   None    Shift=    0.000
 RMSDP=3.42D-05 MaxDP=5.88D-04 DE=-1.20D-05 OVMax= 1.00D-03

 Cycle   7  Pass 0  IDiag  1:
 E= -149.811745435460     Delta-E=       -0.000002421807 Rises=F Damp=F
 DIIS: error= 2.97D-05 at cycle   7 NSaved=   7.
 NSaved= 7 IEnMin= 7 EnMin= -149.811745435460     IErMin= 7 ErrMin= 2.97D-05
 ErrMax= 2.97D-05  0.00D+00 EMaxC= 1.00D-01 BMatC= 1.45D-07 BMatP= 1.59D-06
 IDIUse=1 WtCom= 1.00D+00 WtEn= 0.00D+00
 Coeff-Com:  0.256D-02-0.483D-02-0.115D-01-0.307D-01 0.105D-01 0.259D+00
 Coeff-Com:  0.775D+00
 Coeff:      0.256D-02-0.483D-02-0.115D-01-0.307D-01 0.105D-01 0.259D+00
 Coeff:      0.775D+00
 Gap=     0.386 Goal=   None    Shift=    0.000
 RMSDP=8.35D-06 MaxDP=1.38D-04 DE=-2.42D-06 OVMax= 2.24D-04

 Initial convergence to 1.0D-05 achieved.  Increase integral accuracy.
 Cycle   8  Pass 1  IDiag  1:
 E= -149.811749482218     Delta-E=       -0.000004046758 Rises=F Damp=F
 DIIS: error= 1.44D-05 at cycle   1 NSaved=   1.
 NSaved= 1 IEnMin= 1 EnMin= -149.811749482218     IErMin= 1 ErrMin= 1.44D-05
 ErrMax= 1.44D-05  0.00D+00 EMaxC= 1.00D-01 BMatC= 5.68D-08 BMatP= 5.68D-08
 IDIUse=1 WtCom= 1.00D+00 WtEn= 0.00D+00
 Coeff-Com:  0.100D+01
 Coeff:      0.100D+01
 Gap=     0.386 Goal=   None    Shift=    0.000
 RMSDP=8.35D-06 MaxDP=1.38D-04 DE=-4.05D-06 OVMax= 1.01D-04

 Cycle   9  Pass 1  IDiag  1:
 E= -149.811749550809     Delta-E=       -0.000000068591 Rises=F Damp=F
 DIIS: error= 6.65D-06 at cycle   2 NSaved=   2.
 NSaved= 2 IEnMin= 2 EnMin= -149.811749550809     IErMin= 2 ErrMin= 6.65D-06
 ErrMax= 6.65D-06  0.00D+00 EMaxC= 1.00D-01 BMatC= 3.10D-09 BMatP= 5.68D-08
 IDIUse=1 WtCom= 1.00D+00 WtEn= 0.00D+00
 Coeff-Com: -0.232D-01 0.102D+01
 Coeff:     -0.232D-01 0.102D+01
 Gap=     0.386 Goal=   None    Shift=    0.000
 RMSDP=2.01D-06 MaxDP=2.68D-05 DE=-6.86D-08 OVMax= 6.83D-05

 Cycle  10  Pass 1  IDiag  1:
 E= -149.811749555289     Delta-E=       -0.000000004479 Rises=F Damp=F
 DIIS: error= 5.29D-06 at cycle   3 NSaved=   3.
 NSaved= 3 IEnMin= 3 EnMin= -149.811749555289     IErMin= 3 ErrMin= 5.29D-06
 ErrMax= 5.29D-06  0.00D+00 EMaxC= 1.00D-01 BMatC= 3.05D-09 BMatP= 3.10D-09
 IDIUse=1 WtCom= 1.00D+00 WtEn= 0.00D+00
 Coeff-Com: -0.642D-01 0.534D+00 0.530D+00
 Coeff:     -0.642D-01 0.534D+00 0.530D+00
 Gap=     0.386 Goal=   None    Shift=    0.000
 RMSDP=9.79D-07 MaxDP=2.67D-05 DE=-4.48D-09 OVMax= 1.82D-05

 Cycle  11  Pass 1  IDiag  1:
 E= -149.811749558129     Delta-E=       -0.000000002841 Rises=F Damp=F
 DIIS: error= 1.39D-06 at cycle   4 NSaved=   4.
 NSaved= 4 IEnMin= 4 EnMin= -149.811749558129     IErMin= 4 ErrMin= 1.39D-06
 ErrMax= 1.39D-06  0.00D+00 EMaxC= 1.00D-01 BMatC= 1.06D-10 BMatP= 3.05D-09
 IDIUse=1 WtCom= 1.00D+00 WtEn= 0.00D+00
 Coeff-Com: -0.119D-01-0.877D-02 0.841D-01 0.937D+00
 Coeff:     -0.119D-01-0.877D-02 0.841D-01 0.937D+00
 Gap=     0.386 Goal=   None    Shift=    0.000
 RMSDP=4.64D-07 MaxDP=1.39D-05 DE=-2.84D-09 OVMax= 1.72D-05

 Cycle  12  Pass 1  IDiag  1:
 E= -149.811749558465     Delta-E=       -0.000000000336 Rises=F Damp=F
 DIIS: error= 6.09D-07 at cycle   5 NSaved=   5.
 NSaved= 5 IEnMin= 5 EnMin= -149.811749558465     IErMin= 5 ErrMin= 6.09D-07
 ErrMax= 6.09D-07  0.00D+00 EMaxC= 1.00D-01 BMatC= 4.47D-11 BMatP= 1.06D-10
 IDIUse=1 WtCom= 1.00D+00 WtEn= 0.00D+00
 Coeff-Com:  0.103D-01-0.115D+00-0.111D+00 0.340D+00 0.875D+00
 Coeff:      0.103D-01-0.115D+00-0.111D+00 0.340D+00 0.875D+00
 Gap=     0.386 Goal=   None    Shift=    0.000
 RMSDP=2.46D-07 MaxDP=7.34D-06 DE=-3.36D-10 OVMax= 6.13D-06

 Cycle  13  Pass 1  IDiag  1:
 E= -149.811749558549     Delta-E=       -0.000000000084 Rises=F Damp=F
 DIIS: error= 9.32D-08 at cycle   6 NSaved=   6.
 NSaved= 6 IEnMin= 6 EnMin= -149.811749558549     IErMin= 6 ErrMin= 9.32D-08
 ErrMax= 9.32D-08  0.00D+00 EMaxC= 1.00D-01 BMatC= 8.99D-13 BMatP= 4.47D-11
 IDIUse=1 WtCom= 1.00D+00 WtEn= 0.00D+00
 Coeff-Com:  0.185D-02-0.831D-02-0.208D-01-0.169D-01 0.525D-01 0.992D+00
 Coeff:      0.185D-02-0.831D-02-0.208D-01-0.169D-01 0.525D-01 0.992D+00
 Gap=     0.386 Goal=   None    Shift=    0.000
 RMSDP=5.01D-08 MaxDP=1.10D-06 DE=-8.36D-11 OVMax= 1.59D-06

 Cycle  14  Pass 1  IDiag  1:
 E= -149.811749558549     Delta-E=       -0.000000000000 Rises=F Damp=F
 DIIS: error= 4.06D-08 at cycle   7 NSaved=   7.
 NSaved= 7 IEnMin= 7 EnMin= -149.811749558549     IErMin= 7 ErrMin= 4.06D-08
 ErrMax= 4.06D-08  0.00D+00 EMaxC= 1.00D-01 BMatC= 2.25D-13 BMatP= 8.99D-13
 IDIUse=1 WtCom= 1.00D+00 WtEn= 0.00D+00
 Coeff-Com:  0.115D-04 0.442D-02-0.203D-02-0.266D-01-0.462D-01 0.354D+00
 Coeff-Com:  0.716D+00
 Coeff:      0.115D-04 0.442D-02-0.203D-02-0.266D-01-0.462D-01 0.354D+00
 Coeff:      0.716D+00
 Gap=     0.386 Goal=   None    Shift=    0.000
 RMSDP=1.31D-08 MaxDP=4.28D-07 DE=-3.41D-13 OVMax= 2.41D-07

 Cycle  15  Pass 1  IDiag  1:
 E= -149.811749558551     Delta-E=       -0.000000000003 Rises=F Damp=F
 DIIS: error= 1.18D-08 at cycle   8 NSaved=   8.
 NSaved= 8 IEnMin= 8 EnMin= -149.811749558551     IErMin= 8 ErrMin= 1.18D-08
 ErrMax= 1.18D-08  0.00D+00 EMaxC= 1.00D-01 BMatC= 2.74D-14 BMatP= 2.25D-13
 IDIUse=1 WtCom= 1.00D+00 WtEn= 0.00D+00
 Coeff-Com: -0.220D-03 0.268D-02 0.144D-02-0.594D-02-0.261D-01 0.468D-02
 Coeff-Com:  0.282D+00 0.741D+00
 Coeff:     -0.220D-03 0.268D-02 0.144D-02-0.594D-02-0.261D-01 0.468D-02
 Coeff:      0.282D+00 0.741D+00
 Gap=     0.386 Goal=   None    Shift=    0.000
 RMSDP=2.69D-09 MaxDP=3.63D-08 DE=-2.59D-12 OVMax= 7.19D-08

 SCF Done:  E(RwB97XD) =  -149.811749559     A.U. after   15 cycles
            NFock= 15  Conv=0.27D-08     -V/T= 2.0104
 KE= 1.482665080749D+02 PE=-4.946995517883D+02 EE= 1.235343215774D+02
 Leave Link  502 at Sat Feb 12 21:40:28 2022, MaxMem=  8589934592 cpu:              24.9 elap:               3.4
 (Enter /home/rr/g16/l801.exe)
 DoSCS=F DFT=T ScalE2(SS,OS)=  1.000000  1.000000
 ExpMin= 6.71D-02 ExpMax= 1.71D+03 ExpMxC= 2.58D+02 IAcc=3 IRadAn=         5 AccDes= 0.00D+00
 HarFok:  IExCor=  205 AccDes= 0.00D+00 IRadAn=         5 IDoV=-2 UseB2=F ITyADJ=14
 ICtDFT= 12500011 ScaDFX=  1.000000  1.000000  1.000000  1.000000
 Largest valence mixing into a core orbital is  7.19D-05
 Largest core mixing into a valence orbital is  1.74D-05
 Range of M.O.s used for correlation:     4    92
 NBasis=    92 NAE=    12 NBE=    12 NFC=     3 NFV=     0
 NROrb=     89 NOA=     9 NOB=     9 NVA=    80 NVB=    80

 **** Warning!!: The largest alpha MO coefficient is  0.12877763D+02

 Leave Link  801 at Sat Feb 12 21:40:28 2022, MaxMem=  8589934592 cpu:               0.6 elap:               0.1
 (Enter /home/rr/g16/l914.exe)
 RHF ground state
 Keep R1, R2, and R3 ints in memory in canonical form, NReq=629346192.
 FoFCou: FMM=F IPFlag=           0 FMFlag=           0 FMFlg1=           0
         NFxFlg=           0 DoJE=F BraDBF=F KetDBF=F FulRan=T
         wScrn=  0.000000 ICntrl=       600 IOpCl=  0 I1Cent=           0 NGrid=           0
         NMat0=    1 NMatS0=   4278 NMatT0=    0 NMatD0=    1 NMtDS0=    0 NMtDT0=    0
 Symmetry not used in FoFCou.
 Two-electron integral symmetry not used.
 MDV=  8589934592 DFT=T DoStab=F Mixed=T DoRPA=T DoScal=F NonHer=T
 Making orbital integer symmetry assigments:
 Orbital symmetries:
       Occupied  (A) (A) (A) (A) (A) (A) (A) (A) (A) (A) (A) (A)
       Virtual   (A) (A) (A) (A) (A) (A) (A) (A) (A) (A) (A) (A)
                 (A) (A) (A) (A) (A) (A) (A) (A) (A) (A) (A) (A)
                 (A) (A) (A) (A) (A) (A) (A) (A) (A) (A) (A) (A)
                 (A) (A) (A) (A) (A) (A) (A) (A) (A) (A) (A) (A)
                 (A) (A) (A) (A) (A) (A) (A) (A) (A) (A) (A) (A)
                 (A) (A) (A) (A) (A) (A) (A) (A) (A) (A) (A) (A)
                 (A) (A) (A) (A) (A) (A) (A) (A)
   720 initial guesses have been made.
 Convergence on wavefunction:    0.001000000000000
 Davidson Disk Diagonalization:  ConvIn= 1.00D-03 SkipCon=T Conv= 1.00D-03.
 Max sub-space:  4320 roots to seek:  1440 dimension of matrix:         1440
 *** WARNING: Number of orthogonal guesses is          720
 Iteration     1 Dimension   720 NMult     0 NNew    720
 CISAX will form   720 AO SS matrices at one time.
 NMat=   720 NSing=   720 JSym2X= 0.
 New state      1 was old state      3
 New state      2 was old state      1
 New state      3 was old state      2
 New state      9 was old state     10
 New state     10 was old state      9
 New state     11 was old state     17
 New state     12 was old state     11
 New state     13 was old state     12
 New state     14 was old state     13
 New state     15 was old state     14
 New state     16 was old state     15
 New state     17 was old state     16
 New state     19 was old state     20
 New state     20 was old state     19
 New state     21 was old state     23
 New state     22 was old state     21
 New state     23 was old state     25
 New state     24 was old state     26
 New state     25 was old state     34
 New state     26 was old state     22
 New state     27 was old state     24
 New state     28 was old state     27
 New state     31 was old state     28
 New state     33 was old state     31
 New state     34 was old state     36
 New state     35 was old state     33
 New state     36 was old state     41
 New state     37 was old state     35
 New state     38 was old state     37
 New state     39 was old state     38
 New state     40 was old state     39
 New state     41 was old state     42
 New state     42 was old state     40
 New state     45 was old state     47
 New state     46 was old state     48
 New state     47 was old state     46
 New state     48 was old state     45
 New state     49 was old state     50
 New state     50 was old state     52
 New state     51 was old state     49
 New state     52 was old state     53
 New state     53 was old state     51
 New state     56 was old state     61
 New state     57 was old state     60
 New state     59 was old state     64
 New state     60 was old state     57
 New state     61 was old state     59
 New state     62 was old state     65
 New state     63 was old state     62
 New state     64 was old state     66
 New state     65 was old state     63
 New state     66 was old state     56
 New state     67 was old state     68
 New state     68 was old state     72
 New state     69 was old state     67
 New state     70 was old state     73
 New state     71 was old state     69
 New state     72 was old state     74
 New state     73 was old state     71
 New state     74 was old state     75
 New state     75 was old state     70
 New state     77 was old state     81
 New state     78 was old state     82
 New state     79 was old state     80
 New state     80 was old state     79
 New state     81 was old state     78
 New state     82 was old state     85
 New state     83 was old state     77
 New state     84 was old state     83
 New state     85 was old state     84
 New state     86 was old state     88
 New state     87 was old state     92
 New state     88 was old state     91
 New state     89 was old state     94
 New state     90 was old state     95
 New state     91 was old state     93
 New state     92 was old state     86
 New state     93 was old state     96
 New state     94 was old state    100
 New state     95 was old state     90
 New state     96 was old state    107
 New state     97 was old state     89
 New state     99 was old state     97
 New state    100 was old state    101
 New state    101 was old state    102
 New state    102 was old state    105
 New state    103 was old state     99
 New state    104 was old state    103
 New state    105 was old state    106
 New state    106 was old state    110
 New state    107 was old state    104
 New state    108 was old state    113
 New state    110 was old state    108
 New state    112 was old state    116
 New state    113 was old state    112
 New state    114 was old state    117
 New state    115 was old state    114
 New state    116 was old state    124
 New state    117 was old state    123
 New state    118 was old state    129
 New state    119 was old state    118
 New state    120 was old state    127
 New state    121 was old state    115
 New state    122 was old state    120
 New state    123 was old state    126
 New state    124 was old state    122
 New state    125 was old state    140
 New state    126 was old state    119
 New state    127 was old state    121
 New state    128 was old state    125
 New state    129 was old state    133
 New state    132 was old state    128
 New state    133 was old state    142
 New state    135 was old state    136
 New state    136 was old state    135
 New state    137 was old state    146
 New state    138 was old state    141
 New state    139 was old state    137
 New state    140 was old state    143
 New state    141 was old state    139
 New state    142 was old state    138
 New state    143 was old state    148
 New state    144 was old state    147
 New state    145 was old state    149
 New state    146 was old state    151
 New state    147 was old state    150
 New state    148 was old state    144
 New state    149 was old state    145
 New state    150 was old state    157
 New state    151 was old state    154
 New state    152 was old state    153
 New state    153 was old state    152
 New state    154 was old state    155
 New state    155 was old state    156
 New state    156 was old state    163
 New state    157 was old state    164
 New state    158 was old state    159
 New state    159 was old state    161
 New state    160 was old state    168
 New state    161 was old state    165
 New state    162 was old state    158
 New state    163 was old state    166
 New state    164 was old state    167
 New state    165 was old state    160
 New state    166 was old state    184
 New state    167 was old state    172
 New state    168 was old state    162
 New state    169 was old state    171
 New state    170 was old state    175
 New state    171 was old state    169
 New state    172 was old state    170
 New state    174 was old state    179
 New state    175 was old state    181
 New state    178 was old state    180
 New state    179 was old state    186
 New state    180 was old state    174
 New state    181 was old state    185
 New state    182 was old state    183
 New state    183 was old state    188
 New state    184 was old state    187
 New state    185 was old state    182
 New state    186 was old state    190
 New state    187 was old state    189
 New state    188 was old state    202
 New state    189 was old state    193
 New state    190 was old state    199
 New state    191 was old state    198
 New state    192 was old state    195
 New state    193 was old state    192
 New state    194 was old state    200
 New state    195 was old state    196
 New state    196 was old state    194
 New state    198 was old state    191
 New state    199 was old state    221
 New state    200 was old state    203
 New state    201 was old state    210
 New state    202 was old state    201
 New state    203 was old state    215
 New state    204 was old state    205
 New state    205 was old state    216
 New state    206 was old state    214
 New state    207 was old state    204
 New state    208 was old state    206
 New state    209 was old state    208
 New state    210 was old state    217
 New state    211 was old state    207
 New state    212 was old state    213
 New state    213 was old state    209
 New state    214 was old state    211
 New state    215 was old state    222
 New state    216 was old state    212
 New state    217 was old state    218
 New state    218 was old state    219
 New state    219 was old state    220
 New state    220 was old state    225
 New state    221 was old state    228
 New state    222 was old state    223
 New state    223 was old state    224
 New state    224 was old state    235
 New state    225 was old state    229
 New state    226 was old state    234
 New state    228 was old state    233
 New state    229 was old state    230
 New state    230 was old state    231
 New state    231 was old state    226
 New state    233 was old state    237
 No map to state    234
 New state    235 was old state    236
 New state    236 was old state    245
 New state    237 was old state    238
 New state    238 was old state    240
 No map to state    239
 New state    240 was old state    242
 New state    241 was old state    243
 New state    242 was old state    251
 New state    243 was old state    241
 New state    244 was old state    239
 New state    245 was old state    244
 New state    247 was old state    250
 New state    248 was old state    249
 New state    249 was old state    248
 New state    250 was old state    252
 New state    251 was old state    254
 New state    252 was old state    247
 New state    254 was old state    259
 New state    256 was old state    265
 New state    257 was old state    260
 New state    258 was old state    256
 New state    259 was old state    264
 New state    260 was old state    268
 New state    261 was old state    263
 New state    262 was old state    270
 New state    263 was old state    258
 New state    264 was old state    261
 New state    265 was old state    257
 New state    266 was old state    262
 New state    267 was old state    266
 New state    268 was old state    269
 New state    269 was old state    267
 New state    270 was old state    273
 New state    271 was old state    272
 New state    272 was old state    275
 New state    273 was old state    282
 New state    275 was old state    281
 New state    276 was old state    271
 New state    278 was old state    279
 New state    279 was old state    276
 New state    280 was old state    286
 New state    281 was old state    278
 New state    282 was old state    283
 New state    283 was old state    280
 New state    285 was old state    290
 New state    286 was old state    288
 New state    287 was old state    285
 New state    288 was old state    291
 New state    289 was old state    287
 New state    290 was old state    295
 New state    291 was old state    293
 New state    292 was old state    289
 New state    293 was old state    294
 New state    294 was old state    292
 New state    295 was old state    296
 New state    296 was old state    305
 New state    297 was old state    304
 New state    299 was old state    297
 New state    300 was old state    299
 New state    301 was old state    303
 New state    302 was old state    300
 New state    303 was old state    307
 New state    304 was old state    301
 New state    305 was old state    302
 New state    306 was old state    311
 New state    307 was old state    308
 New state    308 was old state    306
 New state    310 was old state    318
 New state    311 was old state    310
 New state    315 was old state    321
 New state    316 was old state    320
 New state    317 was old state    316
 New state    318 was old state    324
 New state    319 was old state    333
 New state    320 was old state    322
 New state    321 was old state    319
 New state    322 was old state    323
 New state    323 was old state    330
 New state    324 was old state    317
 New state    325 was old state    327
 New state    327 was old state    332
 New state    328 was old state    325
 New state    330 was old state    328
 New state    331 was old state    337
 New state    332 was old state    346
 New state    333 was old state    331
 New state    334 was old state    336
 New state    336 was old state    334
 New state    337 was old state    338
 New state    338 was old state    339
 New state    339 was old state    345
 New state    343 was old state    344
 New state    344 was old state    348
 No map to state    345
 New state    346 was old state    349
 New state    347 was old state    343
 New state    348 was old state    347
 New state    349 was old state    352
 New state    350 was old state    353
 New state    351 was old state    350
 New state    352 was old state    355
 New state    353 was old state    351
 New state    354 was old state    358
 New state    355 was old state    360
 New state    356 was old state    354
 New state    358 was old state    359
 New state    359 was old state    363
 New state    360 was old state    356
 New state    362 was old state    365
 New state    363 was old state    362
 New state    365 was old state    368
 New state    366 was old state    370
 New state    367 was old state    366
 New state    368 was old state    373
 New state    370 was old state    367
 New state    373 was old state    377
 New state    374 was old state    378
 New state    375 was old state    380
 New state    376 was old state    374
 New state    377 was old state    375
 New state    378 was old state    379
 New state    379 was old state    376
 New state    380 was old state    382
 New state    381 was old state    391
 New state    382 was old state    386
 New state    383 was old state    389
 New state    384 was old state    383
 New state    385 was old state    387
 New state    386 was old state    381
 New state    387 was old state    388
 New state    388 was old state    385
 New state    389 was old state    395
 New state    390 was old state    384
 New state    391 was old state    390
 New state    395 was old state    396
 New state    396 was old state    397
 New state    397 was old state    399
 New state    398 was old state    402
 New state    399 was old state    400
 New state    400 was old state    403
 New state    402 was old state    404
 New state    403 was old state    409
 New state    404 was old state    410
 New state    405 was old state    413
 New state    406 was old state    405
 New state    407 was old state    408
 New state    408 was old state    406
 New state    409 was old state    411
 New state    410 was old state    407
 New state    411 was old state    414
 New state    413 was old state    416
 New state    414 was old state    415
 No map to state    415
 New state    416 was old state    417
 New state    417 was old state    422
 New state    418 was old state    419
 New state    419 was old state    421
 New state    420 was old state    424
 New state    421 was old state    423
 New state    422 was old state    418
 New state    423 was old state    420
 New state    424 was old state    427
 New state    425 was old state    428
 New state    426 was old state    425
 New state    427 was old state    437
 New state    428 was old state    426
 New state    429 was old state    432
 New state    430 was old state    429
 New state    431 was old state    430
 New state    432 was old state    431
 New state    434 was old state    436
 New state    435 was old state    438
 New state    436 was old state    434
 New state    437 was old state    439
 New state    438 was old state    441
 New state    439 was old state    435
 New state    441 was old state    443
 New state    442 was old state    445
 New state    443 was old state    442
 New state    445 was old state    447
 New state    446 was old state    449
 New state    447 was old state    446
 New state    449 was old state    451
 No map to state    450
 New state    451 was old state    450
 New state    453 was old state    454
 New state    454 was old state    456
 New state    455 was old state    457
 New state    456 was old state    455
 New state    457 was old state    458
 New state    458 was old state    453
 New state    459 was old state    460
 New state    460 was old state    459
 New state    461 was old state    462
 New state    462 was old state    461
 New state    464 was old state    466
 New state    465 was old state    464
 New state    466 was old state    465
 New state    468 was old state    469
 New state    469 was old state    470
 New state    470 was old state    468
 New state    472 was old state    477
 New state    473 was old state    472
 New state    474 was old state    476
 New state    475 was old state    474
 New state    476 was old state    473
 New state    477 was old state    475
 New state    480 was old state    481
 New state    481 was old state    480
 New state    483 was old state    485
 New state    484 was old state    483
 New state    485 was old state    486
 New state    486 was old state    484
 New state    487 was old state    488
 New state    488 was old state    489
 New state    489 was old state    493
 New state    490 was old state    487
 New state    491 was old state    490
 New state    493 was old state    491
 New state    495 was old state    496
 New state    496 was old state    495
 New state    501 was old state    502
 New state    502 was old state    503
 New state    503 was old state    504
 New state    504 was old state    501
 New state    508 was old state    509
 New state    509 was old state    510
 New state    510 was old state    508
 New state    511 was old state    512
 New state    512 was old state    511
 New state    513 was old state    515
 New state    514 was old state    513
 New state    515 was old state    518
 New state    516 was old state    517
 New state    517 was old state    514
 New state    518 was old state    516
 New state    520 was old state    521
 New state    521 was old state    520
 New state    522 was old state    523
 New state    523 was old state    522
 New state    524 was old state    529
 New state    525 was old state    524
 New state    526 was old state    527
 New state    527 was old state    526
 New state    528 was old state    525
 New state    529 was old state    528
 New state    530 was old state    531
 New state    531 was old state    533
 New state    533 was old state    534
 New state    534 was old state    530
 New state    536 was old state    538
 New state    537 was old state    540
 New state    538 was old state    537
 New state    540 was old state    536
 New state    541 was old state    542
 New state    542 was old state    541
 New state    544 was old state    546
 New state    546 was old state    544
 New state    549 was old state    550
 New state    550 was old state    551
 New state    551 was old state    549
 New state    552 was old state    554
 New state    553 was old state    556
 New state    554 was old state    555
 New state    555 was old state    552
 New state    556 was old state    553
 New state    559 was old state    560
 New state    560 was old state    559
 New state    562 was old state    563
 New state    563 was old state    562
 New state    564 was old state    565
 New state    565 was old state    564
 New state    567 was old state    568
 New state    568 was old state    570
 New state    569 was old state    567
 New state    570 was old state    571
 New state    571 was old state    569
 New state    574 was old state    578
 New state    575 was old state    579
 New state    576 was old state    575
 New state    578 was old state    576
 New state    579 was old state    574
 New state    582 was old state    583
 New state    583 was old state    584
 New state    584 was old state    582
 New state    585 was old state    586
 New state    586 was old state    585
 New state    587 was old state    590
 New state    590 was old state    587
 New state    592 was old state    593
 New state    593 was old state    592
 New state    594 was old state    596
 New state    595 was old state    594
 New state    596 was old state    595
 New state    598 was old state    599
 New state    599 was old state    598
 New state    602 was old state    603
 New state    603 was old state    602
 New state    606 was old state    607
 New state    607 was old state    606
 New state    608 was old state    609
 New state    609 was old state    610
 New state    610 was old state    608
 New state    614 was old state    615
 New state    615 was old state    614
 New state    620 was old state    623
 New state    621 was old state    620
 New state    622 was old state    621
 New state    623 was old state    622
 New state    625 was old state    628
 New state    628 was old state    625
 New state    629 was old state    630
 New state    630 was old state    629
 New state    632 was old state    633
 New state    633 was old state    632
 New state    637 was old state    639
 New state    639 was old state    637
 New state    640 was old state    643
 New state    642 was old state    644
 New state    643 was old state    640
 New state    644 was old state    642
 New state    645 was old state    646
 New state    646 was old state    645
 New state    648 was old state    649
 New state    649 was old state    648
 New state    665 was old state    666
 New state    666 was old state    665
 New state    669 was old state    671
 New state    671 was old state    672
 New state    672 was old state    669
 New state    676 was old state    678
 New state    677 was old state    676
 New state    678 was old state    677
 New state    685 was old state    686
 New state    686 was old state    685
 New state    690 was old state    691
 New state    691 was old state    690
 New state    699 was old state    700
 New state    700 was old state    699
 New state    712 was old state    713
 New state    713 was old state    712
 Excitation Energies [eV] at current iteration:
 Root      1 :     5.868468472641888
 Root      2 :     6.179981214713056
 Root      3 :     6.644364771234222
 Root      4 :     7.685285224526037
 Root      5 :     8.035139295618908
 Root      6 :     8.208237632574074
 Root      7 :     8.920793216922172
 Root      8 :     8.984859818186905
 Root      9 :     9.396230592423960
 Root     10 :     9.524645380895253
 Root     11 :     9.709424885864813
 Root     12 :     9.841341393587097
 Root     13 :    10.212638584797400
 Root     14 :    10.541365564954270
 Root     15 :    10.586246338207780
 Root     16 :    10.805139386895570
 Root     17 :    10.944730966763220
 Root     18 :    10.972929316177760
 Root     19 :    11.234120571821430
 Root     20 :    11.282791338303870
 Root     21 :    11.826552815845940
 Root     22 :    11.915413829852460
 Root     23 :    11.985239826773180
 Root     24 :    12.108291225026930
 Root     25 :    12.141416523272300
 Root     26 :    12.194831015414760
 Root     27 :    12.347328097883940
 Root     28 :    12.425733857475890
 Root     29 :    12.558422350700760
 Root     30 :    12.785982964924990
 Root     31 :    12.877445647489600
 Root     32 :    13.024048624237600
 Root     33 :    13.029959951296480
 Root     34 :    13.239507755379810
 Root     35 :    13.375903784626800
 Root     36 :    13.443083860724010
 Root     37 :    13.592970572684270
 Root     38 :    13.697999172802340
 Root     39 :    13.794198454736770
 Root     40 :    14.020353499623210
 Root     41 :    14.138947378287910
 Root     42 :    14.276584249378530
 Root     43 :    14.389261686797620
 Root     44 :    14.458518013549610
 Root     45 :    14.487183409795620
 Root     46 :    14.623012929767460
 Root     47 :    14.732408115417520
 Root     48 :    14.740044744162270
 Root     49 :    14.955971707379520
 Root     50 :    14.973054512297020
 Root     51 :    15.020820508687070
 Root     52 :    15.220897909501410
 Root     53 :    15.408571137338580
 Root     54 :    15.516555491882320
 Root     55 :    15.595962810787570
 Root     56 :    15.621884309493670
 Root     57 :    15.777714914930130
 Root     58 :    15.807790635096720
 Root     59 :    15.859344647528560
 Root     60 :    15.921495017238430
 Root     61 :    15.975349391902890
 Root     62 :    16.034849790749270
 Root     63 :    16.189207884538760
 Root     64 :    16.241818540025320
 Root     65 :    16.261094546104750
 Root     66 :    16.292593085019940
 Root     67 :    16.421043682664320
 Root     68 :    16.543247889033720
 Root     69 :    16.645310106578800
 Root     70 :    16.674962106296690
 Root     71 :    16.725683196504880
 Root     72 :    16.757093717177780
 Root     73 :    16.883084823003260
 Root     74 :    16.920654794621840
 Root     75 :    16.952826218809520
 Root     76 :    16.959811479523350
 Root     77 :    17.031665153968220
 Root     78 :    17.118790144094270
 Root     79 :    17.135101897523630
 Root     80 :    17.233501862411870
 Root     81 :    17.363444551950840
 Root     82 :    17.430988587951910
 Root     83 :    17.489884721396260
 Root     84 :    17.559885205094410
 Root     85 :    17.662285098141680
 Root     86 :    17.727122766668850
 Root     87 :    17.848233244055370
 Root     88 :    17.871707772788000
 Root     89 :    17.956660763487070
 Root     90 :    18.018897171003290
 Root     91 :    18.153983093051720
 Root     92 :    18.216663648998300
 Root     93 :    18.292924531170800
 Root     94 :    18.336333263119370
 Root     95 :    18.442582644591890
 Root     96 :    18.536247813071450
 Root     97 :    18.584131368547520
 Root     98 :    18.681588920319320
 Root     99 :    18.713773347945830
 Root    100 :    18.831473334004840
 Root    101 :    18.856439408585940
 Root    102 :    19.026379156043340
 Root    103 :    19.049536637822850
 Root    104 :    19.177145821125200
 Root    105 :    19.237138591864600
 Root    106 :    19.349004608735570
 Root    107 :    19.386741424054050
 Root    108 :    19.443879963870080
 Root    109 :    19.517609584787890
 Root    110 :    19.607239824497910
 Root    111 :    19.652005427282840
 Root    112 :    19.677432811340580
 Root    113 :    19.769382699163080
 Root    114 :    19.819492496293040
 Root    115 :    19.836307804369860
 Root    116 :    19.971357299778770
 Root    117 :    20.057521890464780
 Root    118 :    20.203298505671150
 Root    119 :    20.243336904443790
 Root    120 :    20.263565800210270
 Root    121 :    20.346967860085020
 Root    122 :    20.367553767584050
 Root    123 :    20.438636067169690
 Root    124 :    20.509120114399470
 Root    125 :    20.538206403752320
 Root    126 :    20.576428312136860
 Root    127 :    20.592168731590660
 Root    128 :    20.678665226700340
 Root    129 :    20.757861300448490
 Root    130 :    20.829324862146420
 Root    131 :    20.902028975555720
 Root    132 :    20.998952043399880
 Root    133 :    21.048217455484950
 Root    134 :    21.092935074167790
 Root    135 :    21.192689420543420
 Root    136 :    21.286181935449470
 Root    137 :    21.339258782993290
 Root    138 :    21.380894187040680
 Root    139 :    21.409977214879950
 Root    140 :    21.481130266395510
 Root    141 :    21.567794035349980
 Root    142 :    21.672694494831950
 Root    143 :    21.697183287302200
 Root    144 :    21.768254063512180
 Root    145 :    21.915526301747090
 Root    146 :    21.946620364637610
 Root    147 :    21.992216987293130
 Root    148 :    22.027968503539580
 Root    149 :    22.070230310178410
 Root    150 :    22.168721473070420
 Root    151 :    22.262369157576520
 Root    152 :    22.284097813474920
 Root    153 :    22.369447049259550
 Root    154 :    22.603138248289320
 Root    155 :    22.674827987785570
 Root    156 :    22.726301477580460
 Root    157 :    22.729567332688690
 Root    158 :    22.870835776727630
 Root    159 :    22.903715368882970
 Root    160 :    22.964526478883930
 Root    161 :    23.116619393095280
 Root    162 :    23.133765773326030
 Root    163 :    23.210967600769740
 Root    164 :    23.233437998549920
 Root    165 :    23.257102462951550
 Root    166 :    23.326813933565980
 Root    167 :    23.403791692500980
 Root    168 :    23.513611554502450
 Root    169 :    23.590165107001750
 Root    170 :    23.621140423570850
 Root    171 :    23.665463220445000
 Root    172 :    23.741532923836830
 Root    173 :    23.797138633007820
 Root    174 :    23.814910343480240
 Root    175 :    23.926300949657650
 Root    176 :    23.982862841263170
 Root    177 :    24.024274444943910
 Root    178 :    24.132483307573810
 Root    179 :    24.154493800744550
 Root    180 :    24.193842262475290
 Root    181 :    24.302100642252300
 Root    182 :    24.352924741708020
 Root    183 :    24.472887495740320
 Root    184 :    24.539088189522700
 Root    185 :    24.600919303924960
 Root    186 :    24.722578394959610
 Root    187 :    24.745716889547900
 Root    188 :    24.875786611397250
 Root    189 :    24.908693785103680
 Root    190 :    24.998898027369530
 Root    191 :    25.072100567532890
 Root    192 :    25.219717488494340
 Root    193 :    25.299780913796690
 Root    194 :    25.303144355994540
 Root    195 :    25.417372433476530
 Root    196 :    25.491970886130770
 Root    197 :    25.591925118077640
 Root    198 :    25.602210850163630
 Root    199 :    25.650148487902060
 Root    200 :    25.706454311126610
 Root    201 :    25.737796136596180
 Root    202 :    25.774991747461860
 Root    203 :    26.032199324643670
 Root    204 :    26.109825876874570
 Root    205 :    26.166379836193360
 Root    206 :    26.267999485533410
 Root    207 :    26.314399941518500
 Root    208 :    26.386954073845300
 Root    209 :    26.440341316580280
 Root    210 :    26.505951745025840
 Root    211 :    26.547092474772360
 Root    212 :    26.570228624052680
 Root    213 :    26.655421309788000
 Root    214 :    26.787261538126810
 Root    215 :    26.844223808827070
 Root    216 :    26.854426305154500
 Root    217 :    26.934246917336580
 Root    218 :    27.039685663351480
 Root    219 :    27.093310669197150
 Root    220 :    27.179298856675140
 Root    221 :    27.222493020018520
 Root    222 :    27.269748792536150
 Root    223 :    27.340428461932860
 Root    224 :    27.386102696364650
 Root    225 :    27.417441957470060
 Root    226 :    27.509303704374770
 Root    227 :    27.618235153097660
 Root    228 :    27.675507495018950
 Root    229 :    27.692861740910370
 Root    230 :    27.792991228052950
 Root    231 :    27.809447853879710
 Root    232 :    27.854584238187090
 Root    233 :    27.883681131138760
 Root    234 :    27.955841346263030
 Root    235 :    28.073522818880110
 Root    236 :    28.137090340849760
 Root    237 :    28.350792469896450
 Root    238 :    28.375030033788910
 Root    239 :    28.458214611106760
 Root    240 :    28.578585684851050
 Root    241 :    28.746825518626010
 Root    242 :    28.811959633542320
 Root    243 :    28.874310234985850
 Root    244 :    28.888201869357190
 Root    245 :    28.979702534660080
 Root    246 :    29.100732888990170
 Root    247 :    29.256081063302420
 Root    248 :    29.369868817589860
 Root    249 :    29.496523271168290
 Root    250 :    29.507540991981630
 Root    251 :    29.518947556643930
 Root    252 :    29.635667730860440
 Root    253 :    29.747505119299130
 Root    254 :    29.853998621892300
 Root    255 :    30.006807346072560
 Root    256 :    30.052237752099410
 Root    257 :    30.133277510239580
 Root    258 :    30.199754038534020
 Root    259 :    30.358691828599890
 Root    260 :    30.377219707103990
 Root    261 :    30.491561328013920
 Root    262 :    30.529870401259350
 Root    263 :    30.553023196650910
 Root    264 :    30.605957947124840
 Root    265 :    30.637617720145420
 Root    266 :    30.716665827094240
 Root    267 :    30.835505366008810
 Root    268 :    30.949530829660590
 Root    269 :    31.071200618542670
 Root    270 :    31.128646706221080
 Root    271 :    31.150884421870540
 Root    272 :    31.192530073365290
 Root    273 :    31.255915888988340
 Root    274 :    31.561455444887780
 Root    275 :    31.630083730173870
 Root    276 :    31.668099661534740
 Root    277 :    31.734522776488580
 Root    278 :    31.776914796827360
 Root    279 :    31.870063133805000
 Root    280 :    31.941461240639410
 Root    281 :    32.037858853603720
 Root    282 :    32.121940148214200
 Root    283 :    32.254365776224110
 Root    284 :    32.288844969259680
 Root    285 :    32.373322548001860
 Root    286 :    32.473007013475800
 Root    287 :    32.557510668290750
 Root    288 :    32.612668354929080
 Root    289 :    32.658808892898480
 Root    290 :    32.703322468776200
 Root    291 :    32.852758874539550
 Root    292 :    32.918154702675320
 Root    293 :    32.977681540464180
 Root    294 :    33.243957344685600
 Root    295 :    33.379534603425710
 Root    296 :    33.447897549319660
 Root    297 :    33.532523524646610
 Root    298 :    33.634460131001120
 Root    299 :    33.680126965022200
 Root    300 :    33.810727933378750
 Root    301 :    33.828237901761610
 Root    302 :    33.923870975410080
 Root    303 :    34.044173792985200
 Root    304 :    34.130175965886120
 Root    305 :    34.218689462091600
 Root    306 :    34.313888899922060
 Root    307 :    34.370976890612350
 Root    308 :    34.455250720741490
 Root    309 :    34.554102953776320
 Root    310 :    34.591422641395290
 Root    311 :    34.951227693632510
 Root    312 :    35.008517511324130
 Root    313 :    35.084343682854370
 Root    314 :    35.169720896102280
 Root    315 :    35.244086858696330
 Root    316 :    35.314951274868890
 Root    317 :    35.369887068988160
 Root    318 :    35.559396632746600
 Root    319 :    35.717486291701000
 Root    320 :    35.843126010011940
 Root    321 :    35.899546011680870
 Root    322 :    35.956008980191260
 Root    323 :    35.995497058725460
 Root    324 :    36.036687605057150
 Root    325 :    36.072808229558400
 Root    326 :    36.172324416567180
 Root    327 :    36.292392469111310
 Root    328 :    36.389967995467290
 Root    329 :    36.524254536165460
 Root    330 :    36.649609392303740
 Root    331 :    36.776506447774400
 Root    332 :    37.060760175727720
 Root    333 :    37.129548520118800
 Root    334 :    37.231184050466930
 Root    335 :    37.270379863689700
 Root    336 :    37.417860711061000
 Root    337 :    37.547059579885040
 Root    338 :    37.595265259260170
 Root    339 :    37.816577699161430
 Root    340 :    37.891084898257460
 Root    341 :    37.932107525605770
 Root    342 :    38.006559582178880
 Root    343 :    38.128339550871710
 Root    344 :    38.220304498425730
 Root    345 :    38.277198973052170
 Root    346 :    38.310105654145050
 Root    347 :    38.388465953637540
 Root    348 :    38.626166076546230
 Root    349 :    38.694615524112320
 Root    350 :    38.773763879388160
 Root    351 :    38.965038725924960
 Root    352 :    39.024621698872130
 Root    353 :    39.149666001256120
 Root    354 :    39.237227858673900
 Root    355 :    39.430203653916340
 Root    356 :    39.566221202457290
 Root    357 :    39.611083211176070
 Root    358 :    39.758469368045380
 Root    359 :    39.811870441378870
 Root    360 :    39.904438509224120
 Root    361 :    40.234344954567990
 Root    362 :    40.265145227318000
 Root    363 :    40.367950681778550
 Root    364 :    40.506251835002290
 Root    365 :    40.571151927446190
 Root    366 :    40.713199110448410
 Root    367 :    40.897769475392650
 Root    368 :    40.991732459293260
 Root    369 :    41.175011746408550
 Root    370 :    41.274759027491400
 Root    371 :    41.384325613034060
 Root    372 :    41.496192271535690
 Root    373 :    41.661682536747830
 Root    374 :    41.670430499899290
 Root    375 :    41.761786920925560
 Root    376 :    41.967402897876990
 Root    377 :    42.054572617535530
 Root    378 :    42.252172665576690
 Root    379 :    42.393588183606010
 Root    380 :    42.519519743192940
 Root    381 :    42.602902164168890
 Root    382 :    42.741103377454880
 Root    383 :    42.823729920240940
 Root    384 :    42.877821683576360
 Root    385 :    42.929918480847650
 Root    386 :    43.135948707192360
 Root    387 :    43.207990234780570
 Root    388 :    43.332571209451880
 Root    389 :    43.399025443984910
 Root    390 :    43.495307681528630
 Root    391 :    43.733513634679650
 Root    392 :    43.881779313657080
 Root    393 :    43.980951468243500
 Root    394 :    44.024323486161050
 Root    395 :    44.353193942044540
 Root    396 :    44.475679393072110
 Root    397 :    44.737616216333480
 Root    398 :    44.873533785445150
 Root    399 :    44.980237715541130
 Root    400 :    45.053602744805570
 Root    401 :    45.210825866261860
 Root    402 :    45.276732275209150
 Root    403 :    45.558186924999670
 Root    404 :    45.739404413951310
 Root    405 :    45.957670219752490
 Root    406 :    46.064354523183270
 Root    407 :    46.192965181100750
 Root    408 :    46.222127782575210
 Root    409 :    46.232504093076500
 Root    410 :    46.308496772954340
 Root    411 :    46.491619518750610
 Root    412 :    46.650399469558970
 Root    413 :    46.702475201989600
 Root    414 :    47.044316360768850
 Root    415 :    47.062606063258290
 Root    416 :    47.587864850148120
 Root    417 :    47.754728500360660
 Root    418 :    47.966621612699900
 Root    419 :    48.050658617163380
 Root    420 :    48.232261303674650
 Root    421 :    48.390274955464840
 Root    422 :    48.486269422722730
 Root    423 :    48.689421719903090
 Root    424 :    48.754485951617470
 Root    425 :    49.029227734740720
 Root    426 :    49.080404413829330
 Root    427 :    49.131245556997340
 Root    428 :    49.219116992911320
 Root    429 :    49.427131635095670
 Root    430 :    49.606107471927740
 Root    431 :    49.693502724315550
 Root    432 :    49.868701656524100
 Root    433 :    50.173396317770500
 Root    434 :    50.215615563797560
 Root    435 :    50.365520288529450
 Root    436 :    50.373862445461110
 Root    437 :    50.488254204145330
 Root    438 :    50.652010684303190
 Root    439 :    50.764984265362950
 Root    440 :    51.169818023418490
 Root    441 :    51.228630180449340
 Root    442 :    51.356884473155460
 Root    443 :    51.476363321759320
 Root    444 :    51.817918986880680
 Root    445 :    51.877284365285950
 Root    446 :    51.918705156936330
 Root    447 :    52.034548679502620
 Root    448 :    52.254959024014550
 Root    449 :    52.377111068101500
 Root    450 :    52.467539276040280
 Root    451 :    52.592601131839790
 Root    452 :    53.235466790848510
 Root    453 :    53.382946746631910
 Root    454 :    53.465233051498660
 Root    455 :    53.616350802105830
 Root    456 :    53.811954577533950
 Root    457 :    53.882725911007230
 Root    458 :    53.920826370446230
 Root    459 :    54.164892222562870
 Root    460 :    54.473954787212830
 Root    461 :    54.623720299554840
 Root    462 :    54.673741695228320
 Root    463 :    54.891999509276500
 Root    464 :    54.925479298123450
 Root    465 :    54.969499333421810
 Root    466 :    54.997457106787630
 Root    467 :    55.298333206825590
 Root    468 :    55.556905216603240
 Root    469 :    55.612060486539690
 Root    470 :    55.750139726512930
 Root    471 :    55.802829634311750
 Root    472 :    55.856610208251390
 Root    473 :    56.287113405626780
 Root    474 :    56.358545694897270
 Root    475 :    56.443972420636780
 Root    476 :    56.585371579010070
 Root    477 :    56.713966406281200
 Root    478 :    56.757087306785810
 Root    479 :    56.989273286250860
 Root    480 :    57.069849029210190
 Root    481 :    57.162117079268800
 Root    482 :    57.470759027634520
 Root    483 :    57.615915037546430
 Root    484 :    57.656992554933970
 Root    485 :    57.775884069835140
 Root    486 :    58.048100427963280
 Root    487 :    58.233363562677790
 Root    488 :    58.441867650129770
 Root    489 :    58.627973633451160
 Root    490 :    58.682814333509300
 Root    491 :    58.762867273648330
 Root    492 :    58.918823859697080
 Root    493 :    58.974682420015990
 Root    494 :    59.193587199439460
 Root    495 :    59.291787135288940
 Root    496 :    59.340366051225750
 Root    497 :    59.616965595896270
 Root    498 :    59.667111011187400
 Root    499 :    59.981350988623300
 Root    500 :    60.317501003078440
 Root    501 :    60.322648622487980
 Root    502 :    60.575189960715140
 Root    503 :    60.825358912749450
 Root    504 :    60.900764761058270
 Root    505 :    60.990761985269010
 Root    506 :    61.025317102443200
 Root    507 :    61.088523069855600
 Root    508 :    61.241962147043940
 Root    509 :    61.715617154229290
 Root    510 :    61.754402442530430
 Root    511 :    61.886151677022800
 Root    512 :    62.193308599800980
 Root    513 :    62.284280687549190
 Root    514 :    62.437262310140140
 Root    515 :    62.578298859890740
 Root    516 :    62.712172316035700
 Root    517 :    62.780724690373490
 Root    518 :    62.862110113938250
 Root    519 :    62.951269381052820
 Root    520 :    63.086078673540610
 Root    521 :    63.175481524895890
 Root    522 :    63.311377291897950
 Root    523 :    63.585647415558480
 Root    524 :    63.777736889889850
 Root    525 :    63.884529008997740
 Root    526 :    63.936082989787220
 Root    527 :    64.024901927050820
 Root    528 :    64.277102541977370
 Root    529 :    64.471849326031190
 Root    530 :    64.543115790149950
 Root    531 :    64.597357578358530
 Root    532 :    64.771053742861480
 Root    533 :    64.922760818480270
 Root    534 :    65.002190348064790
 Root    535 :    65.321399875856870
 Root    536 :    65.472234922458880
 Root    537 :    65.575138991073960
 Root    538 :    65.650917341693510
 Root    539 :    65.770061220731830
 Root    540 :    65.835812133210330
 Root    541 :    66.062395712774400
 Root    542 :    66.313120309463660
 Root    543 :    66.378979483492500
 Root    544 :    66.942028042148960
 Root    545 :    67.081266793481160
 Root    546 :    67.239780089151740
 Root    547 :    67.303390113186170
 Root    548 :    67.511194624294600
 Root    549 :    67.620305612458960
 Root    550 :    67.820539415665020
 Root    551 :    67.889816236156990
 Root    552 :    68.014268138209370
 Root    553 :    68.079575866101790
 Root    554 :    68.127280426096060
 Root    555 :    68.203239907093620
 Root    556 :    68.492600578534390
 Root    557 :    68.656020346060440
 Root    558 :    68.867684352078210
 Root    559 :    69.001540706465560
 Root    560 :    69.217816763540920
 Root    561 :    69.369999286600190
 Root    562 :    69.703996073135270
 Root    563 :    69.823848373472740
 Root    564 :    70.083090226677900
 Root    565 :    70.298707951170980
 Root    566 :    70.571889109654930
 Root    567 :    70.625763263922650
 Root    568 :    70.758946771480320
 Root    569 :    70.852677315357060
 Root    570 :    70.946217333678210
 Root    571 :    71.226148728327100
 Root    572 :    71.528124325192930
 Root    573 :    71.600513958579470
 Root    574 :    71.704342952786550
 Root    575 :    71.949243671065470
 Root    576 :    72.054668216131760
 Root    577 :    72.134304254605480
 Root    578 :    72.173930170825460
 Root    579 :    72.228555338193030
 Root    580 :    72.804425698464840
 Root    581 :    72.817532702042400
 Root    582 :    73.090202839795310
 Root    583 :    73.294236997367830
 Root    584 :    73.477188847382990
 Root    585 :    73.515718821026990
 Root    586 :    73.557825138092070
 Root    587 :    73.823416974723170
 Root    588 :    73.921422179638000
 Root    589 :    74.207573768639950
 Root    590 :    74.384429400949870
 Root    591 :    74.726746164288090
 Root    592 :    74.928717808976320
 Root    593 :    75.072295750449410
 Root    594 :    75.558840856880020
 Root    595 :    75.708853748915370
 Root    596 :    75.965287055387360
 Root    597 :    76.175605883850200
 Root    598 :    76.403374405927830
 Root    599 :    76.463716633872780
 Root    600 :    76.961182734584380
 Root    601 :    77.254251545113520
 Root    602 :    77.354972687835430
 Root    603 :    77.444785522661960
 Root    604 :    77.735258009277440
 Root    605 :    78.005154512343740
 Root    606 :    78.080909501909930
 Root    607 :    78.243420892620080
 Root    608 :    78.316811615434450
 Root    609 :    78.544689531403190
 Root    610 :    78.653886803805150
 Root    611 :    78.719323368418980
 Root    612 :    78.774603729613870
 Root    613 :    78.958059031973700
 Root    614 :    79.118405401948590
 Root    615 :    79.466301650623730
 Root    616 :    79.843437084515320
 Root    617 :    79.902064176312820
 Root    618 :    80.251980890051610
 Root    619 :    80.712302476024890
 Root    620 :    81.031858121225820
 Root    621 :    81.078003136227750
 Root    622 :    81.274751211712470
 Root    623 :    81.355413409887940
 Root    624 :    81.557496876474390
 Root    625 :    82.275920599868750
 Root    626 :    82.335237171412250
 Root    627 :    82.507134207288200
 Root    628 :    82.746076410867790
 Root    629 :    82.805961324013350
 Root    630 :    82.962521693320800
 Root    631 :    83.318557968298820
 Root    632 :    83.577230485167900
 Root    633 :    83.810974013717330
 Root    634 :    83.959246184811480
 Root    635 :    84.529602013166370
 Root    636 :    85.233577978430090
 Root    637 :    85.472086740581390
 Root    638 :    85.606454893706870
 Root    639 :    85.846853320619300
 Root    640 :    86.322066862745490
 Root    641 :    86.383793415574620
 Root    642 :    86.446188241618810
 Root    643 :    86.705016895170540
 Root    644 :    86.749712462622700
 Root    645 :    87.376875931530220
 Root    646 :    87.529985331050900
 Root    647 :    88.210622698152620
 Root    648 :    88.582504024212170
 Root    649 :    88.649275639106120
 Root    650 :    88.912615747709580
 Root    651 :    89.480307888900640
 Root    652 :    89.836286289923790
 Root    653 :    89.937859888678060
 Root    654 :    90.241745574856400
 Root    655 :    90.788916767198220
 Root    656 :    91.213255820025400
 Root    657 :    91.304270840881130
 Root    658 :    91.544821332274750
 Root    659 :    91.606756147050020
 Root    660 :    91.741265278343960
 Root    661 :    92.338364005984530
 Root    662 :    92.807490912413270
 Root    663 :    93.206102399983190
 Root    664 :    93.381404911922660
 Root    665 :    93.524316441962430
 Root    666 :    93.588416728119270
 Root    667 :    93.716328559191960
 Root    668 :    94.048458653125100
 Root    669 :    94.553874843574590
 Root    670 :    95.011603037354520
 Root    671 :    95.183225874744580
 Root    672 :    95.278205948671500
 Root    673 :    95.568036558095130
 Root    674 :    95.950149666968310
 Root    675 :    96.235104139283690
 Root    676 :    96.745103943306970
 Root    677 :    96.867814326977130
 Root    678 :    97.132000086368580
 Root    679 :    97.419137040392040
 Root    680 :    97.854876647126330
 Root    681 :    98.812240409210640
 Root    682 :    98.888012162804260
 Root    683 :    99.101161117247490
 Root    684 :    99.649741902751470
 Root    685 :   100.352980479476200
 Root    686 :   100.578008073902300
 Root    687 :   101.052912792526300
 Root    688 :   101.213841388372700
 Root    689 :   101.459782717245400
 Root    690 :   101.968086442028800
 Root    691 :   102.227500790760600
 Root    692 :   102.438036724526100
 Root    693 :   102.848246848091900
 Root    694 :   103.056829258638700
 Root    695 :   103.252892241541400
 Root    696 :   103.762515182408800
 Root    697 :   104.991149895834900
 Root    698 :   105.497344398566600
 Root    699 :   105.923514770420100
 Root    700 :   105.968773046821200
 Root    701 :   106.109860820066400
 Root    702 :   107.458837600722900
 Root    703 :   107.605913711372800
 Root    704 :   107.898730674706600
 Root    705 :   108.000802167542700
 Root    706 :   109.445956835080800
 Root    707 :   109.540252586992500
 Root    708 :   109.912013271057200
 Root    709 :   110.445056851762800
 Root    710 :   111.201876555228800
 Root    711 :   111.818564306746400
 Root    712 :   112.146385357154100
 Root    713 :   112.566939357584400
 Root    714 :   112.963693906706200
 Root    715 :   114.680149637296800
 Root    716 :   115.453518550398100
 Root    717 :   117.390759217313200
 Root    718 :   119.525514966990700
 Root    719 :   122.257888110077700
 Root    720 :   124.458207049473100
 Convergence achieved for final wavefunctions.
 ***********************************************************************
 Excited states from <AA,BB:AA,BB> singles matrix:
 ***********************************************************************
 
 1PDM for each excited state written to RWF  633
 Ground to excited state transition densities written to RWF  633
 Ground to excited state transition electric dipole moments (Au):
       state          X           Y           Z        Dip. S.      Osc.
         1         0.1617     -0.0567      0.0611      0.0331      0.0048
         2         1.1902     -0.1035     -0.0276      1.4280      0.2162
         3        -0.4230      0.0444      0.1158      0.1943      0.0316
         4        -0.0150     -0.0040      0.4243      0.1803      0.0339
         5        -0.2380     -0.3791     -0.0485      0.2027      0.0399
         6         0.1890     -0.0795     -0.2317      0.0958      0.0193
         7        -0.1704      0.2027     -0.0033      0.0701      0.0153
         8         0.2489     -0.0649      0.0455      0.0683      0.0150
         9        -0.1441     -0.0424     -0.2185      0.0703      0.0162
        10         0.0618      0.7952      0.0362      0.6375      0.1488
        11        -0.0856      0.1653     -0.0329      0.0357      0.0085
        12         0.0482     -0.1031     -0.0580      0.0163      0.0039
        13         0.3116      0.2948     -0.0039      0.1841      0.0461
        14         0.1241      0.2390      0.0605      0.0762      0.0197
        15        -0.5261      0.6124     -0.0600      0.6553      0.1700
        16        -0.1086     -0.0784      0.0591      0.0214      0.0057
        17         0.2144     -0.0426     -0.0051      0.0478      0.0128
        18         0.5436     -0.1287     -0.0157      0.3123      0.0840
        19        -0.4075     -0.0014     -0.0901      0.1742      0.0479
        20        -0.3931     -0.0803      0.3749      0.3015      0.0833
        21         0.0771      0.0559      0.1974      0.0480      0.0139
        22        -0.6486     -0.1478      0.1187      0.4566      0.1333
        23         0.1786      0.0221      0.4396      0.2256      0.0663
        24         0.2794     -0.1259      0.1872      0.1290      0.0383
        25        -0.0814     -0.0204      0.1472      0.0287      0.0085
        26         0.1668     -0.1621      0.0181      0.0544      0.0163
        27        -0.0395      0.0434     -0.1137      0.0164      0.0050
        28         0.5462     -0.0797     -0.1568      0.3293      0.1002
        29         0.1062      0.0417      0.6325      0.4130      0.1271
        30        -0.1829     -0.1919      0.2227      0.1198      0.0375
        31        -0.3023      0.3563     -0.2546      0.2831      0.0893
        32        -0.1091     -0.4999     -0.1298      0.2787      0.0889
        33        -0.1268      0.2896      0.2118      0.1448      0.0462
        34         0.0716      0.3515     -0.1672      0.1566      0.0508
        35        -0.3709     -0.0933      0.0509      0.1489      0.0488
        36         0.0395      0.0134     -0.0213      0.0022      0.0007
        37        -0.3039      0.0402     -0.1090      0.1059      0.0353
        38        -0.0895      0.0373     -0.0384      0.0109      0.0037
        39        -0.0119      0.2164      0.0201      0.0474      0.0160
        40         0.2134     -0.1113      0.2895      0.1417      0.0487
        41        -0.3831      0.0591     -0.1503      0.1729      0.0599
        42        -0.0503      0.2698      0.0643      0.0794      0.0278
        43         0.1884      0.0225      0.1857      0.0705      0.0248
        44         0.1011      0.1118      0.2348      0.0778      0.0276
        45        -0.3016      0.1163      0.1165      0.1181      0.0419
        46        -0.1906      0.0712      0.0878      0.0491      0.0176
        47        -0.2062      0.0423      0.1138      0.0573      0.0207
        48        -0.2386      0.0472     -0.0928      0.0678      0.0245
        49         0.5459      0.0936     -0.2116      0.3515      0.1288
        50        -0.1707     -0.4569     -0.1116      0.2503      0.0918
        51         0.2065      0.3673     -0.0798      0.1839      0.0677
        52         0.0346      0.2676      0.0483      0.0751      0.0280
        53         0.2028     -0.2597      0.1082      0.1203      0.0454
        54         0.0595     -0.1325     -0.1757      0.0519      0.0197
        55        -0.0778      0.1879     -0.3860      0.1903      0.0727
        56        -0.0379     -0.2603     -0.2155      0.1156      0.0442
        57         0.0427     -0.0688     -0.0721      0.0118      0.0045
[...]
     14  -0.535303D+00  0.991673D-01  0.193709D+00 -0.106008D+00 -0.245618D+00
     15  -0.740968D-01 -0.849596D-01 -0.374047D-01 -0.156591D+00 -0.114331D-01
     16  -0.742615D-01 -0.100901D+00 -0.340571D-01  0.109840D+00 -0.173372D+00
               651           652           653           654           655 
      1  -0.146523D+03 -0.146510D+03 -0.146507D+03 -0.146495D+03 -0.146475D+03
      2   0.234333D-02 -0.375351D-02 -0.116651D+00  0.698370D-01  0.124215D-01
      3  -0.298018D-01  0.522783D-01 -0.507580D-01  0.418172D-01  0.614740D-01
      4   0.445769D-01  0.157811D-01 -0.222514D-01 -0.391464D-01 -0.441533D-02
      5   0.120204D-01  0.284971D-01  0.386159D+00 -0.219508D+00 -0.303839D-01
      6   0.867262D-01 -0.156401D+00  0.151449D+00 -0.131945D+00 -0.178690D+00
      7  -0.127481D+00 -0.444492D-01  0.669249D-01  0.129448D+00  0.144865D-01
      8   0.541355D-02 -0.142955D-01 -0.616984D-01  0.200959D+00 -0.733285D-01
      9   0.201731D+00  0.605142D-02 -0.976893D-01 -0.491445D-01 -0.244589D-01
     10  -0.812313D-01  0.248143D+00  0.193304D+00 -0.106167D+00  0.221421D+00
     11  -0.578156D-01  0.520547D+00  0.463904D+00 -0.101986D+01  0.599611D-01
     12  -0.934966D-01  0.162327D+00 -0.287329D+00 -0.106874D+00 -0.172792D+00
     13   0.137131D+00  0.325073D-01  0.155502D-01 -0.405723D-01  0.323354D-01
     14  -0.286889D+00 -0.276453D+00 -0.140287D+00 -0.264237D+00  0.205705D+00
     15  -0.275072D+00  0.165146D-01  0.482257D-01  0.183441D-01  0.627394D-01
     16   0.709603D-02  0.231716D-01 -0.163022D+00  0.365396D+00 -0.130251D+00
               656           657           658           659           660 
      1  -0.146460D+03 -0.146456D+03 -0.146448D+03 -0.146445D+03 -0.146440D+03
      2  -0.118546D-01  0.270529D-01 -0.654566D-01  0.632991D-02 -0.797734D-02
      3   0.197645D-01 -0.637360D-02  0.676933D-02  0.264636D-01 -0.671032D-01
      4   0.241404D-01  0.363885D-02 -0.146557D-01  0.328616D-01  0.320263D-01
      5   0.414206D-01 -0.102296D+00  0.196185D+00 -0.153998D-01  0.292967D-01
      6  -0.556221D-01  0.407861D-02 -0.214685D-01 -0.765212D-01  0.204151D+00
      7  -0.695588D-01 -0.771095D-02  0.418583D-01 -0.937471D-01 -0.100106D+00
      8  -0.617740D-01 -0.141738D+00  0.306163D-01  0.395897D-02  0.690408D-01
      9   0.533764D+00  0.138694D+00 -0.204519D+00  0.484729D-01  0.106687D+00
     10   0.606117D-01 -0.486549D+00 -0.245107D-02 -0.101358D+00  0.154260D+00
     11   0.275425D-01 -0.100654D+00  0.431483D-01  0.356967D+00 -0.753641D+00
     12  -0.273531D-01 -0.114497D-01  0.357289D+00  0.948933D-01  0.104869D+00
     13   0.863646D-01  0.715519D-01 -0.535439D-02 -0.190357D+00 -0.283137D+00
     14  -0.150079D+00 -0.461604D+00 -0.473381D+00 -0.264372D+00 -0.363611D+00
     15  -0.602542D+00 -0.113686D+00  0.322668D+00 -0.162094D-01 -0.797130D-01
     16  -0.125437D+00 -0.181088D+00  0.620192D-01  0.450719D-01  0.156079D+00
               661           662           663           664           665 
      1  -0.146418D+03 -0.146401D+03 -0.146386D+03 -0.146380D+03 -0.146375D+03
      2   0.145629D-01  0.968130D-02 -0.410297D-01 -0.265372D-01 -0.216641D-01
      3   0.393718D-01  0.231981D-01 -0.711858D-01 -0.493399D-01  0.260219D-01
      4  -0.160186D+00  0.813734D-01 -0.558412D-02 -0.208069D-01 -0.146081D-01
      5  -0.406053D-01 -0.272097D-01  0.117004D+00  0.869809D-01  0.736176D-01
      6  -0.127527D+00 -0.718789D-01  0.214335D+00  0.164590D+00 -0.861077D-01
      7   0.501111D+00 -0.237878D+00  0.116198D-01  0.702329D-01  0.384462D-01
      8  -0.482892D-01  0.101259D+00 -0.169071D+00  0.127516D+00 -0.739813D-01
      9  -0.888721D+00  0.213470D+00  0.272644D+00 -0.272434D+00 -0.896729D-01
     10  -0.318801D+00 -0.158164D-01  0.486056D-01  0.377309D+00 -0.887420D-01
     11  -0.792198D+00 -0.282036D+00 -0.370207D+00 -0.471108D-01  0.307618D-02
     12  -0.696928D-02  0.338684D-01 -0.332660D+00 -0.426660D+00 -0.275197D+00
     13  -0.258388D+00  0.608929D-01  0.217138D+00  0.578254D-01  0.282136D-01
     14  -0.604680D+00 -0.182188D+00  0.889062D-01  0.202228D+00 -0.307912D+00
     15   0.864105D+00 -0.205814D+00 -0.239916D+00  0.348386D+00  0.774281D-01
     16  -0.176903D+00 -0.174179D-01 -0.266193D+00  0.143679D+00 -0.110855D-01
               666           667           668           669           670 
      1  -0.146372D+03 -0.146368D+03 -0.146356D+03 -0.146337D+03 -0.146320D+03
      2   0.571280D-01  0.218711D-01  0.102948D-02 -0.105016D+00  0.193788D-01
      3   0.370732D-01 -0.427868D-01 -0.692895D-01  0.396486D-01  0.509170D-01
      4  -0.713827D-02  0.473407D-01  0.254213D-01  0.125189D+00 -0.951956D-02
      5  -0.177603D+00 -0.702740D-01  0.257850D-02  0.335784D+00 -0.675350D-01
      6  -0.114016D+00  0.130492D+00  0.211724D+00 -0.126135D+00 -0.167597D+00
      7   0.155983D-01 -0.144403D+00 -0.758970D-01 -0.376326D+00  0.252502D-01
      8  -0.171274D+00 -0.390833D-01  0.197118D-01  0.184446D+00 -0.125940D+00
      9   0.314334D+00  0.295457D+00  0.106712D+00  0.558095D+00  0.215396D+00
     10   0.107229D+00 -0.153938D-01  0.605435D-01 -0.184490D+00 -0.424072D+00
     11   0.902835D-01 -0.134184D+00  0.999962D-01  0.785323D+00  0.242291D+00
     12  -0.100246D+00 -0.192658D+00 -0.195135D-01  0.265620D-01 -0.145016D+00
     13   0.746144D-01  0.103792D+00  0.153769D+00  0.182812D+00  0.672504D-01
     14   0.120827D+00 -0.326633D-02  0.218171D+00 -0.156980D+00 -0.230122D+00
     15  -0.303683D+00 -0.322545D+00 -0.149728D+00 -0.738502D+00 -0.244939D+00
     16  -0.268825D+00 -0.111754D+00  0.279786D-01  0.280617D+00 -0.207807D+00
               671           672           673           674           675 
      1  -0.146314D+03 -0.146310D+03 -0.146300D+03 -0.146286D+03 -0.146275D+03
      2   0.330343D-01  0.150925D-01  0.530275D-01 -0.718403D-01  0.105884D-01
      3   0.117551D-01  0.659951D-01 -0.995238D-02 -0.287605D-01  0.625016D-02
      4   0.189924D-01 -0.243223D-01 -0.694052D-02 -0.245741D-01  0.227477D-01
      5  -0.112331D+00 -0.490489D-01 -0.172127D+00  0.243164D+00 -0.449278D-01
      6  -0.135839D-01 -0.204136D+00  0.453383D-01  0.982652D-01 -0.202156D-01
      7  -0.591450D-01  0.738084D-01  0.190911D-01  0.847893D-01 -0.815863D-01
      8   0.332374D-01 -0.545907D-01  0.170468D-01 -0.382439D-01 -0.152465D-01
      9   0.243430D-01 -0.468587D-01 -0.957830D-01 -0.104661D+00  0.331624D+00
     10  -0.142286D+00  0.199661D-01 -0.157951D+00  0.149849D+00 -0.234393D+00
     11   0.201730D-01  0.646345D-01  0.690502D+00  0.174882D+00 -0.183916D+00
     12  -0.127849D+00 -0.139852D+00 -0.248525D+00 -0.405239D+00 -0.937541D-01
     13  -0.534075D-02 -0.101605D-01  0.163374D+00 -0.102781D+00  0.129140D+00
     14   0.127786D+00 -0.120860D+00 -0.558692D-01 -0.315353D+00 -0.739388D-01
     15  -0.671005D-01  0.632683D-01  0.783090D-01  0.105515D+00 -0.354304D+00
     16   0.634234D-01 -0.595359D-02  0.114462D+00 -0.115780D+00  0.619174D-01
               676           677           678           679           680 
      1  -0.146256D+03 -0.146252D+03 -0.146242D+03 -0.146232D+03 -0.146216D+03
      2  -0.215818D-01  0.267174D-01  0.401548D-01 -0.582166D-01  0.842431D-01
      3  -0.947911D-02  0.639343D-01  0.511398D-01  0.309153D-01 -0.113947D-01
      4  -0.359344D-01 -0.122832D-01 -0.695496D-02  0.147053D-01 -0.202624D-01
      5   0.548945D-01 -0.834721D-01 -0.139698D+00  0.179240D+00 -0.270785D+00
      6   0.304343D-01 -0.200318D+00 -0.162951D+00 -0.104541D+00  0.187745D-01
      7   0.107350D+00  0.344464D-01  0.198980D-01 -0.533492D-01  0.633898D-01
      8   0.904388D-01  0.282992D+00 -0.183330D-01  0.593204D-01  0.972664D-01
      9  -0.332293D+00 -0.511837D+00  0.441216D-01 -0.478128D-01 -0.206285D+00
     10  -0.308021D+00 -0.275601D+00  0.136125D+00 -0.333249D+00  0.179523D+00
     11  -0.573863D+00  0.528631D+00 -0.704582D+00 -0.334256D+00  0.233724D+00
     12   0.236995D-01  0.171450D+00 -0.133445D+00 -0.167112D+00 -0.485927D+00
     13  -0.157175D+00 -0.213152D+00 -0.480725D-01 -0.469045D-01 -0.750636D-01
     14  -0.241465D+00 -0.172956D+00  0.121916D+00 -0.207924D+00  0.238427D+00
     15   0.403298D+00  0.585241D+00 -0.967330D-03  0.673577D-01  0.284589D+00
     16   0.207858D+00  0.483849D+00 -0.414424D-01  0.224660D+00  0.170975D+00
               681           682           683           684           685 
      1  -0.146180D+03 -0.146178D+03 -0.146170D+03 -0.146150D+03 -0.146124D+03
      2  -0.421161D-01  0.149016D-01 -0.450301D-01 -0.426712D-02 -0.346336D-01
      3   0.790469D-01  0.941712D-02  0.619910D-01 -0.764633D-01  0.631754D-01
      4  -0.123132D-01  0.116655D-01 -0.619598D-02 -0.731888D-02  0.124307D-02
      5   0.128621D+00 -0.420557D-01  0.135638D+00  0.655475D-02  0.112713D+00
      6  -0.236536D+00 -0.264202D-01 -0.194361D+00  0.242148D+00 -0.190883D+00
      7   0.452016D-01 -0.280087D-01  0.108999D-01  0.216105D-01 -0.286765D-02
      8   0.100183D+00 -0.340179D-01 -0.189250D+00  0.130327D+00 -0.856819D-01
      9  -0.209178D+00  0.817459D-01  0.153634D+00 -0.213301D+00  0.670906D-01
     10  -0.571066D-01  0.654961D-01 -0.493943D+00  0.617744D-01 -0.222078D+00
     11   0.180746D+00 -0.102743D+00  0.392917D+00 -0.560334D-01  0.106109D+01
     12   0.651254D-01  0.210193D-01 -0.182504D+00 -0.245181D+00 -0.101255D+00
     13  -0.829219D-01  0.243105D-01  0.156105D+00  0.471435D-01  0.898609D-01
     14  -0.257496D+00  0.615844D-01 -0.306669D+00  0.255964D-01 -0.292827D+00
     15   0.112427D+00 -0.128059D+00 -0.118868D+00  0.297214D+00 -0.109906D+00
     16   0.216711D+00  0.118292D+00 -0.145958D+00  0.170319D+00 -0.371672D-01
               686           687           688           689           690 
      1  -0.146116D+03 -0.146098D+03 -0.146092D+03 -0.146083D+03 -0.146064D+03
      2   0.157469D-01  0.282416D-01  0.208229D-01 -0.266872D-02  0.506822D-01
      3  -0.379029D-01  0.818267D-02  0.220364D-01 -0.751175D-01 -0.123531D-01
      4   0.659400D-01 -0.265946D-01  0.611076D-01 -0.265538D-01 -0.866295D-02
      5  -0.441075D-01 -0.903939D-01 -0.755945D-01  0.781915D-02 -0.161193D+00
      6   0.138886D+00 -0.256302D-01 -0.737059D-01  0.244615D+00  0.395297D-01
      7  -0.218484D+00  0.805166D-01 -0.192285D+00  0.771483D-01  0.261911D-01
      8  -0.292122D-01 -0.374194D-01  0.102692D+00 -0.385895D-01  0.203129D-01
      9   0.423148D+00 -0.644688D-01  0.847980D-01 -0.627683D-01 -0.359480D-01
     10  -0.119551D+00  0.591298D-01  0.311651D-01  0.263313D+00  0.147653D+00
     11  -0.120006D+00 -0.813283D+00 -0.416628D+00  0.187717D+00  0.112538D+00
     12   0.145091D-01 -0.400284D+00 -0.738161D-01 -0.207594D+00 -0.777232D-01
     13   0.682866D-01  0.176059D+00  0.450919D-01  0.342318D-01  0.178303D+00
     14  -0.495660D-01  0.175343D+00  0.141887D+00  0.207602D+00  0.130264D+00
     15  -0.401077D+00  0.171081D+00 -0.537531D-01  0.428703D-01  0.216029D-01
     16  -0.470678D-01 -0.416620D-01  0.230888D+00 -0.120928D-01  0.371634D-01
               691           692           693           694           695 
      1  -0.146055D+03 -0.146047D+03 -0.146032D+03 -0.146024D+03 -0.146017D+03
      2   0.143893D-01  0.350469D-01  0.260112D-01 -0.752625D-01  0.681254D-01
      3  -0.403540D-01 -0.411025D-01 -0.650975D-01  0.414301D-01 -0.213608D-01
      4   0.125846D-01  0.121466D-01  0.373794D-01  0.454212D-01  0.370398D-01
      5  -0.450516D-01 -0.119997D+00 -0.806086D-01  0.265926D+00 -0.236879D+00
      6   0.122614D+00  0.143351D+00  0.222286D+00 -0.135673D+00  0.740307D-01
      7  -0.375629D-01 -0.372329D-01 -0.125134D+00 -0.160586D+00 -0.115676D+00
      8   0.229185D-01  0.250146D-01  0.176236D-01 -0.431534D-01 -0.534926D-01
      9  -0.114557D-01  0.570768D-01  0.159340D+00  0.305725D+00  0.331831D+00
     10  -0.419577D+00 -0.989002D-01  0.115048D+00  0.647623D-02  0.340261D+00
     11  -0.243878D+00  0.160710D+00 -0.130121D+00 -0.223077D+00 -0.473707D+00
     12  -0.117374D+00 -0.116360D+00 -0.177039D+00 -0.351519D+00  0.114227D+00
     13   0.166736D+00  0.131316D-01  0.256263D-01  0.102416D+00  0.826158D-01
     14  -0.467665D+00  0.142872D-01  0.798094D-01 -0.683546D+00  0.528229D+00
     15   0.189692D-01 -0.109434D+00 -0.707100D-01 -0.244097D+00 -0.272055D+00
     16   0.677227D-01 -0.297189D-02 -0.273034D-01  0.107078D+00 -0.207612D+00
               696           697           698           699           700 
      1  -0.145999D+03 -0.145953D+03 -0.145935D+03 -0.145919D+03 -0.145917D+03
      2  -0.468727D-01 -0.102677D+00  0.321391D-01 -0.144275D-02 -0.529700D-02
      3  -0.109726D-01  0.326009D-01 -0.260603D-01 -0.479484D-01 -0.227234D-01
      4  -0.689307D-01  0.115182D-01 -0.910917D-02 -0.801308D-02 -0.301054D-02
      5   0.153918D+00  0.371885D+00 -0.130771D+00  0.259592D-02  0.384723D-01
      6   0.396336D-01 -0.106086D+00  0.943732D-01  0.157788D+00  0.691213D-01
      7   0.228351D+00 -0.339259D-01  0.334354D-01  0.317530D-01  0.922570D-02
      8  -0.408977D-01  0.519059D-02  0.418720D-01  0.153370D-01 -0.418613D-01
      9  -0.379207D+00  0.228429D-01 -0.139356D+00 -0.556051D-01  0.515304D-01
     10   0.426105D-01  0.226810D+00  0.925208D-01  0.278607D+00 -0.170795D+00
     11   0.551322D+00  0.802353D-01 -0.340439D+00  0.772549D-01 -0.234042D+00
     12   0.118934D-01  0.575558D+00 -0.393904D+00 -0.952491D-01  0.228495D+00
     13  -0.511498D-01  0.505068D-01  0.115093D+00  0.273296D-01 -0.434676D-01
     14   0.157082D+00 -0.192200D+00  0.588550D+00  0.435729D+00 -0.340397D+00
     15   0.430878D+00 -0.675095D-01  0.118359D+00  0.108249D+00  0.357532D-01
     16  -0.289808D-01 -0.336829D-01 -0.867089D-02  0.546104D-01 -0.153251D-01
               701           702           703           704           705 
      1  -0.145912D+03 -0.145863D+03 -0.145857D+03 -0.145847D+03 -0.145843D+03
      2  -0.205099D-02 -0.552200D-01 -0.166178D-01 -0.102387D-01 -0.336808D-01
      3   0.127785D-01 -0.415533D-01  0.208359D-02  0.389284D-01 -0.315355D-01
      4  -0.446111D-02 -0.280645D-01 -0.138901D-01  0.755270D-02  0.151208D-01
      5  -0.821822D-03  0.209669D+00  0.704824D-01  0.450842D-01  0.113198D+00
      6  -0.540518D-01  0.166402D+00 -0.105475D-01 -0.108381D+00  0.110362D+00
      7   0.110454D-01  0.105180D+00  0.474907D-01 -0.259938D-01 -0.456817D-01
      8   0.199082D-01  0.790464D-02  0.418767D-01 -0.101553D-01  0.164367D+00
      9  -0.591339D-01 -0.223892D+00 -0.166828D+00  0.804230D-01 -0.189141D+00
     10  -0.142992D+00 -0.174523D+00 -0.189340D-01  0.169973D+00  0.232654D-01
     11  -0.944815D-01  0.554376D+00 -0.145883D+00  0.388686D+00  0.393628D+00
     12   0.223920D+00 -0.129611D+00  0.452275D-01  0.132412D+00 -0.114140D+00
     13  -0.725693D-01  0.371331D-01  0.237255D-01 -0.115642D+00  0.384753D-02
     14  -0.243851D+00  0.147311D+00 -0.127076D+00  0.249609D+00  0.109012D+00
     15   0.704712D-02  0.257836D-01  0.122881D+00 -0.693146D-01  0.303377D+00
     16   0.431709D-02 -0.702910D-01  0.411208D-01 -0.131734D-01  0.203722D+00
               706           707           708           709           710 
      1  -0.145790D+03 -0.145786D+03 -0.145773D+03 -0.145753D+03 -0.145725D+03
      2   0.320513D-01 -0.250459D-01 -0.428322D-01 -0.310217D-01 -0.387011D-02
      3  -0.653493D-01 -0.775980D-02 -0.578164D-01 -0.197775D-02  0.339954D-01
      4   0.241434D-01  0.704508D-02 -0.359318D-01 -0.324691D-01  0.188324D-01
      5  -0.114202D+00  0.795196D-01  0.153139D+00  0.136025D+00  0.221463D-01
      6   0.249794D+00  0.210359D-01  0.220535D+00  0.121648D-01 -0.100823D+00
      7  -0.852640D-01 -0.258054D-01  0.123817D+00  0.110863D+00 -0.654407D-01
      8  -0.272017D-01 -0.287319D-01  0.960008D-01  0.133420D-01 -0.226568D-01
      9   0.205733D+00  0.730471D-02 -0.289140D+00 -0.200597D+00  0.146872D+00
     10   0.125026D+00 -0.468163D+00  0.637931D+00  0.539634D-01  0.140497D+00
     11   0.631033D-01  0.800743D+00  0.412795D+00  0.859640D+00  0.146467D+00
     12  -0.226599D+00 -0.461041D+00  0.151292D+00 -0.367129D-02  0.126323D+00
     13   0.354467D-01  0.613299D-02 -0.302043D-01  0.435944D-01 -0.857845D-01
     14  -0.114899D-01 -0.211663D+00  0.593223D+00 -0.127706D+00 -0.916698D-02
     15  -0.162309D+00 -0.944463D-01  0.225402D+00  0.851889D-01 -0.121551D+00
     16  -0.680590D-01  0.603191D-01 -0.540445D-01  0.226994D-01  0.262160D-03
               711           712           713           714           715 
      1  -0.145702D+03 -0.145690D+03 -0.145675D+03 -0.145660D+03 -0.145597D+03
      2  -0.102121D+00  0.190912D-01 -0.361816D-01 -0.165938D-01 -0.685174D-01
      3  -0.732485D-01  0.874927D-02  0.331598D-01  0.194257D-01 -0.426036D-01
      4   0.132755D-01  0.120351D-01  0.365955D-03  0.293617D-01  0.128197D-01
      5   0.400273D+00 -0.790834D-01  0.148510D+00  0.329522D-01  0.288246D+00
      6   0.263586D+00 -0.344560D-01 -0.108494D+00 -0.898314D-01  0.176630D+00
      7  -0.525438D-01 -0.423026D-01 -0.308817D-02 -0.100447D+00 -0.509211D-01
      8   0.198188D-01 -0.426879D-02 -0.197752D-01 -0.388089D-01  0.980513D-02
      9   0.783184D-01  0.134457D+00  0.183624D-01  0.210190D+00  0.759231D-01
     10   0.702443D+00  0.261843D+00 -0.328440D+00 -0.258090D+00  0.285747D+00
     11   0.667721D+00 -0.959733D+00  0.781546D+00 -0.147117D+00  0.776798D+00
     12  -0.362808D+00  0.328028D+00 -0.359670D+00  0.112258D+00 -0.486955D-01
     13   0.455688D-01  0.166405D-01  0.499969D-01 -0.102832D+00 -0.542297D-01
     14   0.272598D+00  0.207727D+00 -0.719220D-01 -0.284213D+00  0.334219D+00
     15  -0.154063D+00 -0.257620D-01 -0.142397D+00 -0.193072D+00 -0.178058D+00
     16  -0.630413D-01 -0.710533D-01  0.726789D-01  0.430277D-01 -0.500847D-01
               716           717           718           719           720 
      1  -0.145569D+03 -0.145498D+03 -0.145419D+03 -0.145319D+03 -0.145238D+03
      2  -0.564930D-01 -0.101567D-01 -0.482433D-02 -0.286357D-02 -0.227930D-01
      3   0.564831D-01 -0.859378D-02  0.147637D-02 -0.314236D-01  0.197738D-02
      4  -0.164635D-01  0.272518D-02  0.564066D-02 -0.361644D-02 -0.343101D-02
      5   0.179148D+00  0.456076D-01  0.170196D-03 -0.259404D-01  0.221058D-01
      6  -0.190665D+00  0.180441D-01 -0.194572D-01  0.102038D+00 -0.314540D-01
      7   0.560887D-01 -0.714743D-02 -0.174980D-01  0.166191D-01  0.161918D-01
      8   0.324783D-02  0.280714D-01 -0.118054D-01  0.766998D-02 -0.586735D-02
      9  -0.129421D+00 -0.373902D-01  0.354854D-01  0.715141D-02 -0.234803D-01
     10  -0.254406D+00  0.235363D+00 -0.140190D+00  0.337881D+00 -0.593810D-01
     11  -0.737190D-02  0.502359D+00  0.564227D+00 -0.444163D+00  0.350054D+00
     12   0.127528D+00  0.262722D+00  0.416501D+00  0.131238D+00 -0.150310D+00
     13  -0.116135D-01 -0.409267D-01 -0.887103D-01 -0.221964D-01  0.245710D-01
     14  -0.271668D+00  0.125147D+00  0.255951D+00  0.280675D+00  0.336996D-01
     15   0.539494D-01  0.186212D-01 -0.108469D+00  0.395261D-01 -0.246560D-01
     16   0.104657D+00 -0.499920D-01 -0.399165D-01 -0.116935D+00  0.224158D-01
 Unable to Open any file for archive entry.
 1\1\GINC-HEL04\SP\RwB97XD TD-FC\Gen\C1H4N2\RR\12-Feb-2022\0\\#P TD(Nst
 ates=10000) wB97XD/Gen SCF(maxcycles=100) Int(Grid=ultrafine)\\xGDB7_0
 0001_tier4.com\\0,1\N,0,1.103618,0.139891,-0.083217\N,0,-0.072588,-0.5
 06265,0.004864\C,0,-1.155369,0.162724,0.008193\H,0,1.87531,-0.4115,0.2
 69912\H,0,1.124899,1.116158,0.216077\H,0,-2.101707,-0.383324,0.034098\
 H,0,-1.183499,1.266937,-0.020767\\Version=EM64L-G16RevC.01\State=1-A\H
 F=-149.8117496\RMSD=2.690e-09\PG=C01 [X(C1H4N2)]\\@
 The archive entry for this job was punched.


 SCIENCE IS LONG AND LIFE IS SHORT.

                     DON MOSER IN THE FEBRUARY 1979 SMITHSONIAN
 Job cpu time:       0 days  0 hours 13 minutes  1.6 seconds.
 Elapsed time:       0 days  0 hours  1 minutes 38.2 seconds.
 File lengths (MBytes):  RWF=    666 Int=      0 D2E=      0 Chk=    150 Scr=      1
 Normal termination of Gaussian 16 at Sat Feb 12 21:42:02 2022.
