 Entering Gaussian System, Link 0=g16
 Input=bigQM7w_TDwB97XD_def2SVPD_000021.com
 Output=bigQM7w_TDwB97XD_def2SVPD_000021.log
 Initial command:
 /home/rr/g16/l1.exe "/scratch/rr/PBS_7839466.helios/Gau-84707.inp" -scrdir="/scratch/rr/PBS_7839466.helios/"
 Entering Link 1 = /home/rr/g16/l1.exe PID=     84711.
  
 Copyright (c) 1988-2019, Gaussian, Inc.  All Rights Reserved.
  
 This is part of the Gaussian(R) 16 program.  It is based on
 the Gaussian(R) 09 system (copyright 2009, Gaussian, Inc.),
 the Gaussian(R) 03 system (copyright 2003, Gaussian, Inc.),
 the Gaussian(R) 98 system (copyright 1998, Gaussian, Inc.),
 the Gaussian(R) 94 system (copyright 1995, Gaussian, Inc.),
 the Gaussian 92(TM) system (copyright 1992, Gaussian, Inc.),
 the Gaussian 90(TM) system (copyright 1990, Gaussian, Inc.),
 the Gaussian 88(TM) system (copyright 1988, Gaussian, Inc.),
 the Gaussian 86(TM) system (copyright 1986, Carnegie Mellon
 University), and the Gaussian 82(TM) system (copyright 1983,
 Carnegie Mellon University). Gaussian is a federally registered
 trademark of Gaussian, Inc.
  
 This software contains proprietary and confidential information,
 including trade secrets, belonging to Gaussian, Inc.
  
 This software is provided under written license and may be
 used, copied, transmitted, or stored only in accord with that
 written license.
  
 The following legend is applicable only to US Government
 contracts under FAR:
  
                    RESTRICTED RIGHTS LEGEND
  
 Use, reproduction and disclosure by the US Government is
 subject to restrictions as set forth in subparagraphs (a)
 and (c) of the Commercial Computer Software - Restricted
 Rights clause in FAR 52.227-19.
  
 Gaussian, Inc.
 340 Quinnipiac St., Bldg. 40, Wallingford CT 06492
  
  
 ---------------------------------------------------------------
 Warning -- This program may not be used in any manner that
 competes with the business of Gaussian, Inc. or will provide
 assistance to any competitor of Gaussian, Inc.  The licensee
 of this program is prohibited from giving any competitor of
 Gaussian, Inc. access to this program.  By using this program,
 the user acknowledges that Gaussian, Inc. is engaged in the
 business of creating and licensing software in the field of
 computational chemistry and represents and warrants to the
 licensee that it is not a competitor of Gaussian, Inc. and that
 it will not use this program in any manner prohibited above.
 ---------------------------------------------------------------
  

 Cite this work as:
 Gaussian 16, Revision C.01,
 M. J. Frisch, G. W. Trucks, H. B. Schlegel, G. E. Scuseria, 
 M. A. Robb, J. R. Cheeseman, G. Scalmani, V. Barone, 
 G. A. Petersson, H. Nakatsuji, X. Li, M. Caricato, A. V. Marenich, 
 J. Bloino, B. G. Janesko, R. Gomperts, B. Mennucci, H. P. Hratchian, 
 J. V. Ortiz, A. F. Izmaylov, J. L. Sonnenberg, D. Williams-Young, 
 F. Ding, F. Lipparini, F. Egidi, J. Goings, B. Peng, A. Petrone, 
 T. Henderson, D. Ranasinghe, V. G. Zakrzewski, J. Gao, N. Rega, 
 G. Zheng, W. Liang, M. Hada, M. Ehara, K. Toyota, R. Fukuda, 
 J. Hasegawa, M. Ishida, T. Nakajima, Y. Honda, O. Kitao, H. Nakai, 
 T. Vreven, K. Throssell, J. A. Montgomery, Jr., J. E. Peralta, 
 F. Ogliaro, M. J. Bearpark, J. J. Heyd, E. N. Brothers, K. N. Kudin, 
 V. N. Staroverov, T. A. Keith, R. Kobayashi, J. Normand, 
 K. Raghavachari, A. P. Rendell, J. C. Burant, S. S. Iyengar, 
 J. Tomasi, M. Cossi, J. M. Millam, M. Klene, C. Adamo, R. Cammi, 
 J. W. Ochterski, R. L. Martin, K. Morokuma, O. Farkas, 
 J. B. Foresman, and D. J. Fox, Gaussian, Inc., Wallingford CT, 2019.
 
 ******************************************
 Gaussian 16:  EM64L-G16RevC.01  3-Jul-2019
                12-Feb-2022 
 ******************************************
 %mem=64gb
 %nproc=8
 Will use up to    8 processors via shared memory.
 ----------------------------------------------------------------------
 #P TD(Nstates=10000) wB97XD/Gen SCF(maxcycles=100) Int(Grid=ultrafine)
 ----------------------------------------------------------------------
 1/38=1,172=1/1;
 2/12=2,17=6,18=5,40=1/2;
 3/5=7,11=9,25=1,30=1,74=-58,75=-5/1,2,3,8;
 4//1;
 5/5=2,7=100,38=5/2;
 8/6=1,10=1,108=10000/1;
 9/41=10000,42=1,70=2/14;
 6/7=2,8=2,9=2,10=2/1;
 99/5=1,9=1/99;
 Leave Link    1 at Sat Feb 12 22:17:54 2022, MaxMem=  8589934592 cpu:               0.4 elap:               0.1
 (Enter /home/rr/g16/l101.exe)
 ---------------------
 xGDB7_00001_tier4.com
 ---------------------
 Symbolic Z-matrix:
 Charge =  0 Multiplicity = 1
 6                    -1.13862  -0.50199   0. 
 6                     0.        0.4716    0. 
 6                     1.29291   0.14816   0. 
 1                    -1.78082  -0.35731   0.88392 
 1                    -0.78305  -1.5428    0. 
 1                    -1.78082  -0.35731  -0.88392 
 1                    -0.27498   1.53382   0. 
 1                     1.62095  -0.89655   0. 
 1                     2.073     0.91351   0. 
 
 ITRead=  0  0  0  0  0  0  0  0  0
 MicOpt= -1 -1 -1 -1 -1 -1 -1 -1 -1
 NAtoms=      9 NQM=        9 NQMF=       0 NMMI=      0 NMMIF=      0
                NMic=       0 NMicF=      0.
                    Isotopes and Nuclear Properties:
 (Nuclear quadrupole moments (NQMom) in fm**2, nuclear magnetic moments (NMagM)
  in nuclear magnetons)

  Atom         1           2           3           4           5           6           7           8           9
 IAtWgt=          12          12          12           1           1           1           1           1           1
 AtmWgt=  12.0000000  12.0000000  12.0000000   1.0078250   1.0078250   1.0078250   1.0078250   1.0078250   1.0078250
 NucSpn=           0           0           0           1           1           1           1           1           1
 AtZEff=  -0.0000000  -0.0000000  -0.0000000  -0.0000000  -0.0000000  -0.0000000  -0.0000000  -0.0000000  -0.0000000
 NQMom=    0.0000000   0.0000000   0.0000000   0.0000000   0.0000000   0.0000000   0.0000000   0.0000000   0.0000000
 NMagM=    0.0000000   0.0000000   0.0000000   2.7928460   2.7928460   2.7928460   2.7928460   2.7928460   2.7928460
 AtZNuc=   6.0000000   6.0000000   6.0000000   1.0000000   1.0000000   1.0000000   1.0000000   1.0000000   1.0000000
 Leave Link  101 at Sat Feb 12 22:17:54 2022, MaxMem=  8589934592 cpu:               0.7 elap:               0.1
 (Enter /home/rr/g16/l202.exe)
                          Input orientation:                          
 ---------------------------------------------------------------------
 Center     Atomic      Atomic             Coordinates (Angstroms)
 Number     Number       Type             X           Y           Z
 ---------------------------------------------------------------------
      1          6           0       -1.138620   -0.501990    0.000000
      2          6           0        0.000000    0.471603    0.000000
      3          6           0        1.292906    0.148161    0.000000
      4          1           0       -1.780817   -0.357312    0.883924
      5          1           0       -0.783052   -1.542798    0.000000
      6          1           0       -1.780817   -0.357312   -0.883924
      7          1           0       -0.274976    1.533816    0.000000
      8          1           0        1.620949   -0.896549    0.000000
      9          1           0        2.072996    0.913508    0.000000
 ---------------------------------------------------------------------
                    Distance matrix (angstroms):
                    1          2          3          4          5
     1  C    0.000000
     2  C    1.498112   0.000000
     3  C    2.516946   1.332749   0.000000
     4  H    1.102121   2.154003   3.237993   0.000000
     5  H    1.099868   2.161245   2.677488   1.783882   0.000000
     6  H    1.102121   2.154003   3.237993   1.767848   1.783882
     7  H    2.211422   1.097228   2.092437   2.573955   3.118284
     8  H    2.787633   2.121159   1.095003   3.555856   2.489349
     9  H    3.509717   2.119574   1.092839   4.153093   3.767021
                    6          7          8          9
     6  H    0.000000
     7  H    2.573955   0.000000
     8  H    3.555856   3.082403   0.000000
     9  H    4.153093   2.428529   1.865651   0.000000
 Stoichiometry    C3H6
 Framework group  CS[SG(C3H4),X(H2)]
 Deg. of freedom    14
 Full point group                 CS      NOp   2
 Largest Abelian subgroup         CS      NOp   2
 Largest concise Abelian subgroup CS      NOp   2
                         Standard orientation:                         
 ---------------------------------------------------------------------
 Center     Atomic      Atomic             Coordinates (Angstroms)
 Number     Number       Type             X           Y           Z
 ---------------------------------------------------------------------
      1          6           0       -1.138620   -0.501990    0.000000
      2          6           0        0.000000    0.471603    0.000000
      3          6           0        1.292906    0.148161    0.000000
      4          1           0       -1.780817   -0.357312    0.883924
      5          1           0       -0.783052   -1.542798    0.000000
      6          1           0       -1.780817   -0.357312   -0.883924
      7          1           0       -0.274976    1.533816    0.000000
      8          1           0        1.620949   -0.896549    0.000000
      9          1           0        2.072996    0.913508    0.000000
 ---------------------------------------------------------------------
 Rotational constants (GHZ):          46.6552652           9.2556027           8.1139827
 Leave Link  202 at Sat Feb 12 22:17:54 2022, MaxMem=  8589934592 cpu:               0.1 elap:               0.0
 (Enter /home/rr/g16/l301.exe)
 General basis read from cards:  (5D, 7F)
 Centers:       4      5      6      7      8      9
 S 3 1.00
     Exponent=  1.3010701000D+01 Coefficients=  1.9682158000D-02
     Exponent=  1.9622572000D+00 Coefficients=  1.3796524000D-01
     Exponent=  4.4453796000D-01 Coefficients=  4.7831935000D-01
 S 1 1.00
     Exponent=  1.2194962000D-01 Coefficients=  1.0000000000D+00
 P 1 1.00
     Exponent=  8.0000000000D-01 Coefficients=  1.0000000000D+00
 P 1 1.00
     Exponent=  1.1704099050D-01 Coefficients=  1.0000000000D+00
 ****
 Centers:       1      2      3
 S 5 1.00
     Exponent=  1.2384016938D+03 Coefficients=  5.4568832082D-03
     Exponent=  1.8629004992D+02 Coefficients=  4.0638409211D-02
     Exponent=  4.2251176346D+01 Coefficients=  1.8025593888D-01
     Exponent=  1.1676557932D+01 Coefficients=  4.6315121755D-01
     Exponent=  3.5930506482D+00 Coefficients=  4.4087173314D-01
 S 1 1.00
     Exponent=  4.0245147363D-01 Coefficients=  1.0000000000D+00
 S 1 1.00
     Exponent=  1.3090182668D-01 Coefficients=  1.0000000000D+00
 S 1 1.00
     Exponent=  6.7053540256D-02 Coefficients=  1.0000000000D+00
 P 3 1.00
     Exponent=  9.4680970621D+00 Coefficients=  3.8387871728D-02
     Exponent=  2.0103545142D+00 Coefficients=  2.1117025112D-01
     Exponent=  5.4771004707D-01 Coefficients=  5.1328172114D-01
 P 1 1.00
     Exponent=  1.5268613795D-01 Coefficients=  1.0000000000D+00
 D 1 1.00
     Exponent=  8.0000000000D-01 Coefficients=  1.0000000000D+00
 D 1 1.00
     Exponent=  1.1713185140D-01 Coefficients=  1.0000000000D+00
 ****
 Ernie: Thresh=  0.10000D-02 Tol=  0.10000D-05 Strict=F.
 There are    80 symmetry adapted cartesian basis functions of A'  symmetry.
 There are    34 symmetry adapted cartesian basis functions of A"  symmetry.
 There are    74 symmetry adapted basis functions of A'  symmetry.
 There are    34 symmetry adapted basis functions of A"  symmetry.
   108 basis functions,   156 primitive gaussians,   114 cartesian basis functions
    12 alpha electrons       12 beta electrons
       nuclear repulsion energy        70.5342723931 Hartrees.
 IExCor= 4639 DFT=T Ex+Corr=wB97XD ExCW=0 ScaHFX=  1.000000
 ScaDFX=  1.000000  1.000000  1.000000  1.000000 ScalE2=  1.000000  1.000000
 IRadAn=      5 IRanWt=     -1 IRanGd=            0 ICorTp=0 IEmpDi=121
 HFx  wShort=  0.000000 wLong=  0.200000 cFull=  0.222036 cShort=  0.000000 cLong=  0.777964
 DFx  wShort=  0.000000 wLong=  0.200000 cFull=  0.000000 cShort=  0.000000 cLong=  1.000000
 NAtoms=    9 NActive=    9 NUniq=    8 SFac= 1.27D+00 NAtFMM=   60 NAOKFM=F Big=F
 Integral buffers will be    131072 words long.
 Raffenetti 1 integral format.
 Two-electron integral symmetry is turned on.
 R6Disp:  Grimme-D2 Dispersion energy=       -0.0023201314 Hartrees.
 Nuclear repulsion after empirical dispersion term =       70.5319522617 Hartrees.
 Leave Link  301 at Sat Feb 12 22:17:54 2022, MaxMem=  8589934592 cpu:               0.5 elap:               0.1
 (Enter /home/rr/g16/l302.exe)
 NPDir=0 NMtPBC=     1 NCelOv=     1 NCel=       1 NClECP=     1 NCelD=      1
         NCelK=      1 NCelE2=     1 NClLst=     1 CellRange=     0.0.
 One-electron integrals computed using PRISM.
 One-electron integral symmetry used in STVInt
 NBasis=   108 RedAO= T EigKep=  8.53D-05  NBF=    74    34
 NBsUse=   108 1.00D-06 EigRej= -1.00D+00 NBFU=    74    34
 Precomputing XC quadrature grid using
 IXCGrd= 4 IRadAn=           5 IRanWt=          -1 IRanGd=           0 AccXCQ= 0.00D+00.
 Generated NRdTot=       0 NPtTot=           0 NUsed=           0 NTot=          32
 NSgBfM=   114   114   114   114   114 MxSgAt=     9 MxSgA2=     9.
 Leave Link  302 at Sat Feb 12 22:17:54 2022, MaxMem=  8589934592 cpu:               1.1 elap:               0.2
 (Enter /home/rr/g16/l303.exe)
 DipDrv:  MaxL=1.
 Leave Link  303 at Sat Feb 12 22:17:54 2022, MaxMem=  8589934592 cpu:               0.2 elap:               0.1
 (Enter /home/rr/g16/l308.exe)
 Leave Link  308 at Sat Feb 12 22:17:54 2022, MaxMem=  8589934592 cpu:               0.2 elap:               0.1
 (Enter /home/rr/g16/l401.exe)
 ExpMin= 6.71D-02 ExpMax= 1.24D+03 ExpMxC= 1.86D+02 IAcc=3 IRadAn=         5 AccDes= 0.00D+00
 Harris functional with IExCor= 4639 and IRadAn=       5 diagonalized for initial guess.
 HarFok:  IExCor= 4639 AccDes= 0.00D+00 IRadAn=         5 IDoV= 1 UseB2=F ITyADJ=14
 ICtDFT=  3500011 ScaDFX=  1.000000  1.000000  1.000000  1.000000
 FoFCou: FMM=F IPFlag=           0 FMFlag=      100000 FMFlg1=           0
         NFxFlg=           0 DoJE=T BraDBF=F KetDBF=T FulRan=T
         wScrn=  0.000000 ICntrl=       500 IOpCl=  0 I1Cent=   200000004 NGrid=           0
         NMat0=    1 NMatS0=      1 NMatT0=    0 NMatD0=    1 NMtDS0=    0 NMtDT0=    0
 Petite list used in FoFCou.
 Harris En= -111.940786013905    
 JPrj=0 DoOrth=F DoCkMO=F.
 Initial guess orbital symmetries:
       Occupied  (A') (A') (A') (A') (A') (A') (A') (A') (A") (A')
                 (A') (A")
       Virtual   (A") (A') (A') (A') (A') (A") (A') (A') (A") (A')
                 (A') (A") (A') (A') (A") (A') (A") (A') (A") (A')
                 (A') (A') (A") (A') (A') (A') (A") (A") (A') (A')
                 (A') (A") (A') (A') (A') (A') (A") (A') (A") (A')
                 (A") (A') (A') (A") (A') (A") (A') (A') (A") (A')
                 (A') (A') (A") (A') (A') (A") (A') (A') (A') (A')
                 (A') (A') (A') (A") (A") (A") (A") (A") (A') (A')
                 (A') (A") (A') (A') (A") (A') (A') (A") (A') (A")
                 (A') (A') (A') (A") (A") (A') (A') (A') (A") (A')
                 (A') (A') (A") (A') (A') (A')
 The electronic state of the initial guess is 1-A'.
 Leave Link  401 at Sat Feb 12 22:17:55 2022, MaxMem=  8589934592 cpu:               2.5 elap:               0.3
 (Enter /home/rr/g16/l502.exe)
 Keep R1 ints in memory in symmetry-blocked form, NReq=52358333.
 FoFCou: FMM=F IPFlag=           0 FMFlag=           0 FMFlg1=           0
         NFxFlg=           0 DoJE=F BraDBF=F KetDBF=F FulRan=T
         wScrn=  0.000000 ICntrl=       600 IOpCl=  0 I1Cent=           0 NGrid=           0
         NMat0=    1 NMatS0=   5886 NMatT0=    0 NMatD0=    1 NMtDS0=    0 NMtDT0=    0
 Petite list used in FoFCou.
 Closed shell SCF:
 Using DIIS extrapolation, IDIIS=  1040.
 NGot=  8589934592 LenX=  8581046321 LenY=  8581032884
 Requested convergence on RMS density matrix=1.00D-08 within 100 cycles.
 Requested convergence on MAX density matrix=1.00D-06.
 Requested convergence on             energy=1.00D-06.
 No special actions if energy rises.
 Integral accuracy reduced to 1.0D-05 until final iterations.

 Cycle   1  Pass 0  IDiag  1:
 E= -117.762550000417    
 DIIS: error= 3.05D-02 at cycle   1 NSaved=   1.
 NSaved= 1 IEnMin= 1 EnMin= -117.762550000417     IErMin= 1 ErrMin= 3.05D-02
 ErrMax= 3.05D-02  0.00D+00 EMaxC= 1.00D-01 BMatC= 5.62D-02 BMatP= 5.62D-02
 IDIUse=3 WtCom= 6.95D-01 WtEn= 3.05D-01
 Coeff-Com:  0.100D+01
 Coeff-En:   0.100D+01
 Coeff:      0.100D+01
 Gap=     0.409 Goal=   None    Shift=    0.000
 GapD=    0.409 DampG=2.000 DampE=0.500 DampFc=1.0000 IDamp=-1.
 RMSDP=5.37D-03 MaxDP=1.37D-01              OVMax= 4.66D-02

 Cycle   2  Pass 0  IDiag  1:
 E= -117.780680361606     Delta-E=       -0.018130361189 Rises=F Damp=F
 DIIS: error= 7.23D-03 at cycle   2 NSaved=   2.
 NSaved= 2 IEnMin= 2 EnMin= -117.780680361606     IErMin= 2 ErrMin= 7.23D-03
 ErrMax= 7.23D-03  0.00D+00 EMaxC= 1.00D-01 BMatC= 5.86D-03 BMatP= 5.62D-02
 IDIUse=3 WtCom= 9.28D-01 WtEn= 7.23D-02
 Coeff-Com:  0.151D+00 0.849D+00
 Coeff-En:   0.000D+00 0.100D+01
 Coeff:      0.140D+00 0.860D+00
 Gap=     0.426 Goal=   None    Shift=    0.000
 RMSDP=1.59D-03 MaxDP=3.86D-02 DE=-1.81D-02 OVMax= 3.11D-02

 Cycle   3  Pass 0  IDiag  1:
 E= -117.785055739712     Delta-E=       -0.004375378106 Rises=F Damp=F
 DIIS: error= 3.23D-03 at cycle   3 NSaved=   3.
 NSaved= 3 IEnMin= 3 EnMin= -117.785055739712     IErMin= 3 ErrMin= 3.23D-03
 ErrMax= 3.23D-03  0.00D+00 EMaxC= 1.00D-01 BMatC= 1.55D-03 BMatP= 5.86D-03
 IDIUse=3 WtCom= 9.68D-01 WtEn= 3.23D-02
 Coeff-Com: -0.188D-02 0.336D+00 0.666D+00
 Coeff-En:   0.000D+00 0.112D+00 0.888D+00
 Coeff:     -0.182D-02 0.329D+00 0.673D+00
 Gap=     0.422 Goal=   None    Shift=    0.000
 RMSDP=5.69D-04 MaxDP=1.19D-02 DE=-4.38D-03 OVMax= 1.47D-02

 Cycle   4  Pass 0  IDiag  1:
 E= -117.786592963475     Delta-E=       -0.001537223763 Rises=F Damp=F
 DIIS: error= 5.53D-04 at cycle   4 NSaved=   4.
 NSaved= 4 IEnMin= 4 EnMin= -117.786592963475     IErMin= 4 ErrMin= 5.53D-04
 ErrMax= 5.53D-04  0.00D+00 EMaxC= 1.00D-01 BMatC= 3.50D-05 BMatP= 1.55D-03
 IDIUse=3 WtCom= 9.94D-01 WtEn= 5.53D-03
 Coeff-Com: -0.174D-02 0.130D+00 0.289D+00 0.584D+00
 Coeff-En:   0.000D+00 0.000D+00 0.000D+00 0.100D+01
 Coeff:     -0.173D-02 0.129D+00 0.287D+00 0.586D+00
 Gap=     0.422 Goal=   None    Shift=    0.000
 RMSDP=9.31D-05 MaxDP=1.63D-03 DE=-1.54D-03 OVMax= 2.69D-03

 Cycle   5  Pass 0  IDiag  1:
 E= -117.786626710578     Delta-E=       -0.000033747103 Rises=F Damp=F
 DIIS: error= 1.58D-04 at cycle   5 NSaved=   5.
 NSaved= 5 IEnMin= 5 EnMin= -117.786626710578     IErMin= 5 ErrMin= 1.58D-04
 ErrMax= 1.58D-04  0.00D+00 EMaxC= 1.00D-01 BMatC= 1.92D-06 BMatP= 3.50D-05
 IDIUse=3 WtCom= 9.98D-01 WtEn= 1.58D-03
 Coeff-Com: -0.311D-03-0.336D-01-0.548D-01 0.124D+00 0.965D+00
 Coeff-En:   0.000D+00 0.000D+00 0.000D+00 0.000D+00 0.100D+01
 Coeff:     -0.310D-03-0.335D-01-0.547D-01 0.124D+00 0.965D+00
 Gap=     0.422 Goal=   None    Shift=    0.000
 RMSDP=5.41D-05 MaxDP=1.12D-03 DE=-3.37D-05 OVMax= 9.48D-04

 Cycle   6  Pass 0  IDiag  1:
 E= -117.786629802320     Delta-E=       -0.000003091742 Rises=F Damp=F
 DIIS: error= 2.32D-05 at cycle   6 NSaved=   6.
 NSaved= 6 IEnMin= 6 EnMin= -117.786629802320     IErMin= 6 ErrMin= 2.32D-05
 ErrMax= 2.32D-05  0.00D+00 EMaxC= 1.00D-01 BMatC= 6.56D-08 BMatP= 1.92D-06
 IDIUse=1 WtCom= 1.00D+00 WtEn= 0.00D+00
 Coeff-Com:  0.519D-04-0.124D-01-0.233D-01-0.134D-01 0.177D+00 0.872D+00
 Coeff:      0.519D-04-0.124D-01-0.233D-01-0.134D-01 0.177D+00 0.872D+00
 Gap=     0.422 Goal=   None    Shift=    0.000
 RMSDP=9.63D-06 MaxDP=1.97D-04 DE=-3.09D-06 OVMax= 1.29D-04

 Initial convergence to 1.0D-05 achieved.  Increase integral accuracy.
 Cycle   7  Pass 1  IDiag  1:
 E= -117.786683829577     Delta-E=       -0.000054027257 Rises=F Damp=F
 DIIS: error= 1.86D-05 at cycle   1 NSaved=   1.
 NSaved= 1 IEnMin= 1 EnMin= -117.786683829577     IErMin= 1 ErrMin= 1.86D-05
 ErrMax= 1.86D-05  0.00D+00 EMaxC= 1.00D-01 BMatC= 6.08D-08 BMatP= 6.08D-08
 IDIUse=1 WtCom= 1.00D+00 WtEn= 0.00D+00
 Coeff-Com:  0.100D+01
 Coeff:      0.100D+01
 Gap=     0.422 Goal=   None    Shift=    0.000
 RMSDP=9.63D-06 MaxDP=1.97D-04 DE=-5.40D-05 OVMax= 5.44D-05

 Cycle   8  Pass 1  IDiag  1:
 E= -117.786683885188     Delta-E=       -0.000000055611 Rises=F Damp=F
 DIIS: error= 4.19D-06 at cycle   2 NSaved=   2.
 NSaved= 2 IEnMin= 2 EnMin= -117.786683885188     IErMin= 2 ErrMin= 4.19D-06
 ErrMax= 4.19D-06  0.00D+00 EMaxC= 1.00D-01 BMatC= 3.01D-09 BMatP= 6.08D-08
 IDIUse=1 WtCom= 1.00D+00 WtEn= 0.00D+00
 Coeff-Com:  0.126D-01 0.987D+00
 Coeff:      0.126D-01 0.987D+00
 Gap=     0.422 Goal=   None    Shift=    0.000
 RMSDP=1.75D-06 MaxDP=2.68D-05 DE=-5.56D-08 OVMax= 4.00D-05

 Cycle   9  Pass 1  IDiag  1:
 E= -117.786683887295     Delta-E=       -0.000000002107 Rises=F Damp=F
 DIIS: error= 3.97D-06 at cycle   3 NSaved=   3.
 NSaved= 3 IEnMin= 3 EnMin= -117.786683887295     IErMin= 3 ErrMin= 3.97D-06
 ErrMax= 3.97D-06  0.00D+00 EMaxC= 1.00D-01 BMatC= 2.02D-09 BMatP= 3.01D-09
 IDIUse=1 WtCom= 1.00D+00 WtEn= 0.00D+00
 Coeff-Com: -0.505D-01 0.458D+00 0.593D+00
 Coeff:     -0.505D-01 0.458D+00 0.593D+00
 Gap=     0.422 Goal=   None    Shift=    0.000
 RMSDP=6.01D-07 MaxDP=1.52D-05 DE=-2.11D-09 OVMax= 1.29D-05

 Cycle  10  Pass 1  IDiag  1:
 E= -117.786683889182     Delta-E=       -0.000000001887 Rises=F Damp=F
 DIIS: error= 8.85D-07 at cycle   4 NSaved=   4.
 NSaved= 4 IEnMin= 4 EnMin= -117.786683889182     IErMin= 4 ErrMin= 8.85D-07
 ErrMax= 8.85D-07  0.00D+00 EMaxC= 1.00D-01 BMatC= 3.19D-11 BMatP= 2.02D-09
 IDIUse=1 WtCom= 1.00D+00 WtEn= 0.00D+00
 Coeff-Com: -0.122D-01 0.713D-01 0.112D+00 0.829D+00
 Coeff:     -0.122D-01 0.713D-01 0.112D+00 0.829D+00
 Gap=     0.422 Goal=   None    Shift=    0.000
 RMSDP=1.41D-07 MaxDP=2.90D-06 DE=-1.89D-09 OVMax= 6.18D-06

 Cycle  11  Pass 1  IDiag  1:
 E= -117.786683889228     Delta-E=       -0.000000000045 Rises=F Damp=F
 DIIS: error= 2.96D-07 at cycle   5 NSaved=   5.
 NSaved= 5 IEnMin= 5 EnMin= -117.786683889228     IErMin= 5 ErrMin= 2.96D-07
 ErrMax= 2.96D-07  0.00D+00 EMaxC= 1.00D-01 BMatC= 1.57D-11 BMatP= 3.19D-11
 IDIUse=1 WtCom= 1.00D+00 WtEn= 0.00D+00
 Coeff-Com:  0.486D-02-0.591D-01-0.848D-01 0.381D+00 0.758D+00
 Coeff:      0.486D-02-0.591D-01-0.848D-01 0.381D+00 0.758D+00
 Gap=     0.422 Goal=   None    Shift=    0.000
 RMSDP=8.38D-08 MaxDP=1.41D-06 DE=-4.52D-11 OVMax= 1.26D-06

 Cycle  12  Pass 1  IDiag  1:
 E= -117.786683889246     Delta-E=       -0.000000000018 Rises=F Damp=F
 DIIS: error= 5.04D-08 at cycle   6 NSaved=   6.
 NSaved= 6 IEnMin= 6 EnMin= -117.786683889246     IErMin= 6 ErrMin= 5.04D-08
 ErrMax= 5.04D-08  0.00D+00 EMaxC= 1.00D-01 BMatC= 2.41D-13 BMatP= 1.57D-11
 IDIUse=1 WtCom= 1.00D+00 WtEn= 0.00D+00
 Coeff-Com:  0.650D-03-0.264D-02-0.991D-02-0.339D-01-0.766D-01 0.112D+01
 Coeff:      0.650D-03-0.264D-02-0.991D-02-0.339D-01-0.766D-01 0.112D+01
 Gap=     0.422 Goal=   None    Shift=    0.000
 RMSDP=1.98D-08 MaxDP=3.32D-07 DE=-1.81D-11 OVMax= 5.06D-07

 Cycle  13  Pass 1  IDiag  1:
 E= -117.786683889247     Delta-E=       -0.000000000001 Rises=F Damp=F
 DIIS: error= 9.68D-09 at cycle   7 NSaved=   7.
 NSaved= 7 IEnMin= 7 EnMin= -117.786683889247     IErMin= 7 ErrMin= 9.68D-09
 ErrMax= 9.68D-09  0.00D+00 EMaxC= 1.00D-01 BMatC= 1.39D-14 BMatP= 2.41D-13
 IDIUse=1 WtCom= 1.00D+00 WtEn= 0.00D+00
 Coeff-Com: -0.986D-04 0.204D-02 0.132D-02-0.152D-01-0.461D-01 0.160D+00
 Coeff-Com:  0.899D+00
 Coeff:     -0.986D-04 0.204D-02 0.132D-02-0.152D-01-0.461D-01 0.160D+00
 Coeff:      0.899D+00
 Gap=     0.422 Goal=   None    Shift=    0.000
 RMSDP=3.91D-09 MaxDP=7.94D-08 DE=-9.09D-13 OVMax= 7.49D-08

 SCF Done:  E(RwB97XD) =  -117.786683889     A.U. after   13 cycles
            NFock= 13  Conv=0.39D-08     -V/T= 2.0136
 KE= 1.162029073118D+02 PE=-4.124870319149D+02 EE= 1.079654884521D+02
 Leave Link  502 at Sat Feb 12 22:17:58 2022, MaxMem=  8589934592 cpu:              22.2 elap:               2.9
 (Enter /home/rr/g16/l801.exe)
 DoSCS=F DFT=T ScalE2(SS,OS)=  1.000000  1.000000
 ExpMin= 6.71D-02 ExpMax= 1.24D+03 ExpMxC= 1.86D+02 IAcc=3 IRadAn=         5 AccDes= 0.00D+00
 HarFok:  IExCor=  205 AccDes= 0.00D+00 IRadAn=         5 IDoV=-2 UseB2=F ITyADJ=14
 ICtDFT= 12500011 ScaDFX=  1.000000  1.000000  1.000000  1.000000
 Largest valence mixing into a core orbital is  7.20D-05
 Largest core mixing into a valence orbital is  2.00D-05
 Range of M.O.s used for correlation:     4   108
 NBasis=   108 NAE=    12 NBE=    12 NFC=     3 NFV=     0
 NROrb=    105 NOA=     9 NOB=     9 NVA=    96 NVB=    96

 **** Warning!!: The largest alpha MO coefficient is  0.40858862D+02

 Leave Link  801 at Sat Feb 12 22:17:58 2022, MaxMem=  8589934592 cpu:               0.6 elap:               0.1
 (Enter /home/rr/g16/l914.exe)
 RHF ground state
 Keep R1, R2, and R3 ints in memory in symmetry-blocked form, NReq=935716124.
 FoFCou: FMM=F IPFlag=           0 FMFlag=           0 FMFlg1=           0
         NFxFlg=           0 DoJE=F BraDBF=F KetDBF=F FulRan=T
         wScrn=  0.000000 ICntrl=       600 IOpCl=  0 I1Cent=           0 NGrid=           0
         NMat0=    1 NMatS0=   5886 NMatT0=    0 NMatD0=    1 NMtDS0=    0 NMtDT0=    0
 Petite list used in FoFCou.
 MDV=  8589934592 DFT=T DoStab=F Mixed=T DoRPA=T DoScal=F NonHer=T
 Making orbital integer symmetry assigments:
 Orbital symmetries:
       Occupied  (A') (A') (A') (A') (A') (A') (A') (A') (A") (A')
                 (A') (A")
       Virtual   (A") (A') (A') (A') (A') (A") (A') (A') (A") (A')
                 (A') (A") (A') (A") (A') (A') (A") (A') (A") (A')
                 (A') (A') (A") (A') (A') (A") (A') (A") (A') (A')
                 (A') (A") (A') (A') (A') (A') (A") (A') (A") (A')
                 (A") (A') (A") (A') (A') (A') (A") (A') (A") (A')
                 (A') (A') (A") (A') (A') (A") (A') (A') (A') (A')
                 (A') (A') (A') (A") (A") (A") (A") (A") (A') (A')
                 (A') (A") (A') (A') (A") (A') (A') (A") (A') (A")
                 (A') (A') (A') (A") (A') (A") (A') (A') (A") (A')
                 (A') (A') (A") (A') (A') (A')
   864 initial guesses have been made.
 Convergence on wavefunction:    0.001000000000000
 Davidson Disk Diagonalization:  ConvIn= 1.00D-03 SkipCon=T Conv= 1.00D-03.
 Max sub-space:  5184 roots to seek:  1728 dimension of matrix:         1728
 *** WARNING: Number of orthogonal guesses is          864
 Iteration     1 Dimension   864 NMult     0 NNew    864
 CISAX will form   864 AO SS matrices at one time.
 NMat=   864 NSing=   864 JSym2X=-1.
 New state      1 was old state      2
 New state      2 was old state      1
 New state      3 was old state      4
 New state      4 was old state      5
 New state      5 was old state      3
 New state      6 was old state     10
 New state      7 was old state      6
 New state      8 was old state      9
 New state      9 was old state      7
 New state     10 was old state      8
 New state     11 was old state     21
 New state     12 was old state     13
 New state     13 was old state     12
 New state     15 was old state     11
 New state     17 was old state     15
 New state     21 was old state     22
 New state     22 was old state     23
 New state     23 was old state     17
 New state     24 was old state     34
 New state     25 was old state     24
 New state     28 was old state     25
 New state     30 was old state     32
 New state     31 was old state     36
 New state     32 was old state     33
 New state     33 was old state     30
 New state     34 was old state     38
 New state     35 was old state     37
 New state     36 was old state     39
 New state     37 was old state     40
 New state     38 was old state     28
 New state     39 was old state     42
 New state     40 was old state     31
 New state     41 was old state     44
 New state     42 was old state     35
 New state     44 was old state     48
 New state     45 was old state     41
 New state     46 was old state     51
 New state     47 was old state     45
 New state     48 was old state     46
 New state     49 was old state     53
 New state     50 was old state     54
 New state     51 was old state     52
 New state     52 was old state     50
 New state     53 was old state     56
 New state     54 was old state     55
 New state     55 was old state     60
 New state     56 was old state     49
 New state     57 was old state     58
 New state     58 was old state     47
 New state     59 was old state     57
 New state     60 was old state     65
 New state     63 was old state     66
 New state     64 was old state     82
 New state     65 was old state     63
 New state     66 was old state     72
 New state     68 was old state     64
 New state     69 was old state     74
 New state     71 was old state     68
 New state     72 was old state     69
 New state     73 was old state     71
 New state     74 was old state     76
 New state     75 was old state     73
 New state     76 was old state     79
 New state     77 was old state     84
 New state     78 was old state     80
 New state     79 was old state     93
 New state     80 was old state     75
 New state     81 was old state     77
 New state     82 was old state     86
 New state     83 was old state     78
 New state     84 was old state     85
 New state     85 was old state     81
 New state     86 was old state     99
 New state     87 was old state     88
 New state     88 was old state     83
 New state     89 was old state     90
 New state     90 was old state     92
 New state     91 was old state     89
 New state     92 was old state     96
 New state     93 was old state     98
 New state     94 was old state     91
 New state     96 was old state     94
 New state     97 was old state     87
 New state     98 was old state    101
 New state     99 was old state     97
 New state    100 was old state    103
 New state    101 was old state    110
 New state    102 was old state    104
 New state    103 was old state    106
 New state    104 was old state    100
 New state    105 was old state    102
 New state    106 was old state    107
 New state    107 was old state    105
 New state    108 was old state    109
 New state    109 was old state    108
 New state    110 was old state    112
 New state    111 was old state    115
 New state    112 was old state    114
 New state    113 was old state    111
 New state    114 was old state    113
 New state    115 was old state    117
 New state    116 was old state    123
 New state    117 was old state    120
 New state    118 was old state    134
 New state    119 was old state    124
 New state    120 was old state    121
 New state    121 was old state    119
 New state    122 was old state    116
 New state    123 was old state    122
 New state    124 was old state    118
 New state    125 was old state    128
 New state    126 was old state    125
 New state    127 was old state    132
 New state    128 was old state    131
 New state    129 was old state    127
 New state    130 was old state    136
 New state    131 was old state    130
 New state    132 was old state    137
 New state    133 was old state    126
 New state    134 was old state    129
 New state    135 was old state    133
 New state    136 was old state    135
 New state    137 was old state    140
 New state    139 was old state    147
 New state    140 was old state    139
 New state    142 was old state    144
 New state    143 was old state    148
 New state    144 was old state    143
 New state    145 was old state    151
 New state    146 was old state    149
 New state    147 was old state    152
 New state    148 was old state    142
 New state    149 was old state    153
 New state    150 was old state    145
 New state    151 was old state    174
 New state    152 was old state    154
 New state    153 was old state    156
 New state    154 was old state    163
 New state    155 was old state    150
 New state    156 was old state    155
 New state    157 was old state    158
 New state    158 was old state    157
 New state    159 was old state    166
 New state    160 was old state    164
 New state    161 was old state    160
 New state    162 was old state    167
 New state    163 was old state    169
 New state    164 was old state    171
 New state    165 was old state    172
 New state    166 was old state    161
 New state    167 was old state    176
 New state    168 was old state    200
 New state    169 was old state    162
 New state    170 was old state    165
 New state    171 was old state    159
 New state    172 was old state    168
 New state    173 was old state    177
 New state    174 was old state    170
 New state    176 was old state    179
 New state    177 was old state    183
 New state    178 was old state    181
 New state    179 was old state    173
 New state    180 was old state    178
 New state    181 was old state    180
 New state    182 was old state    201
 New state    183 was old state    182
 New state    184 was old state    195
 New state    186 was old state    192
 New state    187 was old state    202
 New state    189 was old state    184
 New state    190 was old state    193
 New state    191 was old state    194
 New state    192 was old state    203
 New state    193 was old state    204
 New state    194 was old state    189
 New state    195 was old state    198
 New state    196 was old state    190
 New state    197 was old state    191
 New state    198 was old state    196
 New state    199 was old state    186
 New state    200 was old state    199
 New state    201 was old state    197
 New state    202 was old state    210
 New state    203 was old state    207
 New state    204 was old state    206
 New state    205 was old state    209
 New state    206 was old state    205
 New state    207 was old state    232
 New state    208 was old state    211
 New state    209 was old state    208
 New state    210 was old state    213
 New state    211 was old state    216
 New state    213 was old state    220
 New state    214 was old state    229
 New state    215 was old state    214
 New state    216 was old state    215
 New state    218 was old state    233
 New state    219 was old state    225
 New state    220 was old state    223
 New state    221 was old state    222
 New state    222 was old state    227
 New state    223 was old state    237
 New state    224 was old state    219
 New state    225 was old state    234
 New state    226 was old state    224
 New state    227 was old state    236
 New state    228 was old state    230
 New state    229 was old state    244
 New state    230 was old state    221
 New state    231 was old state    218
 New state    232 was old state    245
 New state    233 was old state    238
 New state    234 was old state    241
 New state    235 was old state    240
 New state    236 was old state    247
 New state    237 was old state    228
 New state    238 was old state    226
 New state    239 was old state    231
 New state    240 was old state    242
 New state    241 was old state    235
 New state    242 was old state    239
 New state    243 was old state    246
 New state    244 was old state    258
 New state    245 was old state    243
 New state    246 was old state    260
 New state    247 was old state    249
 New state    248 was old state    256
 New state    249 was old state    252
 New state    250 was old state    248
 New state    251 was old state    253
 New state    252 was old state    264
 New state    253 was old state    250
 New state    254 was old state    266
 New state    255 was old state    262
 New state    256 was old state    259
 New state    257 was old state    261
 New state    258 was old state    271
 New state    259 was old state    257
 New state    260 was old state    251
 New state    261 was old state    254
 New state    262 was old state    255
 New state    263 was old state    265
 New state    264 was old state    263
 New state    265 was old state    269
 New state    266 was old state    289
 New state    267 was old state    268
 New state    268 was old state    270
 New state    269 was old state    277
 New state    270 was old state    272
 New state    271 was old state    267
 New state    272 was old state    278
 New state    273 was old state    283
 New state    274 was old state    276
 New state    276 was old state    274
 New state    277 was old state    279
 New state    278 was old state    287
 New state    279 was old state    273
 New state    281 was old state    291
 New state    282 was old state    290
 New state    283 was old state    288
 New state    284 was old state    286
 New state    285 was old state    292
 New state    286 was old state    285
 New state    287 was old state    281
 New state    288 was old state    282
 New state    289 was old state    284
 New state    290 was old state    293
 New state    291 was old state    298
 New state    292 was old state    294
 New state    293 was old state    308
 New state    294 was old state    295
 New state    295 was old state    306
 New state    297 was old state    303
 New state    298 was old state    300
 New state    299 was old state    301
 New state    300 was old state    314
 New state    301 was old state    302
 New state    302 was old state    305
 New state    303 was old state    297
 New state    304 was old state    312
 New state    305 was old state    309
 New state    306 was old state    304
 New state    307 was old state    299
 New state    308 was old state    311
 New state    309 was old state    319
 New state    310 was old state    307
 New state    311 was old state    313
 New state    312 was old state    317
 New state    313 was old state    310
 New state    314 was old state    316
 New state    316 was old state    330
 New state    317 was old state    320
 New state    318 was old state    321
 New state    319 was old state    334
 New state    320 was old state    322
 New state    321 was old state    324
 New state    322 was old state    318
 New state    324 was old state    325
 New state    325 was old state    326
 New state    326 was old state    331
 New state    327 was old state    333
 New state    329 was old state    327
 New state    330 was old state    336
 New state    331 was old state    335
 New state    332 was old state    338
 New state    333 was old state    332
 New state    334 was old state    329
 New state    335 was old state    337
 New state    336 was old state    350
 New state    337 was old state    340
 New state    338 was old state    339
 New state    339 was old state    353
 New state    340 was old state    341
 New state    341 was old state    343
 New state    342 was old state    345
 New state    343 was old state    348
 New state    344 was old state    342
 New state    345 was old state    344
 New state    346 was old state    347
 New state    347 was old state    349
 New state    348 was old state    346
 New state    349 was old state    351
 New state    350 was old state    354
 New state    351 was old state    360
 New state    352 was old state    357
 New state    353 was old state    355
 New state    354 was old state    352
 New state    355 was old state    356
 New state    356 was old state    358
 New state    357 was old state    361
 New state    358 was old state    359
 No map to state    359
 New state    360 was old state    362
 New state    361 was old state    365
 New state    362 was old state    363
 New state    363 was old state    370
 New state    365 was old state    366
 No map to state    366
 New state    367 was old state    369
 New state    368 was old state    367
 New state    369 was old state    376
 New state    370 was old state    368
 New state    372 was old state    374
 New state    373 was old state    378
 New state    374 was old state    372
 New state    375 was old state    385
 New state    376 was old state    375
 New state    377 was old state    373
 New state    378 was old state    381
 New state    379 was old state    384
 New state    380 was old state    389
 New state    381 was old state    379
 New state    382 was old state    383
 New state    383 was old state    377
 New state    384 was old state    388
 New state    385 was old state    380
 New state    386 was old state    382
 New state    387 was old state    390
 New state    388 was old state    386
 New state    389 was old state    393
 New state    390 was old state    387
 New state    391 was old state    392
 New state    392 was old state    396
 New state    393 was old state    405
 New state    394 was old state    395
 New state    395 was old state    391
 New state    396 was old state    394
 New state    397 was old state    398
 New state    398 was old state    397
 New state    399 was old state    401
 New state    400 was old state    399
 New state    401 was old state    406
 New state    402 was old state    408
 New state    403 was old state    404
 New state    404 was old state    403
 New state    405 was old state    400
 New state    406 was old state    410
 New state    407 was old state    419
 New state    408 was old state    411
 New state    409 was old state    402
 New state    410 was old state    412
 New state    411 was old state    413
 New state    412 was old state    407
 New state    413 was old state    409
 New state    414 was old state    417
 New state    415 was old state    414
 New state    416 was old state    423
 New state    417 was old state    418
 New state    418 was old state    415
 New state    419 was old state    422
 New state    420 was old state    416
 New state    421 was old state    429
 New state    422 was old state    420
 New state    423 was old state    425
 New state    424 was old state    430
 New state    425 was old state    433
 New state    426 was old state    424
 New state    427 was old state    421
 New state    428 was old state    432
 New state    429 was old state    426
 New state    430 was old state    436
 New state    432 was old state    427
 New state    433 was old state    428
 New state    434 was old state    438
 New state    435 was old state    443
 New state    436 was old state    439
 New state    437 was old state    444
 New state    438 was old state    435
 New state    439 was old state    434
 New state    441 was old state    447
 New state    442 was old state    448
 New state    443 was old state    442
 New state    444 was old state    449
 New state    445 was old state    437
 New state    447 was old state    441
 New state    448 was old state    452
 New state    449 was old state    445
 New state    451 was old state    462
 New state    452 was old state    461
 New state    454 was old state    458
 New state    455 was old state    464
 New state    456 was old state    451
 New state    457 was old state    454
 New state    458 was old state    460
 New state    459 was old state    455
 New state    460 was old state    467
 New state    461 was old state    456
 New state    462 was old state    465
 New state    464 was old state    457
 New state    465 was old state    469
 New state    466 was old state    459
 New state    467 was old state    470
 New state    468 was old state    466
 New state    469 was old state    468
 New state    470 was old state    474
 New state    471 was old state    472
 New state    472 was old state    476
 New state    473 was old state    475
 New state    474 was old state    473
 New state    475 was old state    478
 New state    476 was old state    477
 New state    477 was old state    479
 New state    478 was old state    471
 New state    479 was old state    486
 New state    481 was old state    482
 New state    482 was old state    481
 New state    483 was old state    487
 New state    484 was old state    485
 New state    485 was old state    484
 New state    486 was old state    483
 New state    487 was old state    488
 New state    488 was old state    489
 New state    489 was old state    490
 New state    490 was old state    497
 New state    495 was old state    500
 New state    496 was old state    499
 New state    497 was old state    496
 New state    498 was old state    495
 New state    499 was old state    498
 New state    500 was old state    501
 New state    501 was old state    502
 New state    502 was old state    506
 New state    505 was old state    507
 New state    506 was old state    511
 New state    507 was old state    509
 New state    508 was old state    505
 New state    509 was old state    510
 New state    510 was old state    512
 New state    511 was old state    508
 New state    512 was old state    518
 New state    513 was old state    520
 New state    514 was old state    517
 New state    515 was old state    513
 New state    516 was old state    515
 New state    517 was old state    514
 New state    518 was old state    516
 New state    520 was old state    521
 New state    521 was old state    522
 New state    522 was old state    523
 New state    523 was old state    527
 New state    524 was old state    525
 New state    525 was old state    528
 New state    526 was old state    524
 New state    527 was old state    531
 New state    528 was old state    526
 New state    530 was old state    534
 New state    531 was old state    530
 New state    532 was old state    533
 New state    533 was old state    532
 New state    534 was old state    537
 New state    537 was old state    538
 New state    538 was old state    546
 New state    539 was old state    542
 New state    542 was old state    539
 New state    543 was old state    545
 New state    545 was old state    547
 New state    546 was old state    543
 New state    547 was old state    551
 New state    548 was old state    550
 New state    550 was old state    548
 No map to state    551
 New state    554 was old state    559
 New state    555 was old state    554
 New state    557 was old state    555
 New state    559 was old state    560
 New state    560 was old state    557
 New state    562 was old state    564
 New state    563 was old state    565
 New state    564 was old state    563
 New state    565 was old state    562
 New state    566 was old state    570
 New state    567 was old state    566
 New state    569 was old state    575
 New state    570 was old state    569
 New state    572 was old state    567
 New state    573 was old state    572
 New state    574 was old state    573
 New state    575 was old state    576
 New state    576 was old state    574
 New state    578 was old state    581
 New state    579 was old state    578
 New state    581 was old state    579
 New state    582 was old state    583
 New state    583 was old state    584
 New state    584 was old state    582
 New state    587 was old state    589
 New state    588 was old state    587
 New state    589 was old state    593
 New state    590 was old state    592
 New state    592 was old state    588
 New state    593 was old state    590
 New state    594 was old state    597
 New state    597 was old state    594
 New state    598 was old state    601
 New state    599 was old state    598
 New state    600 was old state    599
 New state    601 was old state    600
 New state    603 was old state    604
 New state    604 was old state    603
 New state    605 was old state    606
 New state    606 was old state    605
 New state    609 was old state    612
 New state    612 was old state    613
 New state    613 was old state    614
 New state    614 was old state    615
 New state    615 was old state    609
 New state    618 was old state    623
 New state    619 was old state    618
 New state    620 was old state    625
 New state    621 was old state    620
 New state    623 was old state    624
 New state    624 was old state    621
 New state    625 was old state    619
 New state    626 was old state    628
 New state    627 was old state    629
 New state    628 was old state    626
 New state    629 was old state    633
 New state    630 was old state    632
 New state    632 was old state    627
 New state    633 was old state    630
 New state    635 was old state    636
 New state    636 was old state    635
 New state    637 was old state    639
 New state    638 was old state    641
 New state    639 was old state    638
 New state    640 was old state    637
 New state    641 was old state    640
 New state    642 was old state    645
 New state    643 was old state    642
 New state    645 was old state    655
 New state    646 was old state    647
 New state    647 was old state    646
 New state    649 was old state    650
 New state    650 was old state    649
 New state    651 was old state    652
 New state    652 was old state    653
 New state    653 was old state    656
 New state    655 was old state    651
 New state    656 was old state    663
 New state    657 was old state    659
 New state    658 was old state    664
 New state    659 was old state    662
 New state    660 was old state    658
 New state    662 was old state    660
 New state    663 was old state    657
 New state    664 was old state    667
 New state    665 was old state    666
 New state    666 was old state    665
 New state    667 was old state    673
 New state    670 was old state    671
 New state    671 was old state    675
 New state    672 was old state    676
 New state    673 was old state    670
 New state    675 was old state    681
 New state    676 was old state    672
 New state    678 was old state    680
 New state    679 was old state    678
 New state    680 was old state    679
 New state    681 was old state    682
 New state    682 was old state    685
 New state    684 was old state    688
 New state    685 was old state    684
 New state    687 was old state    691
 New state    688 was old state    687
 New state    689 was old state    690
 New state    690 was old state    689
 New state    691 was old state    692
 New state    692 was old state    693
 New state    693 was old state    695
 New state    695 was old state    697
 New state    697 was old state    701
 New state    700 was old state    705
 New state    701 was old state    702
 New state    702 was old state    700
 New state    703 was old state    704
 New state    704 was old state    706
 New state    705 was old state    703
 New state    706 was old state    708
 New state    708 was old state    709
 New state    709 was old state    711
 New state    711 was old state    715
 New state    712 was old state    713
 New state    713 was old state    712
 New state    715 was old state    716
 New state    716 was old state    718
 New state    718 was old state    719
 New state    719 was old state    720
 New state    720 was old state    724
 New state    722 was old state    723
 New state    723 was old state    725
 New state    724 was old state    730
 New state    725 was old state    726
 New state    726 was old state    722
 New state    728 was old state    729
 New state    729 was old state    728
 New state    730 was old state    732
 New state    731 was old state    733
 New state    732 was old state    736
 New state    733 was old state    731
 New state    736 was old state    738
 New state    738 was old state    741
 New state    739 was old state    740
 New state    740 was old state    739
 New state    741 was old state    742
 New state    742 was old state    743
 New state    743 was old state    745
 New state    744 was old state    746
 New state    745 was old state    744
 New state    746 was old state    747
 New state    747 was old state    748
 New state    748 was old state    751
 New state    751 was old state    754
 New state    752 was old state    755
 New state    753 was old state    752
 New state    754 was old state    753
 New state    755 was old state    756
 New state    756 was old state    757
 New state    757 was old state    763
 New state    760 was old state    761
 New state    761 was old state    762
 New state    762 was old state    760
 New state    763 was old state    764
 New state    764 was old state    767
 New state    767 was old state    772
 New state    769 was old state    770
 New state    770 was old state    771
 New state    771 was old state    769
 New state    772 was old state    773
 New state    773 was old state    775
 New state    775 was old state    776
 New state    776 was old state    778
 No map to state    777
 New state    778 was old state    779
 New state    779 was old state    777
 New state    785 was old state    787
 New state    786 was old state    785
 New state    787 was old state    786
 New state    789 was old state    790
 New state    790 was old state    791
 New state    791 was old state    789
 New state    795 was old state    796
 New state    796 was old state    795
 New state    798 was old state    800
 New state    799 was old state    798
 New state    800 was old state    803
 New state    802 was old state    799
 New state    803 was old state    805
 New state    804 was old state    802
 New state    805 was old state    804
 New state    809 was old state    810
 New state    810 was old state    809
 New state    811 was old state    812
 New state    812 was old state    811
 New state    813 was old state    814
 New state    814 was old state    813
 New state    815 was old state    817
 New state    816 was old state    815
 New state    817 was old state    818
 New state    818 was old state    816
 New state    819 was old state    820
 New state    820 was old state    819
 New state    821 was old state    822
 New state    822 was old state    821
 New state    823 was old state    825
 New state    824 was old state    823
 New state    825 was old state    824
 New state    826 was old state    828
 New state    827 was old state    826
 New state    828 was old state    827
 New state    829 was old state    830
 New state    830 was old state    829
 New state    833 was old state    835
 New state    835 was old state    833
 New state    838 was old state    839
 New state    839 was old state    838
 New state    840 was old state    841
 New state    841 was old state    844
 New state    842 was old state    840
 New state    844 was old state    842
 New state    846 was old state    847
 New state    847 was old state    846
 New state    850 was old state    851
 New state    851 was old state    852
 New state    852 was old state    850
 New state    855 was old state    856
 New state    856 was old state    855
 New state    858 was old state    859
 New state    859 was old state    858
 Excitation Energies [eV] at current iteration:
 Root      1 :     7.452819740329409
 Root      2 :     7.544131337712758
 Root      3 :     8.208008936846060
 Root      4 :     8.313558312485316
 Root      5 :     8.440612363175534
 Root      6 :     9.167272361048795
 Root      7 :     9.533384355425184
 Root      8 :     9.841344471945085
 Root      9 :     9.906841336974354
 Root     10 :     9.976874520270893
 Root     11 :    10.434818280867350
 Root     12 :    10.446433223029520
 Root     13 :    10.597977812778690
 Root     14 :    10.724982886605980
 Root     15 :    10.761241750120630
 Root     16 :    10.877623696997550
 Root     17 :    10.916886042776100
 Root     18 :    11.191612827001170
 Root     19 :    11.354204026722940
 Root     20 :    11.475880169520640
 Root     21 :    11.575097666267020
 Root     22 :    11.610502821730130
 Root     23 :    11.709971232513380
 Root     24 :    11.765593137065490
 Root     25 :    11.980683431057080
 Root     26 :    12.108700154707720
 Root     27 :    12.245015635085850
 Root     28 :    12.252991753945040
 Root     29 :    12.328319629270630
 Root     30 :    12.550505964441680
 Root     31 :    12.623352831631690
 Root     32 :    12.679474836657840
 Root     33 :    12.726613040551650
 Root     34 :    12.809350066108890
 Root     35 :    12.963378494948730
 Root     36 :    13.055866722772620
 Root     37 :    13.072246954538310
 Root     38 :    13.113157799387210
 Root     39 :    13.166619365166810
 Root     40 :    13.229704506561390
 Root     41 :    13.285774933724000
 Root     42 :    13.307168045309790
 Root     43 :    13.513320321775390
 Root     44 :    13.517348973029320
 Root     45 :    13.612154886405630
 Root     46 :    13.760766112603040
 Root     47 :    13.800848809376300
 Root     48 :    13.858725539742700
 Root     49 :    13.878796744694150
 Root     50 :    14.146047910440630
 Root     51 :    14.200333047550660
 Root     52 :    14.282459113641060
 Root     53 :    14.305618519946640
 Root     54 :    14.377465674877760
 Root     55 :    14.381310080403580
 Root     56 :    14.447655582147220
 Root     57 :    14.495867657731320
 Root     58 :    14.532342795455400
 Root     59 :    14.624583097883220
 Root     60 :    14.655031659106840
 Root     61 :    14.783055671988810
 Root     62 :    14.826996976730880
 Root     63 :    14.853924480083600
 Root     64 :    14.958616490221850
 Root     65 :    14.984416083550300
 Root     66 :    15.018797944868490
 Root     67 :    15.152304659742660
 Root     68 :    15.304783305319570
 Root     69 :    15.405245081636790
 Root     70 :    15.461207132595660
 Root     71 :    15.469309156856960
 Root     72 :    15.511142019274600
 Root     73 :    15.559502109405010
 Root     74 :    15.586329027888140
 Root     75 :    15.627256453266380
 Root     76 :    15.767184105797490
 Root     77 :    15.859512487432930
 Root     78 :    15.923164368152250
 Root     79 :    15.944418496050000
 Root     80 :    15.959648828759990
 Root     81 :    16.026334284000740
 Root     82 :    16.032557574782790
 Root     83 :    16.089842314967600
 Root     84 :    16.117825262881580
 Root     85 :    16.147767114399580
 Root     86 :    16.173333341926330
 Root     87 :    16.315879024552480
 Root     88 :    16.385412802232430
 Root     89 :    16.503967443173260
 Root     90 :    16.514666149198840
 Root     91 :    16.606406372900760
 Root     92 :    16.643962161915240
 Root     93 :    16.709981496029250
 Root     94 :    16.758449295551650
 Root     95 :    16.775170606362150
 Root     96 :    16.867291326059050
 Root     97 :    16.880243610929340
 Root     98 :    16.926151746518730
 Root     99 :    16.977196976611510
 Root    100 :    16.988639425497630
 Root    101 :    17.038301863535800
 Root    102 :    17.097230719900050
 Root    103 :    17.155255930045450
 Root    104 :    17.329470429941600
 Root    105 :    17.336534315385440
 Root    106 :    17.425249715557130
 Root    107 :    17.467593725287580
 Root    108 :    17.498417563074010
 Root    109 :    17.592048852949470
 Root    110 :    17.634772024795640
 Root    111 :    17.645564933471520
 Root    112 :    17.747715428803360
 Root    113 :    17.762829417603590
 Root    114 :    17.814715198124550
 Root    115 :    17.894367942033090
 Root    116 :    17.948114625590970
 Root    117 :    17.961223348785660
 Root    118 :    17.990740841145420
 Root    119 :    18.022726335087710
 Root    120 :    18.080845326523230
 Root    121 :    18.180214174737300
 Root    122 :    18.187579076546170
 Root    123 :    18.298812863613970
 Root    124 :    18.311481723051610
 Root    125 :    18.425282904772690
 Root    126 :    18.434926043714970
 Root    127 :    18.589697871051770
 Root    128 :    18.621804331699780
 Root    129 :    18.633000246934320
 Root    130 :    18.647383078854110
 Root    131 :    18.686371777040090
 Root    132 :    18.735653323529880
 Root    133 :    18.775611657537550
 Root    134 :    18.867321101195610
 Root    135 :    18.909956224989450
 Root    136 :    18.932549656749360
 Root    137 :    18.959975128666650
 Root    138 :    19.038438100212140
 Root    139 :    19.062595227163220
 Root    140 :    19.108665036589290
 Root    141 :    19.131585822831270
 Root    142 :    19.175506826242180
 Root    143 :    19.202110929120720
 Root    144 :    19.208696859912720
 Root    145 :    19.273558366116290
 Root    146 :    19.289151708204650
 Root    147 :    19.337684790253820
 Root    148 :    19.418105765013110
 Root    149 :    19.443066492910820
 Root    150 :    19.466455492168360
 Root    151 :    19.602678891861040
 Root    152 :    19.625864648386710
 Root    153 :    19.652872724157950
 Root    154 :    19.695269108509340
 Root    155 :    19.740231120544720
 Root    156 :    19.811117637081700
 Root    157 :    19.811574619440020
 Root    158 :    19.893455888569190
 Root    159 :    19.953506540349270
 Root    160 :    20.016288499586250
 Root    161 :    20.029029589547990
 Root    162 :    20.106430261187950
 Root    163 :    20.141809987889970
 Root    164 :    20.192218242779460
 Root    165 :    20.257292986004640
 Root    166 :    20.261632169679370
 Root    167 :    20.292241777604000
 Root    168 :    20.311443650566650
 Root    169 :    20.329838725714310
 Root    170 :    20.386067222681070
 Root    171 :    20.463668633153810
 Root    172 :    20.485829906535650
 Root    173 :    20.532591967292800
 Root    174 :    20.554103801557670
 Root    175 :    20.596434032128460
 Root    176 :    20.605904853851520
 Root    177 :    20.636366027782490
 Root    178 :    20.726974817516770
 Root    179 :    20.813907294309270
 Root    180 :    20.844632337819490
 Root    181 :    20.868985824764650
 Root    182 :    20.871320965525260
 Root    183 :    21.083476788759220
 Root    184 :    21.108624580115620
 Root    185 :    21.137420773951850
 Root    186 :    21.143973661422990
 Root    187 :    21.242663298403330
 Root    188 :    21.255305639933020
 Root    189 :    21.269431120180520
 Root    190 :    21.306657231017320
 Root    191 :    21.333011386393130
 Root    192 :    21.357316008011100
 Root    193 :    21.373218381657610
 Root    194 :    21.466884069441890
 Root    195 :    21.501696797544590
 Root    196 :    21.512439006440100
 Root    197 :    21.548264919024470
 Root    198 :    21.606104678689430
 Root    199 :    21.606971070658150
 Root    200 :    21.634807870160020
 Root    201 :    21.676708454827780
 Root    202 :    21.769343769167540
 Root    203 :    21.788222610750150
 Root    204 :    21.809113571668570
 Root    205 :    21.843015263681010
 Root    206 :    21.885798483226560
 Root    207 :    21.938577889455510
 Root    208 :    21.956437685257520
 Root    209 :    22.117734073282730
 Root    210 :    22.221422513400930
 Root    211 :    22.260099386697160
 Root    212 :    22.300877457855980
 Root    213 :    22.327167565259220
 Root    214 :    22.340419022962890
 Root    215 :    22.371558439243950
 Root    216 :    22.472216720158230
 Root    217 :    22.517925305848970
 Root    218 :    22.562647331141190
 Root    219 :    22.597086602644050
 Root    220 :    22.626657812812610
 Root    221 :    22.636136056023410
 Root    222 :    22.639547394238730
 Root    223 :    22.683743668139820
 Root    224 :    22.721954776076810
 Root    225 :    22.757224657662500
 Root    226 :    22.799234861063470
 Root    227 :    22.817778232751910
 Root    228 :    22.826050334016570
 Root    229 :    22.904574497321530
 Root    230 :    22.971234383765010
 Root    231 :    22.978696320260760
 Root    232 :    22.991056291464410
 Root    233 :    23.049573792217880
 Root    234 :    23.102273776784560
 Root    235 :    23.138089693745940
 Root    236 :    23.189833342131880
 Root    237 :    23.197397482576900
 Root    238 :    23.249128679922000
 Root    239 :    23.257729403069600
 Root    240 :    23.289978466463370
 Root    241 :    23.329328494872730
 Root    242 :    23.354348230519580
 Root    243 :    23.388154124879100
 Root    244 :    23.425241440058700
 Root    245 :    23.509747214237990
 Root    246 :    23.535566095652200
 Root    247 :    23.577327715089990
 Root    248 :    23.623694425486520
 Root    249 :    23.709113498509910
 Root    250 :    23.712228842258980
 Root    251 :    23.843236983571650
 Root    252 :    23.922966211178140
 Root    253 :    23.933811354806360
 Root    254 :    23.981121510315840
 Root    255 :    23.986811515446040
 Root    256 :    24.064114799817710
 Root    257 :    24.066948726764730
 Root    258 :    24.096853153977020
 Root    259 :    24.121433938486050
 Root    260 :    24.174415597094770
 Root    261 :    24.207646117844840
 Root    262 :    24.226406218002980
 Root    263 :    24.245304792874410
 Root    264 :    24.343164467990020
 Root    265 :    24.402804964434720
 Root    266 :    24.405293761974630
 Root    267 :    24.477106397758860
 Root    268 :    24.520775982618120
 Root    269 :    24.556839160614140
 Root    270 :    24.599942185656670
 Root    271 :    24.645691210116710
 Root    272 :    24.696013775777590
 Root    273 :    24.715454680060550
 Root    274 :    24.730648747011710
 Root    275 :    24.843155080397550
 Root    276 :    24.876084290166220
 Root    277 :    24.908061667511300
 Root    278 :    24.945228778289540
 Root    279 :    24.945550838519090
 Root    280 :    24.995352279940440
 Root    281 :    25.035584205419880
 Root    282 :    25.144726728409720
 Root    283 :    25.158621411220560
 Root    284 :    25.209298298710880
 Root    285 :    25.328777596223020
 Root    286 :    25.375826381213860
 Root    287 :    25.426263858346280
 Root    288 :    25.472847733473470
 Root    289 :    25.498401043571050
 Root    290 :    25.517454829615520
 Root    291 :    25.539573932501820
 Root    292 :    25.600486386960190
 Root    293 :    25.610152216697180
 Root    294 :    25.642367443387890
 Root    295 :    25.665137263731740
 Root    296 :    25.704864412022650
 Root    297 :    25.903787644786140
 Root    298 :    25.947750018211550
 Root    299 :    25.976524617399850
 Root    300 :    25.991123222125810
 Root    301 :    26.089906138032120
 Root    302 :    26.106209003920720
 Root    303 :    26.113832105332560
 Root    304 :    26.198289867935810
 Root    305 :    26.245349374690900
 Root    306 :    26.350909505224070
 Root    307 :    26.361302709914170
 Root    308 :    26.400397289841220
 Root    309 :    26.486436086175860
 Root    310 :    26.555270375792650
 Root    311 :    26.612652874018720
 Root    312 :    26.626445874383650
 Root    313 :    26.657313092782200
 Root    314 :    26.764442885271860
 Root    315 :    26.775575749892240
 Root    316 :    26.859688828078940
 Root    317 :    26.957088966058740
 Root    318 :    27.014389257721840
 Root    319 :    27.125027278878830
 Root    320 :    27.142072100014230
 Root    321 :    27.283617461934990
 Root    322 :    27.376091837024590
 Root    323 :    27.401927614345720
 Root    324 :    27.489662317699470
 Root    325 :    27.533036441954600
 Root    326 :    27.628289882860560
 Root    327 :    27.673773978256440
 Root    328 :    27.720085727119350
 Root    329 :    27.779258377590420
 Root    330 :    27.816970955127270
 Root    331 :    27.866766418327770
 Root    332 :    27.883519406792330
 Root    333 :    27.939714211846470
 Root    334 :    27.961274797476680
 Root    335 :    28.031289906999860
 Root    336 :    28.105844947884390
 Root    337 :    28.140000831858590
 Root    338 :    28.192776771828220
 Root    339 :    28.273405583317910
 Root    340 :    28.416959460507510
 Root    341 :    28.467396456789140
 Root    342 :    28.623023620513750
 Root    343 :    28.636073738017570
 Root    344 :    28.715941191828170
 Root    345 :    28.781807966355180
 Root    346 :    28.824230581147010
 Root    347 :    28.902776036597990
 Root    348 :    28.967466393333760
 Root    349 :    28.983434297728690
 Root    350 :    29.054477150376140
 Root    351 :    29.193600710635340
 Root    352 :    29.209442295455510
 Root    353 :    29.297494270325520
 Root    354 :    29.303389145038240
 Root    355 :    29.351206817091970
 Root    356 :    29.421539397897970
 Root    357 :    29.492479154358300
 Root    358 :    29.591019126359900
 Root    359 :    29.654469862959980
 Root    360 :    29.792389622331630
 Root    361 :    29.897253668826920
 Root    362 :    30.045223883982370
 Root    363 :    30.126622833633350
 Root    364 :    30.377845343454130
 Root    365 :    30.518462592688320
 Root    366 :    30.576589337552210
 Root    367 :    30.578085648122400
 Root    368 :    30.628556433924640
 Root    369 :    30.655415473575670
 Root    370 :    30.937270393077560
 Root    371 :    31.026348586802210
 Root    372 :    31.047966261013420
 Root    373 :    31.227972089697510
 Root    374 :    31.244993340032640
 Root    375 :    31.290250628106790
 Root    376 :    31.370841250534820
 Root    377 :    31.382351535880590
 Root    378 :    31.438726964034780
 Root    379 :    31.509355627272100
 Root    380 :    31.513795541893140
 Root    381 :    31.629006975141820
 Root    382 :    31.677795184650620
 Root    383 :    31.753290302879080
 Root    384 :    31.813693948756000
 Root    385 :    31.856131895481030
 Root    386 :    31.857275983386400
 Root    387 :    32.059590511041210
 Root    388 :    32.087106113607950
 Root    389 :    32.130521468336370
 Root    390 :    32.180842649157090
 Root    391 :    32.318350251127330
 Root    392 :    32.444519355720690
 Root    393 :    32.566580609103530
 Root    394 :    32.817109036399790
 Root    395 :    32.820978848285200
 Root    396 :    32.863644696814070
 Root    397 :    32.877129791419470
 Root    398 :    32.964038112089000
 Root    399 :    32.986192043163600
 Root    400 :    33.065757876183360
 Root    401 :    33.152164932076130
 Root    402 :    33.289328396313020
 Root    403 :    33.361387598821120
 Root    404 :    33.365051019937300
 Root    405 :    33.385323577704690
 Root    406 :    33.473019658785300
 Root    407 :    33.602000346266760
 Root    408 :    33.607192606938400
 Root    409 :    33.668297347635890
 Root    410 :    33.946390103906040
 Root    411 :    34.101621500686610
 Root    412 :    34.115937609496330
 Root    413 :    34.149553394600710
 Root    414 :    34.163139333453420
 Root    415 :    34.276708881028360
 Root    416 :    34.381109354188650
 Root    417 :    34.577985965999130
 Root    418 :    34.713057707480170
 Root    419 :    34.747661966088740
 Root    420 :    34.763594245326560
 Root    421 :    34.810231906418540
 Root    422 :    34.842330479251980
 Root    423 :    34.940652663117470
 Root    424 :    35.066082970658070
 Root    425 :    35.088487797523420
 Root    426 :    35.149541777494510
 Root    427 :    35.172664352299550
 Root    428 :    35.230881959136050
 Root    429 :    35.341042605815570
 Root    430 :    35.399663095767850
 Root    431 :    35.457276247471190
 Root    432 :    35.576867534622610
 Root    433 :    35.611464232960020
 Root    434 :    35.619831014311690
 Root    435 :    35.630153278322410
 Root    436 :    35.904916346020340
 Root    437 :    35.946394196926220
 Root    438 :    36.104733125751430
 Root    439 :    36.109629971688880
 Root    440 :    36.175844810574520
 Root    441 :    36.217115785193660
 Root    442 :    36.265915732564500
 Root    443 :    36.339425164204800
 Root    444 :    36.536518506287990
 Root    445 :    36.566248856193350
 Root    446 :    36.677488118755030
 Root    447 :    36.680692502812590
 Root    448 :    36.809716516142490
 Root    449 :    36.934298618174740
 Root    450 :    37.063630949914620
 Root    451 :    37.078100414774910
 Root    452 :    37.107624080315080
 Root    453 :    37.397676502407610
 Root    454 :    37.444587924400870
 Root    455 :    37.534071538561680
 Root    456 :    37.549253967006950
 Root    457 :    37.588167118007300
 Root    458 :    37.690963664080450
 Root    459 :    37.725090942194410
 Root    460 :    37.746465187837830
 Root    461 :    37.765615075971890
 Root    462 :    37.864519242209390
 Root    463 :    37.902643005644640
 Root    464 :    37.988355371570820
 Root    465 :    38.083744923970820
 Root    466 :    38.099102103466070
 Root    467 :    38.299319281410040
 Root    468 :    38.445120456824650
 Root    469 :    38.463054739813400
 Root    470 :    38.819696484913730
 Root    471 :    39.026758650919170
 Root    472 :    39.123705256696540
 Root    473 :    39.251076141021190
 Root    474 :    39.336499626026210
 Root    475 :    39.475784558899220
 Root    476 :    39.493094817557920
 Root    477 :    39.516795292098590
 Root    478 :    39.558433720327610
 Root    479 :    39.683410087000150
 Root    480 :    39.808712898752870
 Root    481 :    39.813173337734800
 Root    482 :    39.858976936928240
 Root    483 :    39.875258183682680
 Root    484 :    39.913606942008220
 Root    485 :    40.004376832117500
 Root    486 :    40.186182613443480
 Root    487 :    40.364201086200530
 Root    488 :    40.397991240434200
 Root    489 :    40.613441070329610
 Root    490 :    40.763217806850520
 Root    491 :    40.969751078478640
 Root    492 :    41.100797073827410
 Root    493 :    41.162496821848900
 Root    494 :    41.249742817295750
 Root    495 :    41.304698686019240
 Root    496 :    41.351620044244140
 Root    497 :    41.379154034477590
 Root    498 :    41.403911608395940
 Root    499 :    41.494712830865150
 Root    500 :    41.832147923711690
 Root    501 :    42.006312098363050
 Root    502 :    42.125577614904270
 Root    503 :    42.287501838311030
 Root    504 :    42.316815284359830
 Root    505 :    42.485910598688410
 Root    506 :    42.583854846149180
 Root    507 :    42.703797601547710
 Root    508 :    42.943653688367750
 Root    509 :    43.083684276281300
 Root    510 :    43.186887271763690
 Root    511 :    43.213983075251360
 Root    512 :    43.381222240415440
 Root    513 :    43.382280765779760
 Root    514 :    43.474675625111040
 Root    515 :    43.532163459234060
 Root    516 :    43.619986242603740
 Root    517 :    43.628427587270430
 Root    518 :    43.798539923781090
 Root    519 :    43.878186277923370
 Root    520 :    44.084426298006720
 Root    521 :    44.230096861666600
 Root    522 :    44.290757682957560
 Root    523 :    44.370243234558650
 Root    524 :    44.580037134499030
 Root    525 :    44.696154550821860
 Root    526 :    44.864841928899510
 Root    527 :    44.938131116925330
 Root    528 :    45.022869606346510
 Root    529 :    45.344726728297450
 Root    530 :    45.670583739269000
 Root    531 :    45.718346224908010
 Root    532 :    45.854496057850640
 Root    533 :    45.933132713694190
 Root    534 :    46.138756939575810
 Root    535 :    46.162680684876700
 Root    536 :    46.231391751438920
 Root    537 :    46.588078333581900
 Root    538 :    46.762908647423400
 Root    539 :    46.902245418612420
 Root    540 :    47.018372198892190
 Root    541 :    47.092807297770500
 Root    542 :    47.142176623366770
 Root    543 :    47.405787520277040
 Root    544 :    47.452608855253640
 Root    545 :    47.561201240857930
 Root    546 :    47.641489185240770
 Root    547 :    47.883823899716420
 Root    548 :    48.124538717090160
 Root    549 :    48.228791869426760
 Root    550 :    48.329397152225670
 Root    551 :    48.479643959151710
 Root    552 :    48.704524939682440
 Root    553 :    49.166668823997980
 Root    554 :    49.187616770708910
 Root    555 :    49.247801029660770
 Root    556 :    49.548279402609400
 Root    557 :    49.578322664090120
 Root    558 :    49.643760689364610
 Root    559 :    49.764423455181050
 Root    560 :    49.879676595458560
 Root    561 :    50.057348684339770
 Root    562 :    50.074330108245850
 Root    563 :    50.289254614723530
 Root    564 :    50.311287722228090
 Root    565 :    50.679915116412570
 Root    566 :    51.244744761279650
 Root    567 :    51.287797621800180
 Root    568 :    51.393881133864010
 Root    569 :    51.606152691782060
 Root    570 :    51.625484749384140
 Root    571 :    51.775954120988550
 Root    572 :    51.917504329238010
 Root    573 :    51.940996105586660
 Root    574 :    52.038929808400180
 Root    575 :    52.291301788949230
 Root    576 :    52.465804429903100
 Root    577 :    52.546436060542190
 Root    578 :    52.834376530520320
 Root    579 :    52.913090580776190
 Root    580 :    52.944523304876000
 Root    581 :    53.056512845053970
 Root    582 :    53.287268171102740
 Root    583 :    53.458531168504760
 Root    584 :    53.562489793206220
 Root    585 :    53.737744309579560
 Root    586 :    54.300956173661880
 Root    587 :    54.418822664786380
 Root    588 :    54.442265350248990
 Root    589 :    54.643788008089090
 Root    590 :    54.754143302509740
 Root    591 :    54.890962327563930
 Root    592 :    54.949208007484230
 Root    593 :    55.047162802218670
 Root    594 :    55.107993504597560
 Root    595 :    55.310045732236370
 Root    596 :    55.427282550481680
 Root    597 :    55.432207301211250
 Root    598 :    55.625348606728650
 Root    599 :    55.669023355666740
 Root    600 :    55.737373486463220
 Root    601 :    56.047466559432760
 Root    602 :    56.172495368928310
 Root    603 :    56.334692375598180
 Root    604 :    56.762601123226770
 Root    605 :    56.968810714683400
 Root    606 :    57.034585806264410
 Root    607 :    57.122887964988750
 Root    608 :    57.406408575308330
 Root    609 :    57.705345637239010
 Root    610 :    57.780029363267530
 Root    611 :    57.928412113201780
 Root    612 :    58.162042527119050
 Root    613 :    58.174176417705450
 Root    614 :    58.291304490655180
 Root    615 :    58.405079931105530
 Root    616 :    58.417464472981480
 Root    617 :    58.827822810738380
 Root    618 :    58.904286906612100
 Root    619 :    58.980633829539740
 Root    620 :    58.986766502704410
 Root    621 :    59.071848814629020
 Root    622 :    59.116194214685640
 Root    623 :    59.187806474654930
 Root    624 :    59.240956243413570
 Root    625 :    59.294277791003270
 Root    626 :    59.720887079238580
 Root    627 :    59.951563073475650
 Root    628 :    60.015143032415610
 Root    629 :    60.284852296411370
 Root    630 :    60.297964505728520
 Root    631 :    60.528481892593380
 Root    632 :    60.543842862848970
 Root    633 :    60.559292530983820
 Root    634 :    60.628767986251270
 Root    635 :    60.695315048136000
 Root    636 :    60.841385311873520
 Root    637 :    61.029382688735150
 Root    638 :    61.102255385736060
 Root    639 :    61.173534240316710
 Root    640 :    61.292732168849900
 Root    641 :    61.340637925535830
 Root    642 :    61.532526065367210
 Root    643 :    61.560153680108820
 Root    644 :    61.563978210050910
 Root    645 :    61.721769583578530
 Root    646 :    61.759157530673850
 Root    647 :    61.872393004319930
 Root    648 :    62.103582053553820
 Root    649 :    62.141898511816830
 Root    650 :    62.276957490316780
 Root    651 :    62.330782684231020
 Root    652 :    62.504218979108990
 Root    653 :    62.691522775362420
 Root    654 :    62.778844374412990
 Root    655 :    62.910369749302110
 Root    656 :    63.111500546877740
 Root    657 :    63.255755068566010
 Root    658 :    63.382033593151900
 Root    659 :    63.386887977219370
 Root    660 :    63.503265713305870
 Root    661 :    63.584444793013330
 Root    662 :    63.663512464589090
 Root    663 :    63.680605644169720
 Root    664 :    63.721831052287720
 Root    665 :    63.937093488813810
 Root    666 :    63.951962012889900
 Root    667 :    64.149977521334660
 Root    668 :    64.335273886880510
 Root    669 :    64.336763244754750
[...]
     13   0.346991D-01  0.000000D+00 -0.262574D-01  0.000000D+00  0.000000D+00
     14  -0.304193D+00  0.000000D+00  0.413041D+00  0.000000D+00  0.000000D+00
     15   0.000000D+00 -0.129009D+00  0.000000D+00 -0.218888D+00 -0.783096D+00
     16   0.000000D+00  0.869882D-01  0.000000D+00  0.204466D-01  0.162608D+00
               796           797           798           799           800 
      1  -0.114637D+03 -0.114634D+03 -0.114611D+03 -0.114604D+03 -0.114600D+03
      2  -0.470248D-01  0.994935D-02 -0.209060D-01 -0.109274D+00  0.000000D+00
      3  -0.107754D-01 -0.225889D-01 -0.961752D-02  0.750037D-02  0.000000D+00
      4   0.000000D+00  0.000000D+00  0.000000D+00  0.000000D+00  0.755577D-02
      5   0.120520D+00 -0.661761D-02  0.693580D-01  0.315335D+00  0.000000D+00
      6   0.289472D-01  0.567785D-01  0.270739D-01  0.485072D-02  0.000000D+00
      7   0.000000D+00  0.000000D+00  0.000000D+00  0.000000D+00 -0.193271D-01
      8   0.000000D+00  0.000000D+00  0.000000D+00  0.000000D+00  0.291201D-02
      9   0.000000D+00  0.000000D+00  0.000000D+00  0.000000D+00  0.172238D+00
     10   0.837572D-01 -0.420020D+00 -0.384923D-01 -0.210615D+00  0.000000D+00
     11   0.497501D+00  0.280764D+00 -0.273115D+00 -0.148761D+00  0.000000D+00
     12   0.132882D+00 -0.298773D+00  0.965108D-01 -0.165713D+00  0.000000D+00
     13  -0.180876D-01 -0.105685D+00 -0.153461D+00  0.739233D-01  0.000000D+00
     14   0.193338D+00 -0.418109D+00 -0.384810D-01 -0.250720D+00  0.000000D+00
     15   0.000000D+00  0.000000D+00  0.000000D+00  0.000000D+00 -0.104587D+00
     16   0.000000D+00  0.000000D+00  0.000000D+00  0.000000D+00  0.667974D-01
               801           802           803           804           805 
      1  -0.114593D+03 -0.114588D+03 -0.114582D+03 -0.114573D+03 -0.114568D+03
      2   0.000000D+00  0.000000D+00  0.859152D-02  0.379004D-01  0.177197D-01
      3   0.000000D+00  0.000000D+00  0.109907D+00  0.354856D-01  0.810807D-01
      4   0.213605D-01 -0.265055D-02  0.000000D+00  0.000000D+00  0.000000D+00
      5   0.000000D+00  0.000000D+00 -0.358882D-01 -0.110492D+00 -0.488673D-01
      6   0.000000D+00  0.000000D+00 -0.299107D+00 -0.105358D+00 -0.210852D+00
      7  -0.503221D-01  0.700922D-02  0.000000D+00  0.000000D+00  0.000000D+00
      8   0.150648D+00  0.856818D-01  0.000000D+00  0.000000D+00  0.000000D+00
      9  -0.205996D+00 -0.295036D+00  0.000000D+00  0.000000D+00  0.000000D+00
     10   0.000000D+00  0.000000D+00  0.116609D+00 -0.200714D+00 -0.259631D+00
     11   0.000000D+00  0.000000D+00 -0.164048D+00 -0.549086D+00 -0.173777D-01
     12   0.000000D+00  0.000000D+00  0.702460D-01 -0.686787D-01 -0.156068D+00
     13   0.000000D+00  0.000000D+00 -0.239993D-01 -0.334820D-01 -0.681294D-01
     14   0.000000D+00  0.000000D+00  0.682377D-01 -0.176796D+00 -0.244514D+00
     15   0.344528D+00  0.369612D+00  0.000000D+00  0.000000D+00  0.000000D+00
     16   0.319859D+00  0.139636D-01  0.000000D+00  0.000000D+00  0.000000D+00
               806           807           808           809           810 
      1  -0.114554D+03 -0.114532D+03 -0.114525D+03 -0.114518D+03 -0.114509D+03
      2   0.225355D-01 -0.443217D-02  0.000000D+00 -0.334217D-01  0.362691D-01
      3  -0.231227D-01  0.189227D-01  0.000000D+00 -0.137197D+00  0.215467D-01
      4   0.000000D+00  0.000000D+00 -0.654659D-01  0.000000D+00  0.000000D+00
      5  -0.648627D-01  0.155385D-01  0.000000D+00  0.975548D-01 -0.124409D+00
      6   0.753536D-01 -0.410699D-01  0.000000D+00  0.381064D+00 -0.646237D-01
      7   0.000000D+00  0.000000D+00  0.172921D+00  0.000000D+00  0.000000D+00
      8   0.000000D+00  0.000000D+00 -0.725661D-01  0.000000D+00  0.000000D+00
      9   0.000000D+00  0.000000D+00  0.386765D+00  0.000000D+00  0.000000D+00
     10   0.114850D+00  0.716562D-01  0.000000D+00  0.768000D-01 -0.242820D+00
     11   0.106080D+00 -0.520631D+00  0.000000D+00 -0.560031D+00  0.655744D+00
     12   0.201603D+00 -0.136038D-01  0.000000D+00 -0.628970D-01 -0.128986D+00
     13  -0.124171D-01 -0.103693D+00  0.000000D+00  0.448164D-01  0.430870D-01
     14   0.626149D-02 -0.123383D+00  0.000000D+00  0.143282D-02  0.389989D-01
     15   0.000000D+00  0.000000D+00 -0.397879D+00  0.000000D+00  0.000000D+00
     16   0.000000D+00  0.000000D+00 -0.215232D+00  0.000000D+00  0.000000D+00
               811           812           813           814           815 
      1  -0.114508D+03 -0.114504D+03 -0.114488D+03 -0.114488D+03 -0.114475D+03
      2  -0.276323D-01 -0.615657D-01  0.261033D-01  0.000000D+00  0.445155D-01
      3   0.397668D-01  0.451984D-01 -0.129686D-01  0.000000D+00 -0.396250D-01
      4   0.000000D+00  0.000000D+00  0.000000D+00 -0.136130D-01  0.000000D+00
      5   0.762936D-01  0.168399D+00 -0.706935D-01  0.000000D+00 -0.115834D+00
      6  -0.111653D+00 -0.120429D+00  0.373608D-01  0.000000D+00  0.102616D+00
      7   0.000000D+00  0.000000D+00  0.000000D+00  0.538963D-01  0.000000D+00
      8   0.000000D+00  0.000000D+00  0.000000D+00  0.271034D-01  0.000000D+00
      9   0.000000D+00  0.000000D+00  0.000000D+00  0.413044D+00  0.000000D+00
     10   0.647258D-01 -0.239827D+00 -0.116067D-01  0.000000D+00 -0.131256D+00
     11  -0.184313D+00  0.686486D+00  0.108008D-01  0.000000D+00 -0.703153D-01
     12  -0.194714D+00 -0.219334D+00 -0.123739D+00  0.000000D+00 -0.129264D+00
     13  -0.105609D+00  0.493875D-01  0.113607D+00  0.000000D+00 -0.110879D+00
     14  -0.108942D+00 -0.594759D-01 -0.122117D+00  0.000000D+00 -0.324745D+00
     15   0.000000D+00  0.000000D+00  0.000000D+00 -0.414739D+00  0.000000D+00
     16   0.000000D+00  0.000000D+00  0.000000D+00  0.356567D-01  0.000000D+00
               816           817           818           819           820 
      1  -0.114465D+03 -0.114463D+03 -0.114453D+03 -0.114446D+03 -0.114445D+03
      2  -0.500339D-01  0.000000D+00  0.000000D+00  0.000000D+00  0.282995D-01
      3   0.565629D-01  0.000000D+00  0.000000D+00  0.000000D+00  0.149097D-01
      4   0.000000D+00 -0.322145D-01 -0.285160D-01 -0.449526D-01  0.000000D+00
      5   0.143439D+00  0.000000D+00  0.000000D+00  0.000000D+00 -0.830128D-01
      6  -0.144356D+00  0.000000D+00  0.000000D+00  0.000000D+00 -0.435034D-01
      7   0.000000D+00  0.793904D-01  0.884638D-01  0.132097D+00  0.000000D+00
      8   0.000000D+00  0.924044D-01 -0.194933D-01 -0.856596D-01  0.000000D+00
      9   0.000000D+00 -0.337122D-01  0.766650D-01  0.205779D+00  0.000000D+00
     10  -0.118633D+00  0.000000D+00  0.000000D+00  0.000000D+00  0.145458D+00
     11  -0.411483D+00  0.000000D+00  0.000000D+00  0.000000D+00 -0.585202D+00
     12  -0.237285D+00  0.000000D+00  0.000000D+00  0.000000D+00  0.651189D-01
     13  -0.102708D+00  0.000000D+00  0.000000D+00  0.000000D+00  0.952455D-01
     14  -0.124864D+00  0.000000D+00  0.000000D+00  0.000000D+00 -0.201806D-01
     15   0.000000D+00  0.490142D-01 -0.168933D+00 -0.157657D+00  0.000000D+00
     16   0.000000D+00  0.225951D+00  0.102048D+00  0.107587D+00  0.000000D+00
               821           822           823           824           825 
      1  -0.114432D+03 -0.114426D+03 -0.114412D+03 -0.114410D+03 -0.114401D+03
      2   0.000000D+00 -0.394650D-01  0.000000D+00  0.146122D-01  0.201087D-01
      3   0.000000D+00 -0.573941D-02  0.000000D+00 -0.272753D-01  0.669069D-01
      4  -0.100084D+00  0.000000D+00 -0.287613D-01  0.000000D+00  0.000000D+00
      5   0.000000D+00  0.108795D+00  0.000000D+00 -0.458982D-01 -0.595145D-01
      6   0.000000D+00  0.108186D-01  0.000000D+00  0.653797D-01 -0.202309D+00
      7   0.291969D+00  0.000000D+00  0.885672D-01  0.000000D+00  0.000000D+00
      8  -0.282956D+00  0.000000D+00 -0.698221D-01  0.000000D+00  0.000000D+00
      9   0.647274D+00  0.000000D+00 -0.330007D-01  0.000000D+00  0.000000D+00
     10   0.000000D+00  0.192724D+00  0.000000D+00  0.224782D+00  0.886957D-01
     11   0.000000D+00  0.816524D+00  0.000000D+00  0.104803D+00  0.524565D+00
     12   0.000000D+00  0.417256D+00  0.000000D+00  0.197044D+00  0.261935D+00
     13   0.000000D+00 -0.473977D-01  0.000000D+00 -0.140176D+00  0.996059D-01
     14   0.000000D+00  0.303804D+00  0.000000D+00  0.142149D+00  0.358579D+00
     15  -0.705796D+00  0.000000D+00  0.515177D-01  0.000000D+00  0.000000D+00
     16  -0.383495D+00  0.000000D+00  0.744378D-01  0.000000D+00  0.000000D+00
               826           827           828           829           830 
      1  -0.114400D+03 -0.114388D+03 -0.114379D+03 -0.114368D+03 -0.114349D+03
      2  -0.922426D-01  0.856281D-02  0.538290D-01  0.000000D+00  0.000000D+00
      3   0.714764D-01 -0.361096D-01  0.415698D-01  0.000000D+00  0.000000D+00
      4   0.000000D+00  0.000000D+00  0.000000D+00  0.212908D-01  0.289417D-02
      5   0.262105D+00 -0.243149D-01 -0.164291D+00  0.000000D+00  0.000000D+00
      6  -0.213291D+00  0.102594D+00 -0.125521D+00  0.000000D+00  0.000000D+00
      7   0.000000D+00  0.000000D+00  0.000000D+00 -0.557834D-01 -0.170854D-01
      8   0.000000D+00  0.000000D+00  0.000000D+00  0.540242D-02  0.174495D-01
      9   0.000000D+00  0.000000D+00  0.000000D+00 -0.864198D-01 -0.332759D-01
     10   0.544758D+00 -0.317910D-02  0.148684D+00  0.000000D+00  0.000000D+00
     11  -0.107569D+01  0.677018D-01  0.452862D+00  0.000000D+00  0.000000D+00
     12   0.223153D+00  0.936205D-01  0.148257D+00  0.000000D+00  0.000000D+00
     13  -0.494693D-01 -0.745506D-01 -0.147693D-01  0.000000D+00  0.000000D+00
     14   0.874789D-01  0.378271D+00  0.494734D+00  0.000000D+00  0.000000D+00
     15   0.000000D+00  0.000000D+00  0.000000D+00  0.758305D-01  0.591210D-01
     16   0.000000D+00  0.000000D+00  0.000000D+00  0.313256D-01  0.109981D+00
               831           832           833           834           835 
      1  -0.114346D+03 -0.114345D+03 -0.114328D+03 -0.114314D+03 -0.114304D+03
      2  -0.417112D-01  0.000000D+00 -0.991822D-02  0.354699D-01  0.374337D-01
      3  -0.384497D-01  0.000000D+00  0.116704D-01  0.439960D-02  0.741928D-01
      4   0.000000D+00  0.565241D-01  0.000000D+00  0.000000D+00  0.000000D+00
      5   0.130996D+00  0.000000D+00  0.237859D-01 -0.955768D-01 -0.100247D+00
      6   0.115675D+00  0.000000D+00 -0.451970D-01  0.772708D-02 -0.222745D+00
      7   0.000000D+00 -0.160986D+00  0.000000D+00  0.000000D+00  0.000000D+00
      8   0.000000D+00  0.228371D+00  0.000000D+00  0.000000D+00  0.000000D+00
      9   0.000000D+00 -0.430038D+00  0.000000D+00  0.000000D+00  0.000000D+00
     10   0.394505D+00  0.000000D+00 -0.631730D+00  0.118846D+00  0.866689D-01
     11  -0.474611D+00  0.000000D+00 -0.969741D-01 -0.600184D+00  0.304250D+00
     12   0.280199D+00  0.000000D+00 -0.476838D+00  0.883788D-01  0.132723D+00
     13   0.194576D+00  0.000000D+00  0.134280D+00  0.204828D-01 -0.565337D-01
     14   0.430553D+00  0.000000D+00 -0.446843D+00  0.137748D+00  0.287073D+00
     15   0.000000D+00  0.377991D+00  0.000000D+00  0.000000D+00  0.000000D+00
     16   0.000000D+00  0.148101D+00  0.000000D+00  0.000000D+00  0.000000D+00
               836           837           838           839           840 
      1  -0.114287D+03 -0.114287D+03 -0.114261D+03 -0.114252D+03 -0.114237D+03
      2   0.000000D+00 -0.301392D-01 -0.410873D-02 -0.651727D-02  0.360355D-01
      3   0.000000D+00  0.509408D-02  0.447504D-01  0.489521D-02  0.475824D-01
      4   0.967196D-02  0.000000D+00  0.000000D+00  0.000000D+00  0.000000D+00
      5   0.000000D+00  0.107425D+00  0.997653D-03  0.126019D-01 -0.118059D+00
      6   0.000000D+00 -0.225685D-01 -0.132424D+00 -0.261709D-01 -0.155333D+00
      7  -0.366794D-01  0.000000D+00  0.000000D+00  0.000000D+00  0.000000D+00
      8   0.594409D-01  0.000000D+00  0.000000D+00  0.000000D+00  0.000000D+00
      9  -0.730361D-01  0.000000D+00  0.000000D+00  0.000000D+00  0.000000D+00
     10   0.000000D+00  0.673637D-01 -0.169082D+00 -0.145200D+00 -0.627238D-01
     11   0.000000D+00  0.287805D+00 -0.851647D+00 -0.320719D-01 -0.439757D+00
     12   0.000000D+00  0.233764D+00 -0.306403D+00 -0.360723D+00  0.177403D+00
     13   0.000000D+00  0.454258D-01  0.552617D-01  0.707146D-02 -0.103673D-01
     14   0.000000D+00  0.655008D-01 -0.553741D+00  0.129786D-01 -0.339377D+00
     15   0.118558D+00  0.000000D+00  0.000000D+00  0.000000D+00  0.000000D+00
     16   0.544276D-01  0.000000D+00  0.000000D+00  0.000000D+00  0.000000D+00
               841           842           843           844           845 
      1  -0.114229D+03 -0.114227D+03 -0.114213D+03 -0.114209D+03 -0.114194D+03
      2   0.000000D+00  0.000000D+00 -0.165750D-01  0.000000D+00  0.167464D-01
      3   0.000000D+00  0.000000D+00  0.174611D-01  0.000000D+00  0.151693D-01
      4   0.328294D-02  0.748949D-02  0.000000D+00  0.355707D-01  0.000000D+00
      5   0.000000D+00  0.000000D+00  0.481455D-01  0.000000D+00 -0.480881D-01
      6   0.000000D+00  0.000000D+00 -0.482719D-01  0.000000D+00 -0.424986D-01
      7  -0.106046D-01 -0.237423D-01  0.000000D+00 -0.100784D+00  0.000000D+00
      8  -0.209188D-01  0.498535D-02  0.000000D+00  0.108056D+00  0.000000D+00
      9  -0.452937D-01 -0.909451D-01  0.000000D+00 -0.249629D+00  0.000000D+00
     10   0.000000D+00  0.000000D+00  0.275997D+00  0.000000D+00  0.331401D+00
     11   0.000000D+00  0.000000D+00 -0.267103D+00  0.000000D+00 -0.280844D+00
     12   0.000000D+00  0.000000D+00  0.178246D-01  0.000000D+00  0.418195D-01
     13   0.000000D+00  0.000000D+00  0.256612D+00  0.000000D+00  0.456675D-01
     14   0.000000D+00  0.000000D+00  0.163642D+00  0.000000D+00  0.335621D+00
     15   0.138596D-01 -0.769417D-02  0.000000D+00  0.179631D+00  0.000000D+00
     16  -0.812602D-01 -0.429908D-01  0.000000D+00  0.946945D-01  0.000000D+00
               846           847           848           849           850 
      1  -0.114184D+03 -0.114174D+03 -0.114157D+03 -0.114122D+03 -0.114109D+03
      2  -0.246444D-01 -0.332539D-02 -0.652741D-01 -0.422482D-02 -0.271639D-01
      3  -0.150055D-01 -0.190251D-02 -0.747172D-01  0.999845D-02  0.617047D-01
      4   0.000000D+00  0.000000D+00  0.000000D+00  0.000000D+00  0.000000D+00
      5   0.875731D-01 -0.523589D-03  0.174368D+00  0.135118D-01  0.776338D-01
      6   0.443247D-01  0.627486D-02  0.206941D+00 -0.270187D-01 -0.174880D+00
      7   0.000000D+00  0.000000D+00  0.000000D+00  0.000000D+00  0.000000D+00
      8   0.000000D+00  0.000000D+00  0.000000D+00  0.000000D+00  0.000000D+00
      9   0.000000D+00  0.000000D+00  0.000000D+00  0.000000D+00  0.000000D+00
     10  -0.211537D+00  0.131741D+00  0.317710D+00 -0.199803D-01  0.614655D-01
     11  -0.649523D-01 -0.696826D-01 -0.128561D+00  0.358526D+00 -0.756758D+00
     12   0.424439D-01 -0.380707D-01  0.252096D+00  0.199605D+00 -0.825437D-01
     13   0.583191D-01  0.195748D-01  0.708111D-01  0.112817D+00 -0.183643D-01
     14  -0.348388D+00  0.771369D-02  0.309001D+00  0.237278D-02  0.925360D-01
     15   0.000000D+00  0.000000D+00  0.000000D+00  0.000000D+00  0.000000D+00
     16   0.000000D+00  0.000000D+00  0.000000D+00  0.000000D+00  0.000000D+00
               851           852           853           854           855 
      1  -0.114105D+03 -0.114095D+03 -0.114085D+03 -0.114054D+03 -0.114039D+03
      2   0.000000D+00  0.260455D-01  0.191324D-01  0.359972D-01  0.672026D-01
      3   0.000000D+00 -0.411713D-01 -0.581946D-02 -0.215756D-01 -0.898039D-02
      4  -0.834026D-01  0.000000D+00  0.000000D+00  0.000000D+00  0.000000D+00
      5   0.000000D+00 -0.752223D-01 -0.749973D-01 -0.108315D+00 -0.244669D+00
      6   0.000000D+00  0.119569D+00  0.214768D-01  0.666683D-01  0.294777D-01
      7   0.245138D+00  0.000000D+00  0.000000D+00  0.000000D+00  0.000000D+00
      8  -0.221943D+00  0.000000D+00  0.000000D+00  0.000000D+00  0.000000D+00
      9   0.497372D+00  0.000000D+00  0.000000D+00  0.000000D+00  0.000000D+00
     10   0.000000D+00  0.770426D-01 -0.614214D+00 -0.510898D+00  0.439551D+00
     11   0.000000D+00 -0.318379D+00 -0.338534D+00  0.400770D+00 -0.132878D+00
     12   0.000000D+00 -0.624080D-01  0.110516D+00 -0.191018D+00 -0.828143D-01
     13   0.000000D+00  0.405943D-01 -0.851364D-02 -0.572582D-01 -0.678853D-01
     14   0.000000D+00  0.315057D-01 -0.676369D+00 -0.213379D+00  0.306129D+00
     15  -0.333781D+00  0.000000D+00  0.000000D+00  0.000000D+00  0.000000D+00
     16  -0.279373D+00  0.000000D+00  0.000000D+00  0.000000D+00  0.000000D+00
               856           857           858           859           860 
      1  -0.114020D+03 -0.113992D+03 -0.113984D+03 -0.113980D+03 -0.113937D+03
      2   0.000000D+00  0.502494D-01  0.493149D-01  0.000000D+00  0.116883D-01
      3   0.000000D+00 -0.986149D-02 -0.757119D-01  0.000000D+00 -0.178736D-01
      4   0.675316D-02  0.000000D+00  0.000000D+00 -0.366130D-01  0.000000D+00
      5   0.000000D+00 -0.164537D+00 -0.145820D+00  0.000000D+00 -0.309619D-01
      6   0.000000D+00  0.289014D-01  0.224811D+00  0.000000D+00  0.584163D-01
      7  -0.165983D-01  0.000000D+00  0.000000D+00  0.108316D+00  0.000000D+00
      8  -0.436174D-02  0.000000D+00  0.000000D+00 -0.118853D+00  0.000000D+00
      9  -0.342715D-01  0.000000D+00  0.000000D+00  0.256481D+00  0.000000D+00
     10   0.000000D+00  0.574323D-01 -0.245479D-02  0.000000D+00 -0.826778D-01
     11   0.000000D+00 -0.712687D+00 -0.729543D-01  0.000000D+00  0.552991D+00
     12   0.000000D+00  0.298238D+00 -0.486146D-01  0.000000D+00  0.829856D-01
     13   0.000000D+00 -0.232830D-01 -0.892683D-01  0.000000D+00 -0.407253D-02
     14   0.000000D+00 -0.206855D+00  0.408014D-01  0.000000D+00  0.157666D-01
     15  -0.187580D-01  0.000000D+00  0.000000D+00 -0.179510D+00  0.000000D+00
     16   0.595269D-01  0.000000D+00  0.000000D+00 -0.129450D+00  0.000000D+00
               861           862           863           864 
      1  -0.113911D+03 -0.113871D+03 -0.113771D+03 -0.113676D+03
      2  -0.410978D-03 -0.394384D-01  0.116662D-01 -0.901548D-02
      3  -0.193427D-01  0.164101D-01  0.302225D-01  0.139780D-01
      4   0.000000D+00  0.000000D+00  0.000000D+00  0.000000D+00
      5   0.407204D-02  0.110029D+00 -0.255623D-01  0.411096D-01
      6   0.852936D-01 -0.553807D-01 -0.865784D-01 -0.310396D-01
      7   0.000000D+00  0.000000D+00  0.000000D+00  0.000000D+00
      8   0.000000D+00  0.000000D+00  0.000000D+00  0.000000D+00
      9   0.000000D+00  0.000000D+00  0.000000D+00  0.000000D+00
     10   0.249176D-02 -0.337063D+00 -0.217023D+00  0.226793D+00
     11  -0.281078D+00  0.443176D+00 -0.536951D-01  0.288776D+00
     12   0.705072D-02 -0.249428D+00  0.189520D+00  0.225746D-01
     13   0.106964D-01 -0.250007D-01 -0.240557D-01 -0.291649D-01
     14  -0.514342D-01 -0.179866D+00 -0.141827D+00  0.391442D+00
     15   0.000000D+00  0.000000D+00  0.000000D+00  0.000000D+00
     16   0.000000D+00  0.000000D+00  0.000000D+00  0.000000D+00
 Unable to Open any file for archive entry.
 1\1\GINC-HEL03\SP\RwB97XD TD-FC\Gen\C3H6\RR\12-Feb-2022\0\\#P TD(Nstat
 es=10000) wB97XD/Gen SCF(maxcycles=100) Int(Grid=ultrafine)\\xGDB7_000
 01_tier4.com\\0,1\C,0,-1.13862,-0.50199,0.\C,0,0.,0.471603,0.\C,0,1.29
 2906,0.148161,0.\H,0,-1.780817,-0.357312,0.883924\H,0,-0.783052,-1.542
 798,0.\H,0,-1.780817,-0.357312,-0.883924\H,0,-0.274976,1.533816,0.\H,0
 ,1.620949,-0.896549,0.\H,0,2.072996,0.913508,0.\\Version=EM64L-G16RevC
 .01\State=1-A'\HF=-117.7866839\RMSD=3.908e-09\PG=CS [SG(C3H4),X(H2)]\\
 @
 The archive entry for this job was punched.


       THE DEATH-KNELL OF THE ATOM

 SO THE ATOMS IN TURN, WE NOW CLEARLY DISCERN,
 FLY TO BITS WITH THE UTMOST FACILITY;
 THEY WEND ON THEIR WAY, AND, IN SPLITTING, DISPLAY
 AN ABSOLUTE LACK OF STABILITY.

          SIR WM. RAMSAY, 1905
 Job cpu time:       0 days  0 hours 12 minutes 48.0 seconds.
 Elapsed time:       0 days  0 hours  1 minutes 36.3 seconds.
 File lengths (MBytes):  RWF=    968 Int=      0 D2E=      0 Chk=    240 Scr=      1
 Normal termination of Gaussian 16 at Sat Feb 12 22:19:30 2022.
