 Entering Gaussian System, Link 0=g16
 Input=bigQM7w_TDwB97XD_def2SVPD_000010.com
 Output=bigQM7w_TDwB97XD_def2SVPD_000010.log
 Initial command:
 /home/rr/g16/l1.exe "/scratch/rr/PBS_7839455.helios/Gau-63919.inp" -scrdir="/scratch/rr/PBS_7839455.helios/"
 Entering Link 1 = /home/rr/g16/l1.exe PID=     63922.
  
 Copyright (c) 1988-2019, Gaussian, Inc.  All Rights Reserved.
  
 This is part of the Gaussian(R) 16 program.  It is based on
 the Gaussian(R) 09 system (copyright 2009, Gaussian, Inc.),
 the Gaussian(R) 03 system (copyright 2003, Gaussian, Inc.),
 the Gaussian(R) 98 system (copyright 1998, Gaussian, Inc.),
 the Gaussian(R) 94 system (copyright 1995, Gaussian, Inc.),
 the Gaussian 92(TM) system (copyright 1992, Gaussian, Inc.),
 the Gaussian 90(TM) system (copyright 1990, Gaussian, Inc.),
 the Gaussian 88(TM) system (copyright 1988, Gaussian, Inc.),
 the Gaussian 86(TM) system (copyright 1986, Carnegie Mellon
 University), and the Gaussian 82(TM) system (copyright 1983,
 Carnegie Mellon University). Gaussian is a federally registered
 trademark of Gaussian, Inc.
  
 This software contains proprietary and confidential information,
 including trade secrets, belonging to Gaussian, Inc.
  
 This software is provided under written license and may be
 used, copied, transmitted, or stored only in accord with that
 written license.
  
 The following legend is applicable only to US Government
 contracts under FAR:
  
                    RESTRICTED RIGHTS LEGEND
  
 Use, reproduction and disclosure by the US Government is
 subject to restrictions as set forth in subparagraphs (a)
 and (c) of the Commercial Computer Software - Restricted
 Rights clause in FAR 52.227-19.
  
 Gaussian, Inc.
 340 Quinnipiac St., Bldg. 40, Wallingford CT 06492
  
  
 ---------------------------------------------------------------
 Warning -- This program may not be used in any manner that
 competes with the business of Gaussian, Inc. or will provide
 assistance to any competitor of Gaussian, Inc.  The licensee
 of this program is prohibited from giving any competitor of
 Gaussian, Inc. access to this program.  By using this program,
 the user acknowledges that Gaussian, Inc. is engaged in the
 business of creating and licensing software in the field of
 computational chemistry and represents and warrants to the
 licensee that it is not a competitor of Gaussian, Inc. and that
 it will not use this program in any manner prohibited above.
 ---------------------------------------------------------------
  

 Cite this work as:
 Gaussian 16, Revision C.01,
 M. J. Frisch, G. W. Trucks, H. B. Schlegel, G. E. Scuseria, 
 M. A. Robb, J. R. Cheeseman, G. Scalmani, V. Barone, 
 G. A. Petersson, H. Nakatsuji, X. Li, M. Caricato, A. V. Marenich, 
 J. Bloino, B. G. Janesko, R. Gomperts, B. Mennucci, H. P. Hratchian, 
 J. V. Ortiz, A. F. Izmaylov, J. L. Sonnenberg, D. Williams-Young, 
 F. Ding, F. Lipparini, F. Egidi, J. Goings, B. Peng, A. Petrone, 
 T. Henderson, D. Ranasinghe, V. G. Zakrzewski, J. Gao, N. Rega, 
 G. Zheng, W. Liang, M. Hada, M. Ehara, K. Toyota, R. Fukuda, 
 J. Hasegawa, M. Ishida, T. Nakajima, Y. Honda, O. Kitao, H. Nakai, 
 T. Vreven, K. Throssell, J. A. Montgomery, Jr., J. E. Peralta, 
 F. Ogliaro, M. J. Bearpark, J. J. Heyd, E. N. Brothers, K. N. Kudin, 
 V. N. Staroverov, T. A. Keith, R. Kobayashi, J. Normand, 
 K. Raghavachari, A. P. Rendell, J. C. Burant, S. S. Iyengar, 
 J. Tomasi, M. Cossi, J. M. Millam, M. Klene, C. Adamo, R. Cammi, 
 J. W. Ochterski, R. L. Martin, K. Morokuma, O. Farkas, 
 J. B. Foresman, and D. J. Fox, Gaussian, Inc., Wallingford CT, 2019.
 
 ******************************************
 Gaussian 16:  EM64L-G16RevC.01  3-Jul-2019
                12-Feb-2022 
 ******************************************
 %mem=64gb
 %nproc=8
 Will use up to    8 processors via shared memory.
 ----------------------------------------------------------------------
 #P TD(Nstates=10000) wB97XD/Gen SCF(maxcycles=100) Int(Grid=ultrafine)
 ----------------------------------------------------------------------
 1/38=1,172=1/1;
 2/12=2,17=6,18=5,40=1/2;
 3/5=7,11=9,25=1,30=1,74=-58,75=-5/1,2,3,8;
 4//1;
 5/5=2,7=100,38=5/2;
 8/6=1,10=1,108=10000/1;
 9/41=10000,42=1,70=2/14;
 6/7=2,8=2,9=2,10=2/1;
 99/5=1,9=1/99;
 Leave Link    1 at Sat Feb 12 22:22:42 2022, MaxMem=  8589934592 cpu:               0.4 elap:               0.1
 (Enter /home/rr/g16/l101.exe)
 ---------------------
 xGDB7_00001_tier4.com
 ---------------------
 Symbolic Z-matrix:
 Charge =  0 Multiplicity = 1
 6                     0.        0.        0.665 
 6                     0.        0.       -0.665 
 1                     0.        0.9311    1.23904 
 1                     0.       -0.9311    1.23904 
 1                     0.        0.9311   -1.23904 
 1                     0.       -0.9311   -1.23904 
 
 ITRead=  0  0  0  0  0  0
 MicOpt= -1 -1 -1 -1 -1 -1
 NAtoms=      6 NQM=        6 NQMF=       0 NMMI=      0 NMMIF=      0
                NMic=       0 NMicF=      0.
                    Isotopes and Nuclear Properties:
 (Nuclear quadrupole moments (NQMom) in fm**2, nuclear magnetic moments (NMagM)
  in nuclear magnetons)

  Atom         1           2           3           4           5           6
 IAtWgt=          12          12           1           1           1           1
 AtmWgt=  12.0000000  12.0000000   1.0078250   1.0078250   1.0078250   1.0078250
 NucSpn=           0           0           1           1           1           1
 AtZEff=  -0.0000000  -0.0000000  -0.0000000  -0.0000000  -0.0000000  -0.0000000
 NQMom=    0.0000000   0.0000000   0.0000000   0.0000000   0.0000000   0.0000000
 NMagM=    0.0000000   0.0000000   2.7928460   2.7928460   2.7928460   2.7928460
 AtZNuc=   6.0000000   6.0000000   1.0000000   1.0000000   1.0000000   1.0000000
 Leave Link  101 at Sat Feb 12 22:22:42 2022, MaxMem=  8589934592 cpu:               0.7 elap:               0.1
 (Enter /home/rr/g16/l202.exe)
                          Input orientation:                          
 ---------------------------------------------------------------------
 Center     Atomic      Atomic             Coordinates (Angstroms)
 Number     Number       Type             X           Y           Z
 ---------------------------------------------------------------------
      1          6           0        0.000000    0.000000    0.664999
      2          6           0        0.000000    0.000000   -0.664999
      3          1           0        0.000000    0.931103    1.239041
      4          1           0        0.000000   -0.931103    1.239041
      5          1           0        0.000000    0.931103   -1.239041
      6          1           0        0.000000   -0.931103   -1.239041
 ---------------------------------------------------------------------
                    Distance matrix (angstroms):
                    1          2          3          4          5
     1  C    0.000000
     2  C    1.329998   0.000000
     3  H    1.093836   2.119510   0.000000
     4  H    1.093836   2.119510   1.862206   0.000000
     5  H    2.119510   1.093836   2.478082   3.099791   0.000000
     6  H    2.119510   1.093836   3.099791   2.478082   1.862206
                    6
     6  H    0.000000
 Stoichiometry    C2H4
 Framework group  D2H[C2"(C.C),SG(H4)]
 Deg. of freedom     3
 Full point group                 D2H     NOp   8
 Largest Abelian subgroup         D2H     NOp   8
 Largest concise Abelian subgroup D2      NOp   4
                         Standard orientation:                         
 ---------------------------------------------------------------------
 Center     Atomic      Atomic             Coordinates (Angstroms)
 Number     Number       Type             X           Y           Z
 ---------------------------------------------------------------------
      1          6           0        0.000000    0.000000    0.664999
      2          6           0        0.000000    0.000000   -0.664999
      3          1           0        0.000000    0.931103    1.239041
      4          1           0       -0.000000   -0.931103    1.239041
      5          1           0        0.000000    0.931103   -1.239041
      6          1           0       -0.000000   -0.931103   -1.239041
 ---------------------------------------------------------------------
 Rotational constants (GHZ):         144.6027703          30.0779461          24.8988807
 Leave Link  202 at Sat Feb 12 22:22:42 2022, MaxMem=  8589934592 cpu:               0.1 elap:               0.0
 (Enter /home/rr/g16/l301.exe)
 General basis read from cards:  (5D, 7F)
 Centers:       3      4      5      6
 S 3 1.00
     Exponent=  1.3010701000D+01 Coefficients=  1.9682158000D-02
     Exponent=  1.9622572000D+00 Coefficients=  1.3796524000D-01
     Exponent=  4.4453796000D-01 Coefficients=  4.7831935000D-01
 S 1 1.00
     Exponent=  1.2194962000D-01 Coefficients=  1.0000000000D+00
 P 1 1.00
     Exponent=  8.0000000000D-01 Coefficients=  1.0000000000D+00
 P 1 1.00
     Exponent=  1.1704099050D-01 Coefficients=  1.0000000000D+00
 ****
 Centers:       1      2
 S 5 1.00
     Exponent=  1.2384016938D+03 Coefficients=  5.4568832082D-03
     Exponent=  1.8629004992D+02 Coefficients=  4.0638409211D-02
     Exponent=  4.2251176346D+01 Coefficients=  1.8025593888D-01
     Exponent=  1.1676557932D+01 Coefficients=  4.6315121755D-01
     Exponent=  3.5930506482D+00 Coefficients=  4.4087173314D-01
 S 1 1.00
     Exponent=  4.0245147363D-01 Coefficients=  1.0000000000D+00
 S 1 1.00
     Exponent=  1.3090182668D-01 Coefficients=  1.0000000000D+00
 S 1 1.00
     Exponent=  6.7053540256D-02 Coefficients=  1.0000000000D+00
 P 3 1.00
     Exponent=  9.4680970621D+00 Coefficients=  3.8387871728D-02
     Exponent=  2.0103545142D+00 Coefficients=  2.1117025112D-01
     Exponent=  5.4771004707D-01 Coefficients=  5.1328172114D-01
 P 1 1.00
     Exponent=  1.5268613795D-01 Coefficients=  1.0000000000D+00
 D 1 1.00
     Exponent=  8.0000000000D-01 Coefficients=  1.0000000000D+00
 D 1 1.00
     Exponent=  1.1713185140D-01 Coefficients=  1.0000000000D+00
 ****
 Ernie: Thresh=  0.10000D-02 Tol=  0.10000D-05 Strict=F.
 There are    18 symmetry adapted cartesian basis functions of AG  symmetry.
 There are     4 symmetry adapted cartesian basis functions of B1G symmetry.
 There are     6 symmetry adapted cartesian basis functions of B2G symmetry.
 There are    10 symmetry adapted cartesian basis functions of B3G symmetry.
 There are     4 symmetry adapted cartesian basis functions of AU  symmetry.
 There are    18 symmetry adapted cartesian basis functions of B1U symmetry.
 There are    10 symmetry adapted cartesian basis functions of B2U symmetry.
 There are     6 symmetry adapted cartesian basis functions of B3U symmetry.
 There are    16 symmetry adapted basis functions of AG  symmetry.
 There are     4 symmetry adapted basis functions of B1G symmetry.
 There are     6 symmetry adapted basis functions of B2G symmetry.
 There are    10 symmetry adapted basis functions of B3G symmetry.
 There are     4 symmetry adapted basis functions of AU  symmetry.
 There are    16 symmetry adapted basis functions of B1U symmetry.
 There are    10 symmetry adapted basis functions of B2U symmetry.
 There are     6 symmetry adapted basis functions of B3U symmetry.
    72 basis functions,   104 primitive gaussians,    76 cartesian basis functions
     8 alpha electrons        8 beta electrons
       nuclear repulsion energy        33.2632820156 Hartrees.
 IExCor= 4639 DFT=T Ex+Corr=wB97XD ExCW=0 ScaHFX=  1.000000
 ScaDFX=  1.000000  1.000000  1.000000  1.000000 ScalE2=  1.000000  1.000000
 IRadAn=      5 IRanWt=     -1 IRanGd=            0 ICorTp=0 IEmpDi=121
 HFx  wShort=  0.000000 wLong=  0.200000 cFull=  0.222036 cShort=  0.000000 cLong=  0.777964
 DFx  wShort=  0.000000 wLong=  0.200000 cFull=  0.000000 cShort=  0.000000 cLong=  1.000000
 NAtoms=    6 NActive=    6 NUniq=    2 SFac= 4.00D+00 NAtFMM=   60 NAOKFM=F Big=F
 Integral buffers will be    131072 words long.
 Raffenetti 1 integral format.
 Two-electron integral symmetry is turned on.
 R6Disp:  Grimme-D2 Dispersion energy=       -0.0008378348 Hartrees.
 Nuclear repulsion after empirical dispersion term =       33.2624441808 Hartrees.
 Leave Link  301 at Sat Feb 12 22:22:42 2022, MaxMem=  8589934592 cpu:               0.6 elap:               0.1
 (Enter /home/rr/g16/l302.exe)
 NPDir=0 NMtPBC=     1 NCelOv=     1 NCel=       1 NClECP=     1 NCelD=      1
         NCelK=      1 NCelE2=     1 NClLst=     1 CellRange=     0.0.
 One-electron integrals computed using PRISM.
 One-electron integral symmetry used in STVInt
 NBasis=    72 RedAO= T EigKep=  9.20D-05  NBF=    16     4     6    10     4    16    10     6
 NBsUse=    72 1.00D-06 EigRej= -1.00D+00 NBFU=    16     4     6    10     4    16    10     6
 Precomputing XC quadrature grid using
 IXCGrd= 4 IRadAn=           5 IRanWt=          -1 IRanGd=           0 AccXCQ= 0.00D+00.
 Generated NRdTot=       0 NPtTot=           0 NUsed=           0 NTot=          32
 NSgBfM=    76    76    76    76    76 MxSgAt=     6 MxSgA2=     6.
 Leave Link  302 at Sat Feb 12 22:22:42 2022, MaxMem=  8589934592 cpu:               1.0 elap:               0.1
 (Enter /home/rr/g16/l303.exe)
 DipDrv:  MaxL=1.
 Leave Link  303 at Sat Feb 12 22:22:42 2022, MaxMem=  8589934592 cpu:               0.2 elap:               0.1
 (Enter /home/rr/g16/l308.exe)
 Leave Link  308 at Sat Feb 12 22:22:42 2022, MaxMem=  8589934592 cpu:               0.2 elap:               0.0
 (Enter /home/rr/g16/l401.exe)
 ExpMin= 6.71D-02 ExpMax= 1.24D+03 ExpMxC= 1.86D+02 IAcc=3 IRadAn=         5 AccDes= 0.00D+00
 Harris functional with IExCor= 4639 and IRadAn=       5 diagonalized for initial guess.
 HarFok:  IExCor= 4639 AccDes= 0.00D+00 IRadAn=         5 IDoV= 1 UseB2=F ITyADJ=14
 ICtDFT=  3500011 ScaDFX=  1.000000  1.000000  1.000000  1.000000
 FoFCou: FMM=F IPFlag=           0 FMFlag=      100000 FMFlg1=           0
         NFxFlg=           0 DoJE=T BraDBF=F KetDBF=T FulRan=T
         wScrn=  0.000000 ICntrl=       500 IOpCl=  0 I1Cent=   200000004 NGrid=           0
         NMat0=    1 NMatS0=      1 NMatT0=    0 NMatD0=    1 NMtDS0=    0 NMtDT0=    0
 Petite list used in FoFCou.
 Harris En= -74.6141004093020    
 JPrj=0 DoOrth=F DoCkMO=F.
 Initial guess orbital symmetries:
       Occupied  (AG) (B1U) (AG) (B1U) (B2U) (AG) (B3G) (B3U)
       Virtual   (B2G) (AG) (B1U) (B2U) (AG) (B3G) (AG) (B3U) (B1G)
                 (B1U) (B2U) (B2G) (B1U) (AU) (AG) (B2U) (B1U)
                 (B3U) (B3G) (AG) (B3G) (B2U) (B1U) (AG) (B1G)
                 (B2G) (B1U) (B1U) (AU) (B3G) (AG) (B3U) (B3G)
                 (B2G) (B2U) (AG) (B1U) (B1U) (AG) (B2U) (B1U)
                 (B3G) (B3U) (B1G) (AU) (B2U) (AG) (B2G) (B2U)
                 (AG) (B1U) (B3G) (B3U) (B1G) (B3G) (B1U) (AU)
                 (AG) (B2G) (AG) (B2U) (B1U) (B1U) (B3G)
 The electronic state of the initial guess is 1-AG.
 Leave Link  401 at Sat Feb 12 22:22:43 2022, MaxMem=  8589934592 cpu:               1.3 elap:               0.2
 (Enter /home/rr/g16/l502.exe)
 Keep R1 ints in memory in symmetry-blocked form, NReq=14327284.
 FoFCou: FMM=F IPFlag=           0 FMFlag=           0 FMFlg1=           0
         NFxFlg=           0 DoJE=F BraDBF=F KetDBF=F FulRan=T
         wScrn=  0.000000 ICntrl=       600 IOpCl=  0 I1Cent=           0 NGrid=           0
         NMat0=    1 NMatS0=   2628 NMatT0=    0 NMatD0=    1 NMtDS0=    0 NMtDT0=    0
 Petite list used in FoFCou.
 Closed shell SCF:
 Using DIIS extrapolation, IDIIS=  1040.
 NGot=  8589934592 LenX=  8589457632 LenY=  8589451415
 Requested convergence on RMS density matrix=1.00D-08 within 100 cycles.
 Requested convergence on MAX density matrix=1.00D-06.
 Requested convergence on             energy=1.00D-06.
 No special actions if energy rises.
 Integral accuracy reduced to 1.0D-05 until final iterations.

 Cycle   1  Pass 0  IDiag  1:
 E= -78.4906636036918    
 DIIS: error= 3.95D-02 at cycle   1 NSaved=   1.
 NSaved= 1 IEnMin= 1 EnMin= -78.4906636036918     IErMin= 1 ErrMin= 3.95D-02
 ErrMax= 3.95D-02  0.00D+00 EMaxC= 1.00D-01 BMatC= 3.57D-02 BMatP= 3.57D-02
 IDIUse=3 WtCom= 6.05D-01 WtEn= 3.95D-01
 Coeff-Com:  0.100D+01
 Coeff-En:   0.100D+01
 Coeff:      0.100D+01
 Gap=     0.426 Goal=   None    Shift=    0.000
 GapD=    0.426 DampG=2.000 DampE=0.500 DampFc=1.0000 IDamp=-1.
 RMSDP=5.44D-03 MaxDP=1.10D-01              OVMax= 5.21D-02

 Cycle   2  Pass 0  IDiag  1:
 E= -78.5017583067666     Delta-E=       -0.011094703075 Rises=F Damp=F
 DIIS: error= 7.67D-03 at cycle   2 NSaved=   2.
 NSaved= 2 IEnMin= 2 EnMin= -78.5017583067666     IErMin= 2 ErrMin= 7.67D-03
 ErrMax= 7.67D-03  0.00D+00 EMaxC= 1.00D-01 BMatC= 2.79D-03 BMatP= 3.57D-02
 IDIUse=3 WtCom= 9.23D-01 WtEn= 7.67D-02
 Coeff-Com:  0.119D+00 0.881D+00
 Coeff-En:   0.000D+00 0.100D+01
 Coeff:      0.110D+00 0.890D+00
 Gap=     0.437 Goal=   None    Shift=    0.000
 RMSDP=1.48D-03 MaxDP=2.35D-02 DE=-1.11D-02 OVMax= 2.28D-02

 Cycle   3  Pass 0  IDiag  1:
 E= -78.5039601632446     Delta-E=       -0.002201856478 Rises=F Damp=F
 DIIS: error= 3.61D-03 at cycle   3 NSaved=   3.
 NSaved= 3 IEnMin= 3 EnMin= -78.5039601632446     IErMin= 3 ErrMin= 3.61D-03
 ErrMax= 3.61D-03  0.00D+00 EMaxC= 1.00D-01 BMatC= 7.05D-04 BMatP= 2.79D-03
 IDIUse=3 WtCom= 9.64D-01 WtEn= 3.61D-02
 Coeff-Com: -0.324D-02 0.332D+00 0.671D+00
 Coeff-En:   0.000D+00 0.832D-01 0.917D+00
 Coeff:     -0.313D-02 0.323D+00 0.680D+00
 Gap=     0.432 Goal=   None    Shift=    0.000
 RMSDP=4.74D-04 MaxDP=6.82D-03 DE=-2.20D-03 OVMax= 8.27D-03

 Cycle   4  Pass 0  IDiag  1:
 E= -78.5047062341658     Delta-E=       -0.000746070921 Rises=F Damp=F
 DIIS: error= 1.62D-04 at cycle   4 NSaved=   4.
 NSaved= 4 IEnMin= 4 EnMin= -78.5047062341658     IErMin= 4 ErrMin= 1.62D-04
 ErrMax= 1.62D-04  0.00D+00 EMaxC= 1.00D-01 BMatC= 1.08D-06 BMatP= 7.05D-04
 IDIUse=3 WtCom= 9.98D-01 WtEn= 1.62D-03
 Coeff-Com: -0.385D-03-0.660D-01-0.101D+00 0.117D+01
 Coeff-En:   0.000D+00 0.000D+00 0.000D+00 0.100D+01
 Coeff:     -0.384D-03-0.659D-01-0.101D+00 0.117D+01
 Gap=     0.432 Goal=   None    Shift=    0.000
 RMSDP=7.10D-05 MaxDP=7.23D-04 DE=-7.46D-04 OVMax= 6.78D-04

 Cycle   5  Pass 0  IDiag  1:
 E= -78.5047085741017     Delta-E=       -0.000002339936 Rises=F Damp=F
 DIIS: error= 2.15D-05 at cycle   5 NSaved=   5.
 NSaved= 5 IEnMin= 5 EnMin= -78.5047085741017     IErMin= 5 ErrMin= 2.15D-05
 ErrMax= 2.15D-05  0.00D+00 EMaxC= 1.00D-01 BMatC= 1.73D-08 BMatP= 1.08D-06
 IDIUse=1 WtCom= 1.00D+00 WtEn= 0.00D+00
 Coeff-Com:  0.117D-03-0.132D-01-0.255D-01 0.759D-01 0.963D+00
 Coeff:      0.117D-03-0.132D-01-0.255D-01 0.759D-01 0.963D+00
 Gap=     0.432 Goal=   None    Shift=    0.000
 RMSDP=9.38D-06 MaxDP=7.97D-05 DE=-2.34D-06 OVMax= 8.88D-05

 Initial convergence to 1.0D-05 achieved.  Increase integral accuracy.
 Cycle   6  Pass 1  IDiag  1:
 E= -78.5047297021990     Delta-E=       -0.000021128097 Rises=F Damp=F
 DIIS: error= 2.80D-05 at cycle   1 NSaved=   1.
 NSaved= 1 IEnMin= 1 EnMin= -78.5047297021990     IErMin= 1 ErrMin= 2.80D-05
 ErrMax= 2.80D-05  0.00D+00 EMaxC= 1.00D-01 BMatC= 3.71D-08 BMatP= 3.71D-08
 IDIUse=1 WtCom= 1.00D+00 WtEn= 0.00D+00
 Coeff-Com:  0.100D+01
 Coeff:      0.100D+01
 Gap=     0.432 Goal=   None    Shift=    0.000
 RMSDP=9.38D-06 MaxDP=7.97D-05 DE=-2.11D-05 OVMax= 4.86D-05

 Cycle   7  Pass 1  IDiag  1:
 E= -78.5047297351148     Delta-E=       -0.000000032916 Rises=F Damp=F
 DIIS: error= 5.62D-06 at cycle   2 NSaved=   2.
 NSaved= 2 IEnMin= 2 EnMin= -78.5047297351148     IErMin= 2 ErrMin= 5.62D-06
 ErrMax= 5.62D-06  0.00D+00 EMaxC= 1.00D-01 BMatC= 5.52D-10 BMatP= 3.71D-08
 IDIUse=1 WtCom= 1.00D+00 WtEn= 0.00D+00
 Coeff-Com: -0.723D-01 0.107D+01
 Coeff:     -0.723D-01 0.107D+01
 Gap=     0.432 Goal=   None    Shift=    0.000
 RMSDP=1.30D-06 MaxDP=1.45D-05 DE=-3.29D-08 OVMax= 1.57D-05

 Cycle   8  Pass 1  IDiag  1:
 E= -78.5047297358500     Delta-E=       -0.000000000735 Rises=F Damp=F
 DIIS: error= 1.14D-06 at cycle   3 NSaved=   3.
 NSaved= 3 IEnMin= 3 EnMin= -78.5047297358500     IErMin= 3 ErrMin= 1.14D-06
 ErrMax= 1.14D-06  0.00D+00 EMaxC= 1.00D-01 BMatC= 3.09D-11 BMatP= 5.52D-10
 IDIUse=1 WtCom= 1.00D+00 WtEn= 0.00D+00
 Coeff-Com: -0.219D-01 0.153D+00 0.869D+00
 Coeff:     -0.219D-01 0.153D+00 0.869D+00
 Gap=     0.432 Goal=   None    Shift=    0.000
 RMSDP=1.61D-07 MaxDP=2.62D-06 DE=-7.35D-10 OVMax= 2.47D-06

 Cycle   9  Pass 1  IDiag  1:
 E= -78.5047297358852     Delta-E=       -0.000000000035 Rises=F Damp=F
 DIIS: error= 3.63D-07 at cycle   4 NSaved=   4.
 NSaved= 4 IEnMin= 4 EnMin= -78.5047297358852     IErMin= 4 ErrMin= 3.63D-07
 ErrMax= 3.63D-07  0.00D+00 EMaxC= 1.00D-01 BMatC= 2.82D-12 BMatP= 3.09D-11
 IDIUse=1 WtCom= 1.00D+00 WtEn= 0.00D+00
 Coeff-Com: -0.140D-02-0.802D-02 0.171D+00 0.838D+00
 Coeff:     -0.140D-02-0.802D-02 0.171D+00 0.838D+00
 Gap=     0.432 Goal=   None    Shift=    0.000
 RMSDP=5.35D-08 MaxDP=8.09D-07 DE=-3.53D-11 OVMax= 1.17D-06

 Cycle  10  Pass 1  IDiag  1:
 E= -78.5047297358896     Delta-E=       -0.000000000004 Rises=F Damp=F
 DIIS: error= 1.03D-07 at cycle   5 NSaved=   5.
 NSaved= 5 IEnMin= 5 EnMin= -78.5047297358896     IErMin= 5 ErrMin= 1.03D-07
 ErrMax= 1.03D-07  0.00D+00 EMaxC= 1.00D-01 BMatC= 2.92D-13 BMatP= 2.82D-12
 IDIUse=1 WtCom= 1.00D+00 WtEn= 0.00D+00
 Coeff-Com:  0.219D-02-0.198D-01-0.715D-01 0.168D+00 0.921D+00
 Coeff:      0.219D-02-0.198D-01-0.715D-01 0.168D+00 0.921D+00
 Gap=     0.432 Goal=   None    Shift=    0.000
 RMSDP=1.52D-08 MaxDP=1.78D-07 DE=-4.38D-12 OVMax= 3.29D-07

 Cycle  11  Pass 1  IDiag  1:
 E= -78.5047297358897     Delta-E=       -0.000000000000 Rises=F Damp=F
 DIIS: error= 8.07D-09 at cycle   6 NSaved=   6.
 NSaved= 6 IEnMin= 6 EnMin= -78.5047297358897     IErMin= 6 ErrMin= 8.07D-09
 ErrMax= 8.07D-09  0.00D+00 EMaxC= 1.00D-01 BMatC= 1.67D-15 BMatP= 2.92D-13
 IDIUse=1 WtCom= 1.00D+00 WtEn= 0.00D+00
 Coeff-Com: -0.329D-03 0.332D-02 0.121D-01-0.460D-01-0.167D+00 0.120D+01
 Coeff:     -0.329D-03 0.332D-02 0.121D-01-0.460D-01-0.167D+00 0.120D+01
 Gap=     0.432 Goal=   None    Shift=    0.000
 RMSDP=3.74D-09 MaxDP=3.31D-08 DE=-5.68D-14 OVMax= 4.14D-08

 SCF Done:  E(RwB97XD) =  -78.5047297359     A.U. after   11 cycles
            NFock= 11  Conv=0.37D-08     -V/T= 2.0136
 KE= 7.745326817554D+01 PE=-2.474195447835D+02 EE= 5.819910269125D+01
 Leave Link  502 at Sat Feb 12 22:22:43 2022, MaxMem=  8589934592 cpu:               4.5 elap:               0.6
 (Enter /home/rr/g16/l801.exe)
 DoSCS=F DFT=T ScalE2(SS,OS)=  1.000000  1.000000
 ExpMin= 6.71D-02 ExpMax= 1.24D+03 ExpMxC= 1.86D+02 IAcc=3 IRadAn=         5 AccDes= 0.00D+00
 HarFok:  IExCor=  205 AccDes= 0.00D+00 IRadAn=         5 IDoV=-2 UseB2=F ITyADJ=14
 ICtDFT= 12500011 ScaDFX=  1.000000  1.000000  1.000000  1.000000
 Largest valence mixing into a core orbital is  7.38D-05
 Largest core mixing into a valence orbital is  1.82D-05
 Range of M.O.s used for correlation:     3    72
 NBasis=    72 NAE=     8 NBE=     8 NFC=     2 NFV=     0
 NROrb=     70 NOA=     6 NOB=     6 NVA=    64 NVB=    64

 **** Warning!!: The largest alpha MO coefficient is  0.34472558D+02

 Leave Link  801 at Sat Feb 12 22:22:43 2022, MaxMem=  8589934592 cpu:               0.6 elap:               0.1
 (Enter /home/rr/g16/l914.exe)
 RHF ground state
 Keep R1, R2, and R3 ints in memory in symmetry-blocked form, NReq=209359776.
 FoFCou: FMM=F IPFlag=           0 FMFlag=           0 FMFlg1=           0
         NFxFlg=           0 DoJE=F BraDBF=F KetDBF=F FulRan=T
         wScrn=  0.000000 ICntrl=       600 IOpCl=  0 I1Cent=           0 NGrid=           0
         NMat0=    1 NMatS0=   2628 NMatT0=    0 NMatD0=    1 NMtDS0=    0 NMtDT0=    0
 Petite list used in FoFCou.
 MDV=  8589934592 DFT=T DoStab=F Mixed=T DoRPA=T DoScal=F NonHer=T
 Making orbital integer symmetry assigments:
 Orbital symmetries:
       Occupied  (AG) (B1U) (AG) (B1U) (B2U) (AG) (B3G) (B3U)
       Virtual   (B2G) (AG) (B1U) (B2U) (AG) (B3G) (AG) (B3U) (B1G)
                 (B1U) (B2U) (B1U) (B2G) (AU) (AG) (B2U) (B1U)
                 (B3G) (B3U) (AG) (B2U) (B3G) (AG) (B1G) (B1U)
                 (B2G) (B1U) (B1U) (AU) (B3G) (AG) (B3U) (B3G)
                 (B2G) (B2U) (AG) (B1U) (AG) (B2U) (B1U) (B1U)
                 (B3G) (B1G) (B3U) (AU) (B2U) (B2G) (AG) (B2U)
                 (B1U) (B3G) (AG) (B3U) (B1G) (B3G) (B1U) (AU)
                 (AG) (B2G) (AG) (B2U) (B1U) (B1U) (B3G)
   384 initial guesses have been made.
 Convergence on wavefunction:    0.001000000000000
 Davidson Disk Diagonalization:  ConvIn= 1.00D-03 SkipCon=T Conv= 1.00D-03.
 Max sub-space:  2304 roots to seek:   768 dimension of matrix:          768
 *** WARNING: Number of orthogonal guesses is          384
 Iteration     1 Dimension   384 NMult     0 NNew    384
 CISAX will form   384 AO SS matrices at one time.
 NMat=   384 NSing=   384 JSym2X=-1.
 New state      3 was old state      4
 New state      4 was old state      3
 New state      6 was old state     10
 New state      7 was old state      6
 New state      9 was old state      7
 New state     10 was old state      9
 New state     11 was old state     18
 New state     12 was old state     11
 New state     13 was old state     15
 New state     15 was old state     12
 New state     16 was old state     13
 New state     17 was old state     16
 New state     18 was old state     20
 New state     20 was old state     17
 New state     21 was old state     23
 New state     23 was old state     24
 New state     24 was old state     26
 New state     25 was old state     21
 New state     26 was old state     28
 New state     28 was old state     29
 New state     29 was old state     25
 New state     30 was old state     32
 New state     31 was old state     30
 New state     32 was old state     31
 New state     33 was old state     34
 New state     34 was old state     33
 New state     35 was old state     36
 New state     36 was old state     35
 New state     37 was old state     38
 New state     38 was old state     41
 New state     39 was old state     40
 New state     40 was old state     39
 New state     41 was old state     44
 New state     42 was old state     43
 New state     43 was old state     37
 New state     44 was old state     45
 New state     45 was old state     54
 New state     47 was old state     49
 New state     49 was old state     42
 New state     50 was old state     53
 New state     51 was old state     47
 New state     53 was old state     51
 New state     54 was old state     55
 New state     55 was old state     50
 New state     58 was old state     63
 New state     59 was old state     58
 New state     60 was old state     62
 New state     61 was old state     59
 New state     62 was old state     61
 New state     63 was old state     64
 New state     64 was old state     60
 New state     65 was old state     66
 New state     66 was old state     71
 New state     67 was old state     70
 New state     68 was old state     74
 New state     69 was old state     67
 New state     70 was old state     65
 New state     71 was old state     72
 New state     72 was old state     73
 New state     73 was old state     69
 New state     74 was old state     68
 New state     75 was old state     76
 New state     76 was old state     78
 New state     77 was old state     86
 New state     78 was old state     77
 New state     79 was old state     80
 New state     80 was old state     79
 New state     82 was old state     75
 New state     83 was old state     82
 New state     84 was old state     83
 New state     86 was old state     84
 New state     87 was old state     92
 New state     88 was old state     87
 New state     89 was old state     88
 New state     90 was old state     89
 New state     92 was old state     90
 New state     93 was old state     95
 New state     94 was old state     93
 New state     95 was old state     94
 New state     97 was old state     98
 New state     98 was old state    106
 New state     99 was old state     97
 New state    100 was old state     99
 New state    101 was old state    100
 New state    102 was old state    104
 New state    103 was old state    102
 New state    104 was old state    103
 New state    105 was old state    101
 New state    106 was old state    110
 New state    107 was old state    108
 New state    108 was old state    112
 New state    109 was old state    105
 New state    110 was old state    117
 New state    111 was old state    107
 New state    112 was old state    116
 New state    113 was old state    111
 New state    114 was old state    113
 New state    115 was old state    118
 New state    116 was old state    114
 New state    117 was old state    115
 New state    118 was old state    109
 New state    121 was old state    124
 New state    124 was old state    125
 New state    125 was old state    128
 New state    126 was old state    121
 New state    127 was old state    129
 New state    128 was old state    126
 New state    129 was old state    127
 New state    131 was old state    132
 New state    132 was old state    138
 New state    133 was old state    136
 New state    134 was old state    137
 New state    135 was old state    140
 New state    136 was old state    133
 New state    137 was old state    139
 New state    138 was old state    134
 New state    139 was old state    131
 New state    140 was old state    135
 New state    142 was old state    146
 New state    144 was old state    142
 New state    145 was old state    144
 New state    146 was old state    145
 New state    147 was old state    149
 New state    149 was old state    147
 New state    150 was old state    152
 New state    151 was old state    150
 New state    152 was old state    153
 New state    153 was old state    151
 New state    154 was old state    156
 New state    155 was old state    154
 New state    156 was old state    155
 New state    157 was old state    158
 New state    158 was old state    157
 New state    161 was old state    162
 New state    162 was old state    161
 New state    163 was old state    165
 New state    164 was old state    163
 New state    165 was old state    164
 New state    167 was old state    170
 New state    168 was old state    167
 New state    169 was old state    168
 New state    170 was old state    175
 New state    171 was old state    172
 New state    172 was old state    171
 New state    173 was old state    169
 New state    175 was old state    180
 New state    176 was old state    173
 New state    177 was old state    178
 New state    178 was old state    176
 New state    179 was old state    186
 New state    180 was old state    177
 New state    181 was old state    179
 New state    182 was old state    181
 New state    183 was old state    182
 New state    184 was old state    185
 New state    185 was old state    184
 New state    186 was old state    183
 New state    187 was old state    190
 New state    188 was old state    189
 New state    189 was old state    187
 New state    190 was old state    192
 New state    191 was old state    193
 New state    192 was old state    196
 New state    193 was old state    188
 New state    196 was old state    191
 New state    197 was old state    198
 New state    198 was old state    197
 New state    200 was old state    204
 New state    201 was old state    207
 New state    202 was old state    203
 New state    203 was old state    205
 New state    204 was old state    206
 New state    205 was old state    202
 New state    206 was old state    201
 New state    207 was old state    200
 New state    208 was old state    209
 New state    209 was old state    208
 New state    211 was old state    212
 New state    212 was old state    213
 New state    213 was old state    211
 New state    214 was old state    215
 New state    215 was old state    217
 New state    216 was old state    218
 New state    217 was old state    220
 New state    218 was old state    216
 New state    219 was old state    214
 New state    220 was old state    219
 New state    221 was old state    222
 New state    222 was old state    221
 New state    223 was old state    224
 New state    224 was old state    225
 New state    225 was old state    223
 New state    226 was old state    228
 New state    227 was old state    231
 New state    228 was old state    230
 New state    230 was old state    227
 New state    231 was old state    226
 New state    234 was old state    236
 New state    235 was old state    234
 New state    236 was old state    235
 New state    237 was old state    243
 New state    238 was old state    241
 New state    240 was old state    238
 New state    241 was old state    237
 New state    242 was old state    240
 New state    243 was old state    242
 New state    245 was old state    247
 New state    246 was old state    245
 New state    247 was old state    246
 New state    248 was old state    249
 New state    249 was old state    248
 New state    254 was old state    258
 New state    255 was old state    254
 New state    256 was old state    255
 New state    257 was old state    259
 New state    258 was old state    257
 New state    259 was old state    256
 New state    261 was old state    262
 New state    262 was old state    261
 New state    264 was old state    265
 New state    265 was old state    264
 New state    266 was old state    267
 New state    267 was old state    266
 New state    268 was old state    269
 New state    269 was old state    268
 New state    274 was old state    275
 New state    275 was old state    279
 New state    276 was old state    277
 New state    277 was old state    276
 New state    279 was old state    274
 New state    280 was old state    281
 New state    281 was old state    280
 New state    282 was old state    284
 New state    283 was old state    282
 New state    284 was old state    283
 New state    287 was old state    290
 New state    288 was old state    287
 New state    289 was old state    288
 New state    290 was old state    291
 New state    291 was old state    289
 New state    292 was old state    295
 New state    293 was old state    292
 New state    295 was old state    297
 New state    296 was old state    293
 New state    297 was old state    300
 New state    298 was old state    296
 New state    299 was old state    298
 New state    300 was old state    299
 New state    301 was old state    304
 New state    302 was old state    301
 New state    303 was old state    305
 New state    304 was old state    303
 New state    305 was old state    302
 New state    307 was old state    311
 New state    308 was old state    313
 New state    309 was old state    307
 New state    311 was old state    308
 New state    313 was old state    309
 New state    320 was old state    324
 New state    321 was old state    320
 New state    322 was old state    321
 New state    323 was old state    322
 New state    324 was old state    323
 New state    326 was old state    327
 New state    327 was old state    326
 New state    329 was old state    330
 New state    330 was old state    329
 New state    332 was old state    334
 New state    333 was old state    332
 New state    334 was old state    335
 New state    335 was old state    333
 New state    340 was old state    341
 New state    341 was old state    340
 New state    342 was old state    343
 New state    343 was old state    344
 New state    344 was old state    342
 New state    351 was old state    352
 New state    352 was old state    351
 New state    353 was old state    354
 New state    354 was old state    353
 New state    356 was old state    357
 New state    357 was old state    356
 New state    361 was old state    363
 New state    362 was old state    361
 New state    363 was old state    362
 New state    365 was old state    366
 New state    366 was old state    365
 Excitation Energies [eV] at current iteration:
 Root      1 :     7.828289705029326
 Root      2 :     7.868101230514797
 Root      3 :     8.133179748661085
 Root      4 :     8.727419766067118
 Root      5 :     9.313196418786626
 Root      6 :     9.673488872568308
 Root      7 :    10.041182117612360
 Root      8 :    10.384919762909270
 Root      9 :    10.804778206121210
 Root     10 :    11.159287280538620
 Root     11 :    11.312354226265910
 Root     12 :    11.346857144133080
 Root     13 :    11.698138147409210
 Root     14 :    11.729517548369200
 Root     15 :    11.755647906154060
 Root     16 :    12.175154822043380
 Root     17 :    12.257305556351890
 Root     18 :    12.424280697945800
 Root     19 :    12.595680231698190
 Root     20 :    12.685352735121690
 Root     21 :    13.258014132419960
 Root     22 :    13.404818635516140
 Root     23 :    13.452088805196990
 Root     24 :    13.662167250682930
 Root     25 :    13.761698120845890
 Root     26 :    13.812074146439900
 Root     27 :    14.017319093553400
 Root     28 :    14.257731072871490
 Root     29 :    14.314562915027110
 Root     30 :    14.336621843970140
 Root     31 :    14.436724249315870
 Root     32 :    14.763497427726890
 Root     33 :    14.985317539328170
 Root     34 :    15.055293815783620
 Root     35 :    15.062923534439430
 Root     36 :    15.120803327862590
 Root     37 :    15.413588266362040
 Root     38 :    15.487895602990910
 Root     39 :    15.685861610242280
 Root     40 :    15.884472066569340
 Root     41 :    15.910418335862130
 Root     42 :    15.947196689218920
 Root     43 :    16.002500644306690
 Root     44 :    16.159330293177590
 Root     45 :    16.283918470909800
 Root     46 :    16.307282589121810
 Root     47 :    16.373827499822230
 Root     48 :    16.441538397371550
 Root     49 :    16.628853516257010
 Root     50 :    16.823863210149720
 Root     51 :    16.980679173336220
 Root     52 :    16.984760996515910
 Root     53 :    17.077298255834420
 Root     54 :    17.281894519567280
 Root     55 :    17.354951823476970
 Root     56 :    17.379413724539220
 Root     57 :    17.601006938480990
 Root     58 :    17.627263694390870
 Root     59 :    17.784663453153530
 Root     60 :    17.883041919601070
 Root     61 :    17.985117510143660
 Root     62 :    17.992806729694320
 Root     63 :    18.232283612637540
 Root     64 :    18.297610043122380
 Root     65 :    18.385299139605540
 Root     66 :    18.513862513107840
 Root     67 :    18.578629445134870
 Root     68 :    18.650468724814160
 Root     69 :    18.710330815056000
 Root     70 :    18.738451817228180
 Root     71 :    18.885369098927620
 Root     72 :    18.910112416222660
 Root     73 :    18.924803801364540
 Root     74 :    19.208593537771770
 Root     75 :    19.376139685466570
 Root     76 :    19.488239303887460
 Root     77 :    19.565796550151990
 Root     78 :    19.645737226690630
 Root     79 :    19.654645010766190
 Root     80 :    19.714523220339360
 Root     81 :    19.838938944888210
 Root     82 :    19.850804825731520
 Root     83 :    20.067764172110970
 Root     84 :    20.195987112474320
 Root     85 :    20.302537852611910
 Root     86 :    20.342884518036120
 Root     87 :    20.404399200501460
 Root     88 :    20.650826044914200
 Root     89 :    20.781314045434590
 Root     90 :    20.791487707896370
 Root     91 :    20.839779209248830
 Root     92 :    20.946706451133320
 Root     93 :    21.000874735579210
 Root     94 :    21.028186906861250
 Root     95 :    21.202267350061710
 Root     96 :    21.213470329226410
 Root     97 :    21.444584009482190
 Root     98 :    21.488318083109160
 Root     99 :    21.577658328848990
 Root    100 :    21.603483572599420
 Root    101 :    21.931200269014110
 Root    102 :    22.028772810174240
 Root    103 :    22.130733579641510
 Root    104 :    22.202979831884500
 Root    105 :    22.234333161169970
 Root    106 :    22.548413739409610
 Root    107 :    22.568059581092880
 Root    108 :    22.578525532579690
 Root    109 :    22.580968831577540
 Root    110 :    22.593945309026370
 Root    111 :    22.641974696052540
 Root    112 :    22.703562009694440
 Root    113 :    22.781594465370050
 Root    114 :    22.821218587318390
 Root    115 :    23.113895014511670
 Root    116 :    23.117400150922750
 Root    117 :    23.183203806100690
 Root    118 :    23.215515072936370
 Root    119 :    23.538089714483920
 Root    120 :    23.649062471245190
 Root    121 :    23.721347603920150
 Root    122 :    23.833682745687770
 Root    123 :    24.031770192012050
 Root    124 :    24.103928032222580
 Root    125 :    24.322382024377760
 Root    126 :    24.326806280411640
 Root    127 :    24.481563894268240
 Root    128 :    24.541525963542570
 Root    129 :    24.760319820064170
 Root    130 :    24.932526286692170
 Root    131 :    24.946285578599250
 Root    132 :    25.028682416386000
 Root    133 :    25.137007678073600
 Root    134 :    25.182430880114640
 Root    135 :    25.211208455759810
 Root    136 :    25.214178801324580
 Root    137 :    25.214949889828810
 Root    138 :    25.249035073225150
 Root    139 :    25.365616474367490
 Root    140 :    25.420286825452390
 Root    141 :    25.656050666971760
 Root    142 :    26.009854927523360
 Root    143 :    26.012676502696160
 Root    144 :    26.081289287095410
 Root    145 :    26.131016044582150
 Root    146 :    26.446663258163970
 Root    147 :    26.652113334087530
 Root    148 :    27.130022067583480
 Root    149 :    27.144195282403170
 Root    150 :    27.196475516511480
 Root    151 :    27.297642316204860
 Root    152 :    27.375183448839480
 Root    153 :    27.452210912434650
 Root    154 :    27.540826950070650
 Root    155 :    27.660741207752140
 Root    156 :    27.662052641727940
 Root    157 :    27.868976999146740
 Root    158 :    27.991590576686550
 Root    159 :    28.057127180898830
 Root    160 :    28.099686914830940
 Root    161 :    28.386358812897480
 Root    162 :    28.396288235073530
 Root    163 :    28.511430759706090
 Root    164 :    28.973827327726580
 Root    165 :    29.225426955096700
 Root    166 :    29.240610456633220
 Root    167 :    29.871476554444450
 Root    168 :    29.997806951183390
 Root    169 :    30.142209220971580
 Root    170 :    30.190312265882750
 Root    171 :    30.287346792500790
 Root    172 :    30.451426657356750
 Root    173 :    30.551841839892280
 Root    174 :    30.639292638605780
 Root    175 :    30.980714954047640
 Root    176 :    31.017284873679570
 Root    177 :    31.105178933007790
 Root    178 :    31.160823848506550
 Root    179 :    31.486142737769220
 Root    180 :    31.615958473270360
 Root    181 :    31.918025396512260
 Root    182 :    32.218070661073290
 Root    183 :    32.273766627609100
 Root    184 :    32.384908277406100
 Root    185 :    32.385767817517240
 Root    186 :    32.537108792275180
 Root    187 :    32.629294394568000
 Root    188 :    32.858115311000990
 Root    189 :    33.186829072559480
 Root    190 :    33.533611797917910
 Root    191 :    33.603130963996410
 Root    192 :    33.810564024110260
 Root    193 :    33.857808763275420
 Root    194 :    34.255690563416460
 Root    195 :    34.528494011550040
 Root    196 :    34.663864998998830
 Root    197 :    35.029481323397750
 Root    198 :    35.036389172582910
 Root    199 :    35.168848077553850
 Root    200 :    35.621361743427200
 Root    201 :    35.769915663246030
 Root    202 :    35.906658641553240
 Root    203 :    35.951876721877300
 Root    204 :    36.084950154099910
 Root    205 :    36.184821409770240
 Root    206 :    36.293220756198780
 Root    207 :    36.503574264437850
 Root    208 :    36.940225467086140
 Root    209 :    37.238019207284670
 Root    210 :    37.518496650306350
 Root    211 :    38.071460758744770
 Root    212 :    38.234864058708370
 Root    213 :    38.472262487348000
 Root    214 :    38.553633078378960
 Root    215 :    38.584881175426000
 Root    216 :    39.048517991573150
 Root    217 :    39.122271493189550
 Root    218 :    39.174941416581890
 Root    219 :    39.301241046538530
 Root    220 :    39.476348140901440
 Root    221 :    39.734282828047300
 Root    222 :    39.861624895560420
 Root    223 :    40.501026206696060
 Root    224 :    40.613098595200830
 Root    225 :    40.621631464693740
 Root    226 :    41.411964417998160
 Root    227 :    41.449188598959400
 Root    228 :    41.479608104959920
 Root    229 :    41.924063263047740
 Root    230 :    42.213036739394670
 Root    231 :    42.242725436064570
 Root    232 :    42.777931493623990
 Root    233 :    43.482754477477240
 Root    234 :    43.542055029288750
 Root    235 :    43.891305122625690
 Root    236 :    44.224824300725440
 Root    237 :    44.550596233359160
 Root    238 :    44.663490512044860
 Root    239 :    44.759404655220140
 Root    240 :    44.823538421013350
 Root    241 :    44.880161470699750
 Root    242 :    45.176691864875860
 Root    243 :    45.318066466766630
 Root    244 :    45.736098737179890
 Root    245 :    46.550059790260860
 Root    246 :    46.772937867208410
 Root    247 :    46.921661676936820
 Root    248 :    47.251358259079560
 Root    249 :    47.332837892543320
 Root    250 :    47.923571180108500
 Root    251 :    48.069804790696520
 Root    252 :    48.556977466346890
 Root    253 :    49.251676052912520
 Root    254 :    49.610426301484180
 Root    255 :    49.679034674105000
 Root    256 :    49.839403419941750
 Root    257 :    50.286066322729550
 Root    258 :    50.473987920957480
 Root    259 :    50.582218609243820
 Root    260 :    51.942481652971500
 Root    261 :    52.441659192580760
 Root    262 :    52.740880770096870
 Root    263 :    53.015905100263430
 Root    264 :    53.093419698118600
 Root    265 :    53.539564424498830
 Root    266 :    53.688650656861060
 Root    267 :    53.747564172521500
 Root    268 :    54.903030063563100
 Root    269 :    54.951520787494620
 Root    270 :    55.560128804710960
 Root    271 :    55.966820772876200
 Root    272 :    56.283336025613930
 Root    273 :    57.274559099910410
 Root    274 :    57.425860877171810
 Root    275 :    57.691441794010830
 Root    276 :    57.711631903911770
 Root    277 :    57.746698539444030
 Root    278 :    57.749545068077180
 Root    279 :    58.122552569480840
 Root    280 :    58.124078768656510
 Root    281 :    58.178857441555290
 Root    282 :    58.181815628785390
 Root    283 :    58.641616194365300
 Root    284 :    58.919111578215970
 Root    285 :    58.985050597216360
 Root    286 :    59.349719979031800
 Root    287 :    59.936134609458240
 Root    288 :    60.056201938993250
 Root    289 :    60.553774010195300
 Root    290 :    60.619241950880080
 Root    291 :    60.722883977028890
 Root    292 :    61.321504095023600
 Root    293 :    61.328629175913090
 Root    294 :    61.826372089705550
 Root    295 :    61.862463805401930
 Root    296 :    61.971576866437350
 Root    297 :    62.605329895116260
 Root    298 :    62.637619756435810
 Root    299 :    62.762683619014480
 Root    300 :    63.035402329224060
 Root    301 :    63.128132757245060
 Root    302 :    63.565140689439270
 Root    303 :    63.644244054579870
 Root    304 :    63.665544739572320
 Root    305 :    63.673420069007480
 Root    306 :    65.281543220365620
 Root    307 :    66.035500478159790
 Root    308 :    66.226623788291930
 Root    309 :    66.258260069984870
 Root    310 :    66.283651519860310
 Root    311 :    66.289204611207590
 Root    312 :    66.751766196475960
 Root    313 :    67.202013917154370
 Root    314 :    67.339457172143230
 Root    315 :    67.417354942382230
 Root    316 :    68.195513381185390
 Root    317 :    68.762414468113600
 Root    318 :    69.426190297404290
 Root    319 :    69.900130838423520
 Root    320 :    71.098695123095280
 Root    321 :    71.290377930101400
 Root    322 :    71.350174946987590
 Root    323 :    71.367977458755950
 Root    324 :    71.531670031046960
 Root    325 :    71.585568345956260
 Root    326 :    71.659279622958950
 Root    327 :    71.885047714194120
 Root    328 :    72.468976100937840
 Root    329 :    72.511984733935900
 Root    330 :    72.952578748801590
 Root    331 :    73.386807272158110
 Root    332 :    74.036166505529180
 Root    333 :    74.156112356764600
 Root    334 :    74.405643234918270
 Root    335 :    74.697645515714740
 Root    336 :    75.283961424130840
 Root    337 :    75.557897287514180
 Root    338 :    76.358256675815370
 Root    339 :    76.791259317737800
 Root    340 :    77.089627810716220
 Root    341 :    77.357566129827750
 Root    342 :    77.712713338842330
 Root    343 :    78.034396890066080
 Root    344 :    78.165072171054290
 Root    345 :    78.455372261471710
 Root    346 :    79.465461603185190
 Root    347 :    80.198545929624170
 Root    348 :    80.954833612163880
 Root    349 :    81.167509518154380
 Root    350 :    82.141911003830420
 Root    351 :    82.755027533571480
 Root    352 :    82.832198795766960
 Root    353 :    83.297247296297300
 Root    354 :    83.371246482775890
 Root    355 :    84.840659598929050
 Root    356 :    84.933124437361580
 Root    357 :    85.305340061633060
 Root    358 :    85.875918210380450
 Root    359 :    85.980395892272710
 Root    360 :    86.590943000305880
 Root    361 :    87.322524702364090
 Root    362 :    87.391878392876760
 Root    363 :    87.683323742413460
 Root    364 :    89.123084309507520
 Root    365 :    89.265527075585010
 Root    366 :    90.248094864905410
 Root    367 :    90.590195646925450
 Root    368 :    91.829920674118920
 Root    369 :    91.870266292435830
 Root    370 :    93.818470719590050
 Root    371 :    94.405897580031860
 Root    372 :    94.638381125513700
 Root    373 :    96.144842918671330
 Root    374 :    96.907557060114440
 Root    375 :    97.561631426218090
 Root    376 :    98.234355598244260
 Root    377 :    98.692330964741300
 Root    378 :   100.601716052579600
 Root    379 :   101.023222263866100
 Root    380 :   102.468120297967100
 Root    381 :   104.023742658267600
 Root    382 :   105.274830776592900
 Root    383 :   106.957656398688900
 Root    384 :   111.663684404972800
 Convergence achieved for final wavefunctions.
 ***********************************************************************
 Excited states from <AA,BB:AA,BB> singles matrix:
 ***********************************************************************
 
 1PDM for each excited state written to RWF  633
 Ground to excited state transition densities written to RWF  633
 Ground to excited state transition electric dipole moments (Au):
       state          X           Y           Z        Dip. S.      Osc.
         1         0.0000     -0.0000     -1.4010      1.9629      0.3765
         2        -0.6700      0.0000     -0.0000      0.4489      0.0865
         3        -0.0000     -0.0000      0.0000      0.0000      0.0000
         4         0.0000     -0.0000      0.0000      0.0000      0.0000
         5         0.0000     -0.0000      0.0000      0.0000      0.0000
         6        -0.0000     -0.0000      0.0000      0.0000      0.0000
         7         0.0000      0.0000     -0.0000      0.0000      0.0000
         8         0.6585      0.0000     -0.0000      0.4336      0.1103
         9         0.0000     -0.7739      0.0000      0.5990      0.1586
        10         0.0000      0.0000      0.0000      0.0000      0.0000
        11        -0.0000     -0.0000     -0.0000      0.0000      0.0000
        12         0.6878      0.0000     -0.0000      0.4731      0.1315
        13         0.0000     -0.6387      0.0000      0.4079      0.1169
        14        -0.0000      0.0000      0.0000      0.0000      0.0000
        15        -0.0000     -0.0000     -0.9194      0.8454      0.2435
        16         0.0000     -0.0000     -0.0000      0.0000      0.0000
        17         0.0000      0.0000      0.0000      0.0000      0.0000
        18        -0.0000     -0.0000      0.0000      0.0000      0.0000
        19         0.0000      0.0000      0.0000      0.0000      0.0000
        20        -0.0000     -0.0000     -0.9159      0.8390      0.2607
        21        -0.0000      0.0000     -0.0000      0.0000      0.0000
        22         0.0000     -0.9002      0.0000      0.8103      0.2661
        23        -0.0000     -0.4305      0.0000      0.1854      0.0611
        24         0.0000     -0.0000      0.0000      0.0000      0.0000
        25         0.0000     -0.0000      0.0000      0.0000      0.0000
        26         0.0000      0.0000     -0.0000      0.0000      0.0000
        27        -0.0000      0.0000      0.0000      0.0000      0.0000
        28        -0.0000      0.0000      0.3924      0.1540      0.0538
        29         0.0000     -0.0000      0.0000      0.0000      0.0000
        30         0.0000      0.0000      0.0000      0.0000      0.0000
        31         0.0000     -0.0000      0.0000      0.0000      0.0000
        32         0.0000      1.3066     -0.0000      1.7072      0.6175
        33        -0.0000      0.0000     -0.0000      0.0000      0.0000
        34         0.0000     -0.0000     -1.0127      1.0255      0.3783
        35        -0.5437      0.0000     -0.0000      0.2957      0.1091
        36         0.0000     -0.0000      0.0000      0.0000      0.0000
        37         0.4662      0.0000      0.0000      0.2174      0.0821
        38        -0.0000     -0.0000      0.0000      0.0000      0.0000
        39         0.6912     -0.0000     -0.0000      0.4777      0.1836
        40        -0.0000     -0.2903      0.0000      0.0843      0.0328
        41        -0.0000     -0.0000      0.0000      0.0000      0.0000
        42        -0.0000     -0.4081      0.0000      0.1665      0.0651
        43         0.0000     -0.0000      0.0000      0.0000      0.0000
        44         0.0000      0.0000      0.0000      0.0000      0.0000
        45         0.0000     -0.0000      0.0000      0.0000      0.0000
        46        -0.0000     -0.0000     -0.1671      0.0279      0.0112
        47         0.0000     -0.0000     -0.0000      0.0000      0.0000
        48        -0.9777      0.0000      0.0000      0.9559      0.3850
        49         0.0000      0.0000      0.0511      0.0026      0.0011
        50         0.0000     -0.3799     -0.0000      0.1443      0.0595
        51        -0.0000     -0.0000      0.2179      0.0475      0.0198
        52        -0.0000     -0.6601     -0.0000      0.4358      0.1813
        53         0.0000     -0.0000     -0.0000      0.0000      0.0000
        54        -0.0000     -0.0000     -0.0000      0.0000      0.0000
        55        -0.0000      0.0000      0.0000      0.0000      0.0000
        56        -0.3499      0.0000     -0.0000      0.1224      0.0521
        57        -0.0000      0.0000      0.0000      0.0000      0.0000
        58         0.0000     -0.0000     -0.0000      0.0000      0.0000
        59        -0.0000      0.0000      0.0000      0.0000      0.0000
        60         0.0000      0.0000      0.0000      0.0000      0.0000
        61         0.0000      0.0000      0.0000      0.0000      0.0000
        62         0.0000      0.0000      0.8808      0.7759      0.3420
        63         0.0000     -0.0000      0.0000      0.0000      0.0000
        64        -0.7733     -0.0000      0.0000      0.5980      0.2681
        65         0.0000      0.0000      0.0000      0.0000      0.0000
        66         0.0000     -0.0000     -0.0000      0.0000      0.0000
        67        -0.0000      0.0000      0.0000      0.0000      0.0000
        68         0.0000      0.0000     -0.0000      0.0000      0.0000
        69         0.0000      0.2943      0.0000      0.0866      0.0397
        70         0.0000      0.0000     -0.8378      0.7018      0.3222
        71         0.3982     -0.0000      0.0000      0.1585      0.0734
        72         0.0000      0.5622      0.0000      0.3160      0.1464
        73         0.0000      0.0000     -0.2053      0.0421      0.0195
        74         0.0000     -0.0000     -0.0000      0.0000      0.0000
        75         0.0000      0.0000      0.0000      0.0000      0.0000
        76         0.0000      0.0000      0.0000      0.0000      0.0000
        77         0.0000      0.0000     -0.0000      0.0000      0.0000
        78        -0.0000     -0.0000     -0.0000      0.0000      0.0000
        79         0.0000     -0.0000     -0.0634      0.0040      0.0019
        80        -0.0000      0.0000     -0.0000      0.0000      0.0000
        81         0.0000     -0.0000     -0.3165      0.1002      0.0487
        82        -0.0000      0.1469     -0.0000      0.0216      0.0105
        83        -0.0000     -0.0000      0.0000      0.0000      0.0000
        84        -0.0000     -0.0000      0.0000      0.0000      0.0000
        85        -0.0000      0.0000     -0.0000      0.0000      0.0000
        86         0.0000     -0.1715      0.0000      0.0294      0.0147
        87        -0.6126     -0.0000     -0.0000      0.3753      0.1876
        88         0.0000      0.0000      0.4437      0.1969      0.0996
        89         0.0000     -0.0000      0.0000      0.0000      0.0000
        90        -0.0000     -0.0000     -0.0000      0.0000      0.0000
        91        -0.0000      0.0000     -0.0000      0.0000      0.0000
        92         0.0000     -0.0000      0.3907      0.1527      0.0784
        93        -0.0000     -0.0000      0.0000      0.0000      0.0000
        94        -0.0000      0.5197      0.0000      0.2700      0.1391
        95         0.0000     -0.0000     -0.0000      0.0000      0.0000
        96        -0.0000     -0.0000     -0.0000      0.0000      0.0000
        97        -0.0000      0.0000      0.0000      0.0000      0.0000
        98         0.0000      0.0000     -0.0000      0.0000      0.0000
        99         0.0000      0.7361      0.0000      0.5419      0.2865
       100        -0.0000      0.0000     -0.0000      0.0000      0.0000
       101         0.0000     -0.0000     -0.0000      0.0000      0.0000
       102         0.0000      0.0000      0.0000      0.0000      0.0000
       103        -0.0000     -0.0000      0.0000      0.0000      0.0000
       104        -0.0000     -0.0000      0.0000      0.0000      0.0000
       105        -0.0000     -0.0000     -0.0943      0.0089      0.0048
       106         0.0000      0.1136     -0.0000      0.0129      0.0071
       107        -0.0300      0.0000     -0.0000      0.0009      0.0005
       108         0.0000     -0.0000     -0.0000      0.0000      0.0000
       109         0.0000      0.0000     -0.2943      0.0866      0.0479
       110        -0.0000     -0.0000     -0.0000      0.0000      0.0000
       111         0.0000      0.0000     -0.0000      0.0000      0.0000
       112         0.0000      0.0000     -0.0000      0.0000      0.0000
       113         0.0000     -0.0000     -0.0000      0.0000      0.0000
       114         0.0000     -0.6659     -0.0000      0.4435      0.2480
       115         0.0000      0.0000     -0.5238      0.2743      0.1553
       116        -0.0000      0.0000      0.0000      0.0000      0.0000
       117        -0.0000      0.2720      0.0000      0.0740      0.0420
       118        -0.0000      0.0000      0.0000      0.0000      0.0000
       119         0.0000      0.0818      0.0000      0.0067      0.0039
       120        -0.0000     -0.0000      0.0000      0.0000      0.0000
       121        -0.0000     -0.0000     -0.0000      0.0000      0.0000
       122         0.0000      0.0000      0.0000      0.0000      0.0000
       123         0.0000      0.0000     -0.0000      0.0000      0.0000
       124        -0.0000     -0.0000     -0.1685      0.0284      0.0168
       125         0.4146      0.0000     -0.0000      0.1719      0.1024
       126         0.0000      0.0000      0.4084      0.1668      0.0994
       127        -0.0000      0.0000     -0.0000      0.0000      0.0000
       128         0.0000     -0.6382      0.0000      0.4073      0.2449
       129         0.0000      0.0000     -0.0000      0.0000      0.0000
       130        -0.0000      0.0000     -0.0000      0.0000      0.0000
       131        -0.0000      0.0000      0.0000      0.0000      0.0000
       132        -0.0000      0.0000     -0.0000      0.0000      0.0000
       133        -0.2205     -0.0000     -0.0000      0.0486      0.0299
       134         0.0000     -0.0000     -0.0000      0.0000      0.0000
       135         0.0000     -0.0000     -0.0000      0.0000      0.0000
       136        -0.0000     -0.0000      0.0000      0.0000      0.0000
       137         0.1894      0.0000     -0.0000      0.0359      0.0222
       138         0.0000     -0.3586      0.0000      0.1286      0.0796
       139        -0.0000     -0.0000     -0.4015      0.1612      0.1002
       140        -0.0000     -0.0331      0.0000      0.0011      0.0007
       141         0.0000     -0.0000      0.2150      0.0462      0.0291
       142        -0.7192      0.0000      0.0000      0.5172      0.3296
       143        -0.0000     -0.0000      0.0000      0.0000      0.0000
       144         0.0000      0.0000     -0.0000      0.0000      0.0000
       145         0.0000      0.2195      0.0000      0.0482      0.0308
       146        -0.0000      0.0000     -0.3655      0.1336      0.0866
       147        -0.0000     -0.0000     -0.0000      0.0000      0.0000
       148        -0.0000     -0.0000      0.0000      0.0000      0.0000
       149        -0.0000     -0.0000      0.3081      0.0949      0.0631
       150        -0.0000     -0.0000      0.0000      0.0000      0.0000
       151        -0.0000     -0.1750     -0.0000      0.0306      0.0205
       152         0.0000     -0.0000     -0.0000      0.0000      0.0000
       153         0.0000      0.0000      0.2797      0.0782      0.0526
       154        -0.0000      0.0000     -0.0000      0.0000      0.0000
       155         0.0000      0.0000     -0.0000      0.0000      0.0000
       156        -0.0000     -0.0000     -0.4395      0.1932      0.1309
       157         0.0000     -0.0000     -0.0000      0.0000      0.0000
       158         0.0000      0.0000     -0.0000      0.0000      0.0000
       159        -0.0065     -0.0000      0.0000      0.0000      0.0000
       160         0.0000      0.0000     -0.0000      0.0000      0.0000
       161        -0.0000      0.0000      0.0000      0.0000      0.0000
       162        -0.0000     -0.0000      0.0000      0.0000      0.0000
       163        -0.0000     -0.0000     -0.0000      0.0000      0.0000
       164         0.0000     -0.0000      0.0000      0.0000      0.0000
       165         0.0000     -0.0000     -0.0000      0.0000      0.0000
       166         0.0000     -0.0000      0.1124      0.0126      0.0091
       167         0.0100      0.0000     -0.0000      0.0001      0.0001
       168        -0.0000      0.0063     -0.0000      0.0000      0.0000
       169         0.0000     -0.0000     -0.0266      0.0007      0.0005
       170        -0.1425      0.0000     -0.0000      0.0203      0.0150
       171        -0.0000      0.0000     -0.0000      0.0000      0.0000
       172         0.0000     -0.0000      0.0000      0.0000      0.0000
       173         0.0000     -0.0000      0.0000      0.0000      0.0000
       174        -0.0000     -0.0000      0.0335      0.0011      0.0008
       175         0.0000     -0.0000     -0.0000      0.0000      0.0000
       176         0.0000     -0.0000     -0.0000      0.0000      0.0000
       177         0.0000      0.0744     -0.0000      0.0055      0.0042
       178         0.0000      0.0000     -0.0000      0.0000      0.0000
       179         0.0000     -0.0000     -0.0000      0.0000      0.0000
       180         0.0000     -0.0000     -0.0000      0.0000      0.0000
       181         0.0000      0.0049     -0.0000      0.0000      0.0000
       182         0.0000     -0.0000      0.0000      0.0000      0.0000
       183        -0.0000     -0.2010      0.0000      0.0404      0.0319
       184        -0.0000      0.0000      0.1005      0.0101      0.0080
       185         0.0000     -0.0000      0.0000      0.0000      0.0000
       186         0.0000     -0.0000     -0.0000      0.0000      0.0000
       187        -0.2635     -0.0000     -0.0000      0.0694      0.0555
       188         0.0000     -0.0000     -0.0000      0.0000      0.0000
       189        -0.0000     -0.0000     -0.0000      0.0000      0.0000
       190         0.0000      0.0000     -0.1319      0.0174      0.0143
       191         0.0000      0.0000      0.0000      0.0000      0.0000
       192        -0.0000     -0.0000     -0.0000      0.0000      0.0000
       193         0.0000     -0.0000     -0.0000      0.0000      0.0000
       194         0.0000     -0.0000      0.3494      0.1221      0.1025
       195         0.0000     -0.0000      0.0000      0.0000      0.0000
       196        -0.0000     -0.0000      0.0096      0.0001      0.0001
       197        -0.0000      0.0000     -0.0000      0.0000      0.0000
       198        -0.0000     -0.0000     -0.0000      0.0000      0.0000
       199        -0.0000      0.1244      0.0000      0.0155      0.0133
       200        -0.0000      0.0000     -0.0000      0.0000      0.0000
       201        -0.0000     -0.0000     -0.0000      0.0000      0.0000
       202         0.0000     -0.1966     -0.0000      0.0386      0.0340
       203        -0.0906     -0.0000     -0.0000      0.0082      0.0072
       204        -0.0000      0.0000     -0.0000      0.0000      0.0000
       205        -0.0000     -0.0000      0.2821      0.0796      0.0705
       206         0.0000     -0.0000      0.0000      0.0000      0.0000
       207         0.0000     -0.0000      0.0851      0.0072      0.0065
       208        -0.0000      0.0000      0.0000      0.0000      0.0000
       209         0.0000     -0.0000     -0.0000      0.0000      0.0000
       210         0.0000     -0.0000      0.0000      0.0000      0.0000
       211        -0.0000     -0.2902      0.0000      0.0842      0.0786
       212        -0.0000      0.0000      0.0000      0.0000      0.0000
       213        -0.0000     -0.0000     -0.1838      0.0338      0.0318
       214         0.0000     -0.0022      0.0000      0.0000      0.0000
       215        -0.3736     -0.0000      0.0000      0.1396      0.1320
       216         0.0000      0.0000      0.0000      0.0000      0.0000
       217        -0.0000     -0.0000     -0.0000      0.0000      0.0000
       218        -0.0000      0.2495      0.0000      0.0623      0.0598
       219         0.0000      0.0000     -0.0982      0.0096      0.0093
       220        -0.0000      0.0000     -0.0000      0.0000      0.0000
       221        -0.1125     -0.0000     -0.0000      0.0127      0.0123
       222         0.0000     -0.0000      0.0000      0.0000      0.0000
       223         0.0000     -0.0821     -0.0000      0.0067      0.0067
       224         0.0000     -0.0000     -0.1875      0.0352      0.0350
       225         0.0000     -0.0000     -0.0000      0.0000      0.0000
       226         0.0000      0.2089     -0.0000      0.0437      0.0443
       227        -0.0000      0.0000     -0.0000      0.0000      0.0000
       228        -0.0000     -0.0000     -0.0000      0.0000      0.0000
       229         0.0000      0.0000     -0.0000      0.0000      0.0000
       230        -0.0000      0.0295      0.0000      0.0009      0.0009
       231        -0.0000     -0.0000      0.1633      0.0267      0.0276
       232         0.0000      0.0000      0.0000      0.0000      0.0000
       233         0.0000     -0.0000     -0.0750      0.0056      0.0060
       234        -0.0000      0.0000     -0.0000      0.0000      0.0000
       235         0.0000      0.0000      0.0000      0.0000      0.0000
       236         0.0000      0.0000      0.0000      0.0000      0.0000
       237        -0.0000      0.5019      0.0000      0.2519      0.2749
       238         0.0000      0.0000     -0.0000      0.0000      0.0000
       239        -0.0000     -0.0000     -0.0000      0.0000      0.0000
       240        -0.0000     -0.2531     -0.0000      0.0641      0.0703
       241         0.0000      0.0000     -0.2711      0.0735      0.0808
       242         0.0000      0.0000     -0.0000      0.0000      0.0000
       243        -0.0000      0.0000     -0.0000      0.0000      0.0000
       244         0.0000      0.0000     -0.0000      0.0000      0.0000
       245         0.0000      0.0000     -0.0000      0.0000      0.0000
       246         0.0000      0.0000     -0.0000      0.0000      0.0000
       247         0.0000      0.0000      0.0000      0.0000      0.0000
       248         0.0000     -0.0000     -0.1574      0.0248      0.0287
       249         0.0000      0.0000     -0.1611      0.0260      0.0301
       250        -0.0000      0.0000      0.0000      0.0000      0.0000
       251        -0.0000     -0.0000     -0.0000      0.0000      0.0000
       252        -0.1859     -0.0000     -0.0000      0.0346      0.0411
       253        -0.0000     -0.0000     -0.0000      0.0000      0.0000
       254         0.0000     -0.0000      0.0000      0.0000      0.0000
       255         0.0000     -0.0000     -0.0000      0.0000      0.0000
       256         0.0000      0.2307      0.0000      0.0532      0.0650
       257        -0.0000      0.0850     -0.0000      0.0072      0.0089
       258        -0.6514      0.0000      0.0000      0.4244      0.5248
       259         0.0000     -0.0000      0.2391      0.0572      0.0709
       260         0.5104      0.0000      0.0000      0.2605      0.3315
       261         0.0000     -0.0000     -0.0000      0.0000      0.0000
       262        -0.0000      0.0000     -0.0910      0.0083      0.0107
       263        -0.0000      0.0000     -0.0000      0.0000      0.0000
       264        -0.0000     -0.0000      0.0000      0.0000      0.0000
       265        -0.0000     -0.0000      0.0000      0.0000      0.0000
       266         0.1103      0.0000      0.0000      0.0122      0.0160
       267        -0.0000     -0.0000      0.0894      0.0080      0.0105
       268         0.0000      0.0000      0.0000      0.0000      0.0000
       269         0.0000     -0.0000      0.0000      0.0000      0.0000
       270         0.0000     -0.0000      0.2667      0.0711      0.0968
       271        -0.0000     -0.0000     -0.0000      0.0000      0.0000
       272         0.0000     -0.0000      0.0000      0.0000      0.0000
       273        -0.0000     -0.0173      0.0000      0.0003      0.0004
       274        -0.0000     -0.0000      0.0000      0.0000      0.0000
       275         0.0000      0.0000      0.0000      0.0000      0.0000
       276         0.0000     -0.0000     -0.0000      0.0000      0.0000
       277        -0.0000      0.0000     -0.0000      0.0000      0.0000
       278        -0.2421      0.0000     -0.0000      0.0586      0.0829
       279        -0.0000     -0.0000     -0.0000      0.0000      0.0000
       280        -0.0000      0.0000      0.0000      0.0000      0.0000
       281         0.0000     -0.0000      0.0000      0.0000      0.0000
       282         0.0000      0.0000      0.0000      0.0000      0.0000
       283         0.4290     -0.0000     -0.0000      0.1841      0.2644
       284         0.0000      0.0000     -0.0000      0.0000      0.0000
       285        -0.0000     -0.0000     -0.0000      0.0000      0.0000
       286        -0.0000     -0.2120      0.0000      0.0449      0.0653
       287         0.0000     -0.0000      0.0000      0.0000      0.0000
       288        -0.0000      0.0000      0.1086      0.0118      0.0174
       289        -0.0000      0.0353     -0.0000      0.0012      0.0018
       290        -0.0000      0.0000     -0.0000      0.0000      0.0000
       291         0.0000      0.0000      0.0000      0.0000      0.0000
       292         0.0000      0.0000     -0.1584      0.0251      0.0377
       293        -0.0000     -0.0000     -0.0000      0.0000      0.0000
       294         0.0685      0.0000     -0.0000      0.0047      0.0071
       295        -0.0000      0.0000     -0.0000      0.0000      0.0000
       296         0.0000     -0.1363     -0.0000      0.0186      0.0282
       297        -0.0000     -0.0000      0.0000      0.0000      0.0000
       298         0.0000     -0.0000     -0.0000      0.0000      0.0000
       299        -0.0000     -0.0000      0.0703      0.0049      0.0076
       300         0.3388     -0.0000      0.0000      0.1148      0.1773
       301         0.0000      0.0010      0.0000      0.0000      0.0000
       302        -0.0000     -0.0000      0.0000      0.0000      0.0000
       303         0.0000     -0.0000     -0.0000      0.0000      0.0000
       304         0.0000      0.0000     -0.1624      0.0264      0.0411
       305         0.0000     -0.0000     -0.0000      0.0000      0.0000
       306        -0.0000     -0.3031     -0.0000      0.0919      0.1469
       307        -0.0000     -0.1075      0.0000      0.0116      0.0187
       308         0.0000      0.0000     -0.0000      0.0000      0.0000
       309         0.0000     -0.0000     -0.0000      0.0000      0.0000
       310        -0.0000     -0.0000     -0.0670      0.0045      0.0073
       311         0.0000      0.0000     -0.0000      0.0000      0.0000
       312         0.0000     -0.0000     -0.0000      0.0000      0.0000
       313        -0.0000     -0.0152     -0.0000      0.0002      0.0004
       314        -0.0000     -0.0000     -0.0000      0.0000      0.0000
       315        -0.0000      0.0000     -0.0000      0.0000      0.0000
       316         0.0000     -0.0000     -0.0000      0.0000      0.0000
       317         0.0000     -0.0000     -0.0000      0.0000      0.0000
       318        -0.0000      0.0000      0.0000      0.0000      0.0000
       319        -0.1147      0.0000     -0.0000      0.0132      0.0225
       320         0.0000      0.0000     -0.0000      0.0000      0.0000
       321        -0.0000     -0.0000     -0.0000      0.0000      0.0000
       322        -0.0000      0.0495     -0.0000      0.0025      0.0043
       323         0.0000     -0.0000     -0.0589      0.0035      0.0061
       324         0.0000     -0.0000      0.0000      0.0000      0.0000
       325         0.0000      0.0805     -0.0000      0.0065      0.0114
       326         0.0000     -0.0000      0.0000      0.0000      0.0000
       327        -0.1822      0.0000     -0.0000      0.0332      0.0585
       328         0.1641      0.0000     -0.0000      0.0269      0.0478
       329        -0.0000      0.0000      0.0000      0.0000      0.0000
       330        -0.0000     -0.0000      0.0000      0.0000      0.0000
       331        -0.0000      0.0000     -0.0352      0.0012      0.0022
       332        -0.0000     -0.0000     -0.1735      0.0301      0.0546
       333        -0.1145      0.0000      0.0000      0.0131      0.0238
       334         0.0000     -0.0000      0.0000      0.0000      0.0000
       335         0.0000      0.0000     -0.1268      0.0161      0.0294
       336         0.0000     -0.0000     -0.0000      0.0000      0.0000
       337         0.0000     -0.0000      0.0000      0.0000      0.0000
       338        -0.0000     -0.0000      0.0000      0.0000      0.0000
       339        -0.0000      0.0000      0.0000      0.0000      0.0000
       340        -0.0000      0.0000     -0.0000      0.0000      0.0000
       341        -0.0000     -0.0513     -0.0000      0.0026      0.0050
       342         0.0000     -0.0000     -0.0000      0.0000      0.0000
       343         0.0000      0.0665     -0.0000      0.0044      0.0085
       344         0.0000     -0.0000     -0.0000      0.0000      0.0000
       345         0.0000     -0.0000      0.0000      0.0000      0.0000
       346         0.0000      0.0000      0.0000      0.0000      0.0000
       347        -0.0000      0.0000     -0.0000      0.0000      0.0000
       348        -0.0000      0.0000     -0.0018      0.0000      0.0000
       349         0.1378     -0.0000      0.0000      0.0190      0.0377
       350         0.0000      0.0000      0.0000      0.0000      0.0000
       351        -0.0887     -0.0000      0.0000      0.0079      0.0160
       352        -0.0000      0.0000     -0.0858      0.0074      0.0149
       353        -0.0000      0.0000      0.0000      0.0000      0.0000
       354         0.0000     -0.0000      0.0000      0.0000      0.0000
       355        -0.0000     -0.0000      0.0000      0.0000      0.0000
       356        -0.0000     -0.0000     -0.0000      0.0000      0.0000
       357         0.0000     -0.0000     -0.0000      0.0000      0.0000
       358         0.0000     -0.0000      0.1119      0.0125      0.0264
       359         0.0000      0.0000     -0.0000      0.0000      0.0000
       360         0.0000     -0.0935      0.0000      0.0087      0.0185
       361        -0.0000     -0.0000     -0.0000      0.0000      0.0000
       362        -0.0000      0.1174      0.0000      0.0138      0.0295
       363         0.0000      0.1373      0.0000      0.0188      0.0405
       364         0.0000      0.0000      0.0000      0.0000      0.0000
       365        -0.0000     -0.0000     -0.0209      0.0004      0.0010
       366         0.0000      0.0000     -0.1322      0.0175      0.0386
       367         0.0000     -0.0000     -0.0000      0.0000      0.0000
       368         0.0000     -0.0000     -0.0000      0.0000      0.0000
       369         0.0000      0.0000      0.0000      0.0000      0.0000
       370         0.0000      0.0000      0.0000      0.0000      0.0000
       371         0.0000     -0.0734      0.0000      0.0054      0.0124
       372        -0.0000     -0.0000     -0.0000      0.0000      0.0000
       373        -0.0000      0.0000      0.0352      0.0012      0.0029
       374        -0.0000     -0.1728     -0.0000      0.0298      0.0709
       375        -0.0000      0.0000     -0.0000      0.0000      0.0000
       376        -0.0000      0.0000     -0.0000      0.0000      0.0000
       377         0.0000      0.0000     -0.0551      0.0030      0.0074
       378        -0.0000      0.0000      0.0000      0.0000      0.0000
       379         0.0000     -0.0000     -0.0000      0.0000      0.0000
       380         0.0000      0.0000      0.0000      0.0000      0.0000
       381         0.0000     -0.0000      0.0782      0.0061      0.0156
       382         0.0000     -0.0000      0.0763      0.0058      0.0150
       383        -0.0000     -0.0038     -0.0000      0.0000      0.0000
       384         0.0000      0.0000      0.0000      0.0000      0.0000
 Ground to excited state transition velocity dipole moments (Au):
       state          X           Y           Z        Dip. S.      Osc.
         1        -0.0000     -0.0000      0.4018      0.1614      0.3741
         2         0.2266     -0.0000      0.0000      0.0514      0.1184
         3         0.0000      0.0000     -0.0000      0.0000      0.0000
         4        -0.0000      0.0000     -0.0000      0.0000      0.0000
         5        -0.0000     -0.0000     -0.0000      0.0000      0.0000
         6         0.0000     -0.0000     -0.0000      0.0000      0.0000
         7        -0.0000      0.0000      0.0000      0.0000      0.0000
         8        -0.2710     -0.0000      0.0000      0.0734      0.1283
[...]
      9   0.000000D+00  0.213544D+00  0.000000D+00 -0.122915D+00  0.000000D+00
     10   0.000000D+00  0.000000D+00  0.000000D+00  0.000000D+00  0.000000D+00
     11   0.225666D+00  0.000000D+00  0.000000D+00  0.000000D+00 -0.547574D-01
     12  -0.206735D+00  0.000000D+00  0.000000D+00  0.000000D+00  0.218990D+00
     13   0.785201D+00  0.000000D+00  0.000000D+00  0.000000D+00  0.125115D+00
     14   0.000000D+00  0.000000D+00  0.000000D+00  0.000000D+00  0.000000D+00
     15   0.000000D+00 -0.257163D+00  0.000000D+00 -0.272024D+00  0.000000D+00
     16   0.000000D+00  0.000000D+00  0.000000D+00  0.000000D+00  0.000000D+00
               316           317           318           319           320 
      1  -0.759986D+02 -0.759778D+02 -0.759534D+02 -0.759359D+02 -0.758919D+02
      2   0.000000D+00  0.000000D+00  0.000000D+00 -0.114709D+00  0.000000D+00
      3   0.000000D+00  0.000000D+00  0.000000D+00  0.000000D+00  0.000000D+00
      4   0.000000D+00  0.000000D+00  0.000000D+00  0.000000D+00  0.000000D+00
      5   0.000000D+00  0.000000D+00  0.000000D+00  0.259139D+00  0.000000D+00
      6   0.000000D+00  0.000000D+00  0.000000D+00  0.000000D+00  0.000000D+00
      7   0.000000D+00  0.000000D+00  0.000000D+00  0.000000D+00  0.000000D+00
      8   0.000000D+00  0.000000D+00  0.000000D+00  0.000000D+00  0.000000D+00
      9   0.000000D+00  0.000000D+00 -0.274260D+00  0.000000D+00  0.000000D+00
     10   0.257744D+00  0.000000D+00  0.000000D+00  0.000000D+00  0.000000D+00
     11   0.000000D+00  0.000000D+00  0.000000D+00  0.000000D+00 -0.414206D+00
     12   0.000000D+00  0.000000D+00  0.000000D+00  0.000000D+00  0.325184D-01
     13   0.000000D+00  0.000000D+00  0.000000D+00  0.000000D+00 -0.106363D-01
     14  -0.899218D+00  0.000000D+00  0.000000D+00  0.000000D+00  0.000000D+00
     15   0.000000D+00  0.000000D+00 -0.472223D+00  0.000000D+00  0.000000D+00
     16   0.000000D+00  0.000000D+00  0.000000D+00  0.000000D+00  0.000000D+00
               321           322           323           324           325 
      1  -0.758849D+02 -0.758827D+02 -0.758820D+02 -0.758760D+02 -0.758740D+02
      2   0.000000D+00  0.000000D+00  0.000000D+00  0.000000D+00  0.000000D+00
      3   0.000000D+00  0.495236D-01  0.000000D+00  0.000000D+00  0.805248D-01
      4   0.000000D+00  0.000000D+00 -0.589102D-01  0.000000D+00  0.000000D+00
      5   0.000000D+00  0.000000D+00  0.000000D+00  0.000000D+00  0.000000D+00
      6   0.000000D+00 -0.108891D+00  0.000000D+00  0.000000D+00 -0.134674D+00
      7   0.000000D+00  0.000000D+00  0.112678D+00  0.000000D+00  0.000000D+00
      8   0.000000D+00  0.000000D+00  0.000000D+00  0.197343D+00  0.000000D+00
      9   0.000000D+00  0.000000D+00  0.000000D+00  0.000000D+00  0.000000D+00
     10   0.000000D+00  0.000000D+00  0.000000D+00  0.000000D+00  0.000000D+00
     11  -0.189991D+00  0.000000D+00  0.000000D+00  0.000000D+00  0.000000D+00
     12  -0.431793D+00  0.000000D+00  0.000000D+00  0.000000D+00  0.000000D+00
     13  -0.599657D+00  0.000000D+00  0.000000D+00  0.000000D+00  0.000000D+00
     14   0.000000D+00  0.000000D+00  0.000000D+00  0.000000D+00  0.000000D+00
     15   0.000000D+00  0.000000D+00  0.000000D+00  0.000000D+00  0.000000D+00
     16   0.000000D+00  0.000000D+00  0.000000D+00  0.549727D-01  0.000000D+00
               326           327           328           329           330 
      1  -0.758713D+02 -0.758630D+02 -0.758415D+02 -0.758400D+02 -0.758238D+02
      2   0.000000D+00 -0.182213D+00  0.164100D+00  0.000000D+00  0.000000D+00
      3   0.000000D+00  0.000000D+00  0.000000D+00  0.000000D+00  0.000000D+00
      4   0.000000D+00  0.000000D+00  0.000000D+00  0.000000D+00  0.000000D+00
      5   0.000000D+00  0.391280D+00 -0.346270D+00  0.000000D+00  0.000000D+00
      6   0.000000D+00  0.000000D+00  0.000000D+00  0.000000D+00  0.000000D+00
      7   0.000000D+00  0.000000D+00  0.000000D+00  0.000000D+00  0.000000D+00
      8  -0.667332D+00  0.000000D+00  0.000000D+00  0.000000D+00 -0.436088D+00
      9   0.000000D+00  0.000000D+00  0.000000D+00  0.000000D+00  0.000000D+00
     10   0.000000D+00  0.000000D+00  0.000000D+00  0.000000D+00  0.000000D+00
     11   0.000000D+00  0.000000D+00  0.000000D+00  0.000000D+00  0.000000D+00
     12   0.000000D+00  0.000000D+00  0.000000D+00  0.000000D+00  0.000000D+00
     13   0.000000D+00  0.000000D+00  0.000000D+00  0.000000D+00  0.000000D+00
     14   0.000000D+00  0.000000D+00  0.000000D+00  0.000000D+00  0.000000D+00
     15   0.000000D+00  0.000000D+00  0.000000D+00  0.000000D+00  0.000000D+00
     16   0.369431D+00  0.000000D+00  0.000000D+00  0.000000D+00 -0.118123D+00
               331           332           333           334           335 
      1  -0.758078D+02 -0.757840D+02 -0.757795D+02 -0.757704D+02 -0.757596D+02
      2   0.000000D+00  0.000000D+00 -0.114532D+00  0.000000D+00  0.000000D+00
      3   0.000000D+00  0.000000D+00  0.000000D+00  0.000000D+00  0.000000D+00
      4  -0.352125D-01 -0.173525D+00  0.000000D+00  0.000000D+00 -0.126802D+00
      5   0.000000D+00  0.000000D+00  0.281207D+00  0.000000D+00  0.000000D+00
      6   0.000000D+00  0.000000D+00  0.000000D+00  0.000000D+00  0.000000D+00
      7   0.701888D-01  0.411907D+00  0.000000D+00  0.000000D+00  0.344565D+00
      8   0.000000D+00  0.000000D+00  0.000000D+00  0.318273D+00  0.000000D+00
      9   0.000000D+00  0.000000D+00  0.000000D+00  0.000000D+00  0.000000D+00
     10   0.000000D+00  0.000000D+00  0.000000D+00  0.000000D+00  0.000000D+00
     11   0.000000D+00  0.000000D+00  0.000000D+00  0.000000D+00  0.000000D+00
     12   0.000000D+00  0.000000D+00  0.000000D+00  0.000000D+00  0.000000D+00
     13   0.000000D+00  0.000000D+00  0.000000D+00  0.000000D+00  0.000000D+00
     14   0.000000D+00  0.000000D+00  0.000000D+00  0.000000D+00  0.000000D+00
     15   0.000000D+00  0.000000D+00  0.000000D+00  0.000000D+00  0.000000D+00
     16   0.000000D+00  0.000000D+00  0.000000D+00  0.119985D+00  0.000000D+00
               336           337           338           339           340 
      1  -0.757381D+02 -0.757280D+02 -0.756986D+02 -0.756827D+02 -0.756717D+02
      2   0.000000D+00  0.000000D+00  0.000000D+00  0.000000D+00  0.000000D+00
      3   0.000000D+00  0.000000D+00  0.000000D+00  0.000000D+00  0.000000D+00
      4   0.000000D+00  0.000000D+00  0.000000D+00  0.000000D+00  0.000000D+00
      5   0.000000D+00  0.000000D+00  0.000000D+00  0.000000D+00  0.000000D+00
      6   0.000000D+00  0.000000D+00  0.000000D+00  0.000000D+00  0.000000D+00
      7   0.000000D+00  0.000000D+00  0.000000D+00  0.000000D+00  0.000000D+00
      8   0.137255D+00  0.000000D+00  0.000000D+00  0.000000D+00  0.000000D+00
      9   0.000000D+00  0.000000D+00  0.000000D+00  0.000000D+00  0.326964D-01
     10   0.000000D+00  0.000000D+00  0.170286D+00  0.000000D+00  0.000000D+00
     11   0.000000D+00  0.000000D+00  0.000000D+00  0.387356D-01  0.000000D+00
     12   0.000000D+00  0.000000D+00  0.000000D+00  0.707024D+00  0.000000D+00
     13   0.000000D+00  0.000000D+00  0.000000D+00  0.277123D+00  0.000000D+00
     14   0.000000D+00  0.000000D+00 -0.622609D+00  0.000000D+00  0.000000D+00
     15   0.000000D+00  0.000000D+00  0.000000D+00  0.000000D+00 -0.325987D+00
     16  -0.284581D+00  0.000000D+00  0.000000D+00  0.000000D+00  0.000000D+00
               341           342           343           344           345 
      1  -0.756619D+02 -0.756488D+02 -0.756370D+02 -0.756322D+02 -0.756215D+02
      2   0.000000D+00  0.000000D+00  0.000000D+00  0.000000D+00  0.000000D+00
      3  -0.513472D-01  0.000000D+00  0.665495D-01  0.000000D+00  0.000000D+00
      4   0.000000D+00  0.000000D+00  0.000000D+00  0.000000D+00  0.000000D+00
      5   0.000000D+00  0.000000D+00  0.000000D+00  0.000000D+00  0.000000D+00
      6   0.140879D+00  0.000000D+00 -0.185026D+00  0.000000D+00  0.000000D+00
      7   0.000000D+00  0.000000D+00  0.000000D+00  0.000000D+00  0.000000D+00
      8   0.000000D+00  0.000000D+00  0.000000D+00  0.000000D+00  0.000000D+00
      9   0.000000D+00  0.000000D+00  0.000000D+00  0.000000D+00  0.608261D+00
     10   0.000000D+00  0.889289D-01  0.000000D+00  0.000000D+00  0.000000D+00
     11   0.000000D+00  0.000000D+00  0.000000D+00 -0.490399D-01  0.000000D+00
     12   0.000000D+00  0.000000D+00  0.000000D+00 -0.416357D+00  0.000000D+00
     13   0.000000D+00  0.000000D+00  0.000000D+00  0.154104D+01  0.000000D+00
     14   0.000000D+00  0.174315D+00  0.000000D+00  0.000000D+00  0.000000D+00
     15   0.000000D+00  0.000000D+00  0.000000D+00  0.000000D+00  0.107687D+01
     16   0.000000D+00  0.000000D+00  0.000000D+00  0.000000D+00  0.000000D+00
               346           347           348           349           350 
      1  -0.755844D+02 -0.755575D+02 -0.755297D+02 -0.755219D+02 -0.754861D+02
      2   0.000000D+00  0.000000D+00  0.000000D+00  0.137778D+00  0.000000D+00
      3   0.000000D+00  0.000000D+00  0.000000D+00  0.000000D+00  0.000000D+00
      4   0.000000D+00  0.000000D+00 -0.175637D-02  0.000000D+00  0.000000D+00
      5   0.000000D+00  0.000000D+00  0.000000D+00 -0.321462D+00  0.000000D+00
      6   0.000000D+00  0.000000D+00  0.000000D+00  0.000000D+00  0.000000D+00
      7   0.000000D+00  0.000000D+00  0.185325D-01  0.000000D+00  0.000000D+00
      8   0.000000D+00  0.000000D+00  0.000000D+00  0.000000D+00 -0.235777D+00
      9   0.000000D+00  0.000000D+00  0.000000D+00  0.000000D+00  0.000000D+00
     10   0.000000D+00  0.130163D+00  0.000000D+00  0.000000D+00  0.000000D+00
     11   0.000000D+00  0.000000D+00  0.000000D+00  0.000000D+00  0.000000D+00
     12   0.000000D+00  0.000000D+00  0.000000D+00  0.000000D+00  0.000000D+00
     13   0.000000D+00  0.000000D+00  0.000000D+00  0.000000D+00  0.000000D+00
     14   0.000000D+00 -0.223578D+00  0.000000D+00  0.000000D+00  0.000000D+00
     15   0.000000D+00  0.000000D+00  0.000000D+00  0.000000D+00  0.000000D+00
     16   0.000000D+00  0.000000D+00  0.000000D+00  0.000000D+00 -0.140501D+00
               351           352           353           354           355 
      1  -0.754635D+02 -0.754607D+02 -0.754436D+02 -0.754409D+02 -0.753869D+02
      2  -0.887471D-01  0.000000D+00  0.000000D+00  0.000000D+00  0.000000D+00
      3   0.000000D+00  0.000000D+00  0.000000D+00  0.000000D+00  0.000000D+00
      4   0.000000D+00 -0.857565D-01  0.000000D+00  0.000000D+00  0.000000D+00
      5   0.221526D+00  0.000000D+00  0.000000D+00  0.000000D+00  0.000000D+00
      6   0.000000D+00  0.000000D+00  0.000000D+00  0.000000D+00  0.000000D+00
      7   0.000000D+00  0.204521D+00  0.000000D+00  0.000000D+00  0.000000D+00
      8   0.000000D+00  0.000000D+00  0.000000D+00 -0.296943D+00  0.000000D+00
      9   0.000000D+00  0.000000D+00  0.000000D+00  0.000000D+00  0.000000D+00
     10   0.000000D+00  0.000000D+00 -0.323982D-01  0.000000D+00  0.000000D+00
     11   0.000000D+00  0.000000D+00  0.000000D+00  0.000000D+00  0.000000D+00
     12   0.000000D+00  0.000000D+00  0.000000D+00  0.000000D+00  0.000000D+00
     13   0.000000D+00  0.000000D+00  0.000000D+00  0.000000D+00  0.000000D+00
     14   0.000000D+00  0.000000D+00 -0.291077D+00  0.000000D+00  0.000000D+00
     15   0.000000D+00  0.000000D+00  0.000000D+00  0.000000D+00  0.000000D+00
     16   0.000000D+00  0.000000D+00  0.000000D+00  0.471260D+00  0.000000D+00
               356           357           358           359           360 
      1  -0.753835D+02 -0.753698D+02 -0.753488D+02 -0.753450D+02 -0.753226D+02
      2   0.000000D+00  0.000000D+00  0.000000D+00  0.000000D+00  0.000000D+00
      3   0.000000D+00  0.000000D+00  0.000000D+00  0.000000D+00 -0.934859D-01
      4   0.000000D+00  0.000000D+00  0.111930D+00  0.000000D+00  0.000000D+00
      5   0.000000D+00  0.000000D+00  0.000000D+00  0.000000D+00  0.000000D+00
      6   0.000000D+00  0.000000D+00  0.000000D+00  0.000000D+00  0.222255D+00
      7   0.000000D+00  0.000000D+00 -0.306647D+00  0.000000D+00  0.000000D+00
      8   0.000000D+00  0.000000D+00  0.000000D+00  0.000000D+00  0.000000D+00
      9  -0.572616D+00  0.000000D+00  0.000000D+00  0.000000D+00  0.000000D+00
     10   0.000000D+00  0.000000D+00  0.000000D+00  0.000000D+00  0.000000D+00
     11   0.000000D+00  0.143074D+00  0.000000D+00 -0.952307D-01  0.000000D+00
     12   0.000000D+00 -0.260752D+00  0.000000D+00  0.274832D+00  0.000000D+00
     13   0.000000D+00  0.117661D+00  0.000000D+00 -0.723026D+00  0.000000D+00
     14   0.000000D+00  0.000000D+00  0.000000D+00  0.000000D+00  0.000000D+00
     15  -0.781501D+00  0.000000D+00  0.000000D+00  0.000000D+00  0.000000D+00
     16   0.000000D+00  0.000000D+00  0.000000D+00  0.000000D+00  0.000000D+00
               361           362           363           364           365 
      1  -0.752957D+02 -0.752931D+02 -0.752824D+02 -0.752295D+02 -0.752243D+02
      2   0.000000D+00  0.000000D+00  0.000000D+00  0.000000D+00  0.000000D+00
      3   0.000000D+00  0.117448D+00  0.137264D+00  0.000000D+00  0.000000D+00
      4   0.000000D+00  0.000000D+00  0.000000D+00  0.000000D+00 -0.209365D-01
      5   0.000000D+00  0.000000D+00  0.000000D+00  0.000000D+00  0.000000D+00
      6   0.000000D+00 -0.302253D+00 -0.388423D+00  0.000000D+00  0.000000D+00
      7   0.000000D+00  0.000000D+00  0.000000D+00  0.000000D+00  0.470169D-01
      8   0.000000D+00  0.000000D+00  0.000000D+00  0.000000D+00  0.000000D+00
      9  -0.131605D+00  0.000000D+00  0.000000D+00  0.000000D+00  0.000000D+00
     10   0.000000D+00  0.000000D+00  0.000000D+00  0.000000D+00  0.000000D+00
     11   0.000000D+00  0.000000D+00  0.000000D+00 -0.187969D+00  0.000000D+00
     12   0.000000D+00  0.000000D+00  0.000000D+00 -0.170227D+00  0.000000D+00
     13   0.000000D+00  0.000000D+00  0.000000D+00 -0.719983D+00  0.000000D+00
     14   0.000000D+00  0.000000D+00  0.000000D+00  0.000000D+00  0.000000D+00
     15  -0.136293D+00  0.000000D+00  0.000000D+00  0.000000D+00  0.000000D+00
     16   0.000000D+00  0.000000D+00  0.000000D+00  0.000000D+00  0.000000D+00
               366           367           368           369           370 
      1  -0.751882D+02 -0.751756D+02 -0.751300D+02 -0.751286D+02 -0.750570D+02
      2   0.000000D+00  0.000000D+00  0.000000D+00  0.000000D+00  0.000000D+00
      3   0.000000D+00  0.000000D+00  0.000000D+00  0.000000D+00  0.000000D+00
      4  -0.132175D+00  0.000000D+00  0.000000D+00  0.000000D+00  0.000000D+00
      5   0.000000D+00  0.000000D+00  0.000000D+00  0.000000D+00  0.000000D+00
      6   0.000000D+00  0.000000D+00  0.000000D+00  0.000000D+00  0.000000D+00
      7   0.367129D+00  0.000000D+00  0.000000D+00  0.000000D+00  0.000000D+00
      8   0.000000D+00  0.726117D-01 -0.127229D+00  0.000000D+00  0.000000D+00
      9   0.000000D+00  0.000000D+00  0.000000D+00 -0.383497D+00  0.000000D+00
     10   0.000000D+00  0.000000D+00  0.000000D+00  0.000000D+00  0.000000D+00
     11   0.000000D+00  0.000000D+00  0.000000D+00  0.000000D+00 -0.369981D+00
     12   0.000000D+00  0.000000D+00  0.000000D+00  0.000000D+00  0.252420D+00
     13   0.000000D+00  0.000000D+00  0.000000D+00  0.000000D+00  0.887528D+00
     14   0.000000D+00  0.000000D+00  0.000000D+00  0.000000D+00  0.000000D+00
     15   0.000000D+00  0.000000D+00  0.000000D+00 -0.333171D+00  0.000000D+00
     16   0.000000D+00 -0.280224D+00 -0.909973D-01  0.000000D+00  0.000000D+00
               371           372           373           374           375 
      1  -0.750354D+02 -0.750268D+02 -0.749715D+02 -0.749434D+02 -0.749194D+02
      2   0.000000D+00  0.000000D+00  0.000000D+00  0.000000D+00  0.000000D+00
      3  -0.733532D-01  0.000000D+00  0.000000D+00 -0.172753D+00  0.000000D+00
      4   0.000000D+00  0.000000D+00  0.352440D-01  0.000000D+00  0.000000D+00
      5   0.000000D+00  0.000000D+00  0.000000D+00  0.000000D+00  0.000000D+00
      6   0.237489D+00  0.000000D+00  0.000000D+00  0.498589D+00  0.000000D+00
      7   0.000000D+00  0.000000D+00 -0.130163D+00  0.000000D+00  0.000000D+00
      8   0.000000D+00  0.000000D+00  0.000000D+00  0.000000D+00 -0.252546D+00
      9   0.000000D+00  0.000000D+00  0.000000D+00  0.000000D+00  0.000000D+00
     10   0.000000D+00  0.000000D+00  0.000000D+00  0.000000D+00  0.000000D+00
     11   0.000000D+00 -0.164539D+00  0.000000D+00  0.000000D+00  0.000000D+00
     12   0.000000D+00  0.252465D+00  0.000000D+00  0.000000D+00  0.000000D+00
     13   0.000000D+00 -0.592867D+00  0.000000D+00  0.000000D+00  0.000000D+00
     14   0.000000D+00  0.000000D+00  0.000000D+00  0.000000D+00  0.000000D+00
     15   0.000000D+00  0.000000D+00  0.000000D+00  0.000000D+00  0.000000D+00
     16   0.000000D+00  0.000000D+00  0.000000D+00  0.000000D+00  0.482922D+00
               376           377           378           379           380 
      1  -0.748947D+02 -0.748779D+02 -0.748077D+02 -0.747922D+02 -0.747391D+02
      2   0.000000D+00  0.000000D+00  0.000000D+00  0.000000D+00  0.000000D+00
      3   0.000000D+00  0.000000D+00  0.000000D+00  0.000000D+00  0.000000D+00
      4   0.000000D+00 -0.551395D-01  0.000000D+00  0.000000D+00  0.000000D+00
      5   0.000000D+00  0.000000D+00  0.000000D+00  0.000000D+00  0.000000D+00
      6   0.000000D+00  0.000000D+00  0.000000D+00  0.000000D+00  0.000000D+00
      7   0.000000D+00  0.156674D+00  0.000000D+00  0.000000D+00  0.000000D+00
      8   0.000000D+00  0.000000D+00  0.000000D+00  0.000000D+00  0.640743D+00
      9   0.000000D+00  0.000000D+00  0.000000D+00  0.000000D+00  0.000000D+00
     10   0.000000D+00  0.000000D+00  0.000000D+00  0.000000D+00  0.000000D+00
     11   0.000000D+00  0.000000D+00  0.107537D-01 -0.169674D+00  0.000000D+00
     12   0.000000D+00  0.000000D+00  0.248407D-01 -0.903099D-01  0.000000D+00
     13   0.000000D+00  0.000000D+00 -0.264026D+00 -0.695065D+00  0.000000D+00
     14   0.000000D+00  0.000000D+00  0.000000D+00  0.000000D+00  0.000000D+00
     15   0.000000D+00  0.000000D+00  0.000000D+00  0.000000D+00  0.000000D+00
     16   0.000000D+00  0.000000D+00  0.000000D+00  0.000000D+00 -0.768786D+00
               381           382           383           384 
      1  -0.746819D+02 -0.746360D+02 -0.745741D+02 -0.744012D+02
      2   0.000000D+00  0.000000D+00  0.000000D+00  0.000000D+00
      3   0.000000D+00  0.000000D+00 -0.375500D-02  0.000000D+00
      4   0.782438D-01  0.763049D-01  0.000000D+00  0.000000D+00
      5   0.000000D+00  0.000000D+00  0.000000D+00  0.000000D+00
      6   0.000000D+00  0.000000D+00 -0.130788D-01  0.000000D+00
      7  -0.282845D+00 -0.234627D+00  0.000000D+00  0.000000D+00
      8   0.000000D+00  0.000000D+00  0.000000D+00 -0.339313D+00
      9   0.000000D+00  0.000000D+00  0.000000D+00  0.000000D+00
     10   0.000000D+00  0.000000D+00  0.000000D+00  0.000000D+00
     11   0.000000D+00  0.000000D+00  0.000000D+00  0.000000D+00
     12   0.000000D+00  0.000000D+00  0.000000D+00  0.000000D+00
     13   0.000000D+00  0.000000D+00  0.000000D+00  0.000000D+00
     14   0.000000D+00  0.000000D+00  0.000000D+00  0.000000D+00
     15   0.000000D+00  0.000000D+00  0.000000D+00  0.000000D+00
     16   0.000000D+00  0.000000D+00  0.000000D+00  0.379351D+00
 Unable to Open any file for archive entry.
 1\1\GINC-HEL02\SP\RwB97XD TD-FC\Gen\C2H4\RR\12-Feb-2022\0\\#P TD(Nstat
 es=10000) wB97XD/Gen SCF(maxcycles=100) Int(Grid=ultrafine)\\xGDB7_000
 01_tier4.com\\0,1\C,0,0.,0.,0.664999\C,0,0.,0.,-0.664999\H,0,0.,0.9311
 03,1.239041\H,0,0.,-0.931103,1.239041\H,0,0.,0.931103,-1.239041\H,0,0.
 ,-0.931103,-1.239041\\Version=EM64L-G16RevC.01\State=1-AG\HF=-78.50472
 97\RMSD=3.742e-09\PG=D02H [C2"(C1.C1),SG(H4)]\\@
 The archive entry for this job was punched.


 QED = W**5 (WHICH WAS WHAT WE WANTED)
 Job cpu time:       0 days  0 hours  1 minutes  9.3 seconds.
 Elapsed time:       0 days  0 hours  0 minutes  9.0 seconds.
 File lengths (MBytes):  RWF=    194 Int=      0 D2E=      0 Chk=     49 Scr=      1
 Normal termination of Gaussian 16 at Sat Feb 12 22:22:51 2022.
