 Entering Gaussian System, Link 0=g16
 Input=bigQM7w_TDwB97XD_def2SVPD_000032.com
 Output=bigQM7w_TDwB97XD_def2SVPD_000032.log
 Initial command:
 /home/rr/g16/l1.exe "/scratch/rr/PBS_7839477.helios/Gau-139810.inp" -scrdir="/scratch/rr/PBS_7839477.helios/"
 Entering Link 1 = /home/rr/g16/l1.exe PID=    139843.
  
 Copyright (c) 1988-2019, Gaussian, Inc.  All Rights Reserved.
  
 This is part of the Gaussian(R) 16 program.  It is based on
 the Gaussian(R) 09 system (copyright 2009, Gaussian, Inc.),
 the Gaussian(R) 03 system (copyright 2003, Gaussian, Inc.),
 the Gaussian(R) 98 system (copyright 1998, Gaussian, Inc.),
 the Gaussian(R) 94 system (copyright 1995, Gaussian, Inc.),
 the Gaussian 92(TM) system (copyright 1992, Gaussian, Inc.),
 the Gaussian 90(TM) system (copyright 1990, Gaussian, Inc.),
 the Gaussian 88(TM) system (copyright 1988, Gaussian, Inc.),
 the Gaussian 86(TM) system (copyright 1986, Carnegie Mellon
 University), and the Gaussian 82(TM) system (copyright 1983,
 Carnegie Mellon University). Gaussian is a federally registered
 trademark of Gaussian, Inc.
  
 This software contains proprietary and confidential information,
 including trade secrets, belonging to Gaussian, Inc.
  
 This software is provided under written license and may be
 used, copied, transmitted, or stored only in accord with that
 written license.
  
 The following legend is applicable only to US Government
 contracts under FAR:
  
                    RESTRICTED RIGHTS LEGEND
  
 Use, reproduction and disclosure by the US Government is
 subject to restrictions as set forth in subparagraphs (a)
 and (c) of the Commercial Computer Software - Restricted
 Rights clause in FAR 52.227-19.
  
 Gaussian, Inc.
 340 Quinnipiac St., Bldg. 40, Wallingford CT 06492
  
  
 ---------------------------------------------------------------
 Warning -- This program may not be used in any manner that
 competes with the business of Gaussian, Inc. or will provide
 assistance to any competitor of Gaussian, Inc.  The licensee
 of this program is prohibited from giving any competitor of
 Gaussian, Inc. access to this program.  By using this program,
 the user acknowledges that Gaussian, Inc. is engaged in the
 business of creating and licensing software in the field of
 computational chemistry and represents and warrants to the
 licensee that it is not a competitor of Gaussian, Inc. and that
 it will not use this program in any manner prohibited above.
 ---------------------------------------------------------------
  

 Cite this work as:
 Gaussian 16, Revision C.01,
 M. J. Frisch, G. W. Trucks, H. B. Schlegel, G. E. Scuseria, 
 M. A. Robb, J. R. Cheeseman, G. Scalmani, V. Barone, 
 G. A. Petersson, H. Nakatsuji, X. Li, M. Caricato, A. V. Marenich, 
 J. Bloino, B. G. Janesko, R. Gomperts, B. Mennucci, H. P. Hratchian, 
 J. V. Ortiz, A. F. Izmaylov, J. L. Sonnenberg, D. Williams-Young, 
 F. Ding, F. Lipparini, F. Egidi, J. Goings, B. Peng, A. Petrone, 
 T. Henderson, D. Ranasinghe, V. G. Zakrzewski, J. Gao, N. Rega, 
 G. Zheng, W. Liang, M. Hada, M. Ehara, K. Toyota, R. Fukuda, 
 J. Hasegawa, M. Ishida, T. Nakajima, Y. Honda, O. Kitao, H. Nakai, 
 T. Vreven, K. Throssell, J. A. Montgomery, Jr., J. E. Peralta, 
 F. Ogliaro, M. J. Bearpark, J. J. Heyd, E. N. Brothers, K. N. Kudin, 
 V. N. Staroverov, T. A. Keith, R. Kobayashi, J. Normand, 
 K. Raghavachari, A. P. Rendell, J. C. Burant, S. S. Iyengar, 
 J. Tomasi, M. Cossi, J. M. Millam, M. Klene, C. Adamo, R. Cammi, 
 J. W. Ochterski, R. L. Martin, K. Morokuma, O. Farkas, 
 J. B. Foresman, and D. J. Fox, Gaussian, Inc., Wallingford CT, 2019.
 
 ******************************************
 Gaussian 16:  EM64L-G16RevC.01  3-Jul-2019
                12-Feb-2022 
 ******************************************
 %mem=64gb
 %nproc=8
 Will use up to    8 processors via shared memory.
 ----------------------------------------------------------------------
 #P TD(Nstates=10000) wB97XD/Gen SCF(maxcycles=100) Int(Grid=ultrafine)
 ----------------------------------------------------------------------
 1/38=1,172=1/1;
 2/12=2,17=6,18=5,40=1/2;
 3/5=7,11=9,25=1,30=1,74=-58,75=-5/1,2,3,8;
 4//1;
 5/5=2,7=100,38=5/2;
 8/6=1,10=1,108=10000/1;
 9/41=10000,42=1,70=2/14;
 6/7=2,8=2,9=2,10=2/1;
 99/5=1,9=1/99;
 Leave Link    1 at Sat Feb 12 21:40:24 2022, MaxMem=  8589934592 cpu:               0.6 elap:               0.1
 (Enter /home/rr/g16/l101.exe)
 ---------------------
 xGDB7_00001_tier4.com
 ---------------------
 Symbolic Z-matrix:
 Charge =  0 Multiplicity = 1
 6                     0.74131  -0.39109   0.02367 
 6                    -0.74131  -0.39109   0.02367 
 7                     0.        0.8455   -0.17358 
 1                     1.29026  -0.755    -0.85067 
 1                     1.25217  -0.56092   0.97805 
 1                    -1.25217  -0.56092   0.97805 
 1                    -1.29026  -0.755    -0.85067 
 1                     0.        1.40633   0.67632 
 
 ITRead=  0  0  0  0  0  0  0  0
 MicOpt= -1 -1 -1 -1 -1 -1 -1 -1
 NAtoms=      8 NQM=        8 NQMF=       0 NMMI=      0 NMMIF=      0
                NMic=       0 NMicF=      0.
                    Isotopes and Nuclear Properties:
 (Nuclear quadrupole moments (NQMom) in fm**2, nuclear magnetic moments (NMagM)
  in nuclear magnetons)

  Atom         1           2           3           4           5           6           7           8
 IAtWgt=          12          12          14           1           1           1           1           1
 AtmWgt=  12.0000000  12.0000000  14.0030740   1.0078250   1.0078250   1.0078250   1.0078250   1.0078250
 NucSpn=           0           0           2           1           1           1           1           1
 AtZEff=  -0.0000000  -0.0000000  -0.0000000  -0.0000000  -0.0000000  -0.0000000  -0.0000000  -0.0000000
 NQMom=    0.0000000   0.0000000   2.0440000   0.0000000   0.0000000   0.0000000   0.0000000   0.0000000
 NMagM=    0.0000000   0.0000000   0.4037610   2.7928460   2.7928460   2.7928460   2.7928460   2.7928460
 AtZNuc=   6.0000000   6.0000000   7.0000000   1.0000000   1.0000000   1.0000000   1.0000000   1.0000000
 Leave Link  101 at Sat Feb 12 21:40:24 2022, MaxMem=  8589934592 cpu:               0.8 elap:               0.1
 (Enter /home/rr/g16/l202.exe)
                          Input orientation:                          
 ---------------------------------------------------------------------
 Center     Atomic      Atomic             Coordinates (Angstroms)
 Number     Number       Type             X           Y           Z
 ---------------------------------------------------------------------
      1          6           0        0.741313   -0.391085    0.023666
      2          6           0       -0.741313   -0.391085    0.023666
      3          7           0        0.000000    0.845504   -0.173581
      4          1           0        1.290256   -0.754998   -0.850673
      5          1           0        1.252174   -0.560924    0.978054
      6          1           0       -1.252174   -0.560923    0.978054
      7          1           0       -1.290256   -0.754998   -0.850673
      8          1           0        0.000000    1.406334    0.676315
 ---------------------------------------------------------------------
                    Distance matrix (angstroms):
                    1          2          3          4          5
     1  C    0.000000
     2  C    1.482626   0.000000
     3  N    1.455199   1.455199   0.000000
     4  H    1.094641   2.241467   2.164445   0.000000
     5  H    1.095756   2.216685   2.207316   1.839390   0.000000
     6  H    2.216685   1.095756   2.207315   3.137811   2.504348
     7  H    2.241467   1.094641   2.164445   2.580512   3.137811
     8  H    2.050905   2.050905   1.018260   2.944114   2.351402
                    6          7          8
     6  H    0.000000
     7  H    1.839391   0.000000
     8  H    2.351401   2.944114   0.000000
 Stoichiometry    C2H5N
 Framework group  C1[X(C2H5N)]
 Deg. of freedom    18
 Full point group                 C1      NOp   1
 Largest Abelian subgroup         C1      NOp   1
 Largest concise Abelian subgroup C1      NOp   1
                         Standard orientation:                         
 ---------------------------------------------------------------------
 Center     Atomic      Atomic             Coordinates (Angstroms)
 Number     Number       Type             X           Y           Z
 ---------------------------------------------------------------------
      1          6           0        0.741313   -0.391085    0.023666
      2          6           0       -0.741313   -0.391085    0.023666
      3          7           0       -0.000000    0.845504   -0.173581
      4          1           0        1.290256   -0.754997   -0.850673
      5          1           0        1.252174   -0.560923    0.978054
      6          1           0       -1.252174   -0.560924    0.978054
      7          1           0       -1.290256   -0.754999   -0.850673
      8          1           0       -0.000001    1.406334    0.676315
 ---------------------------------------------------------------------
 Rotational constants (GHZ):          23.3039763          21.1664752          13.5781064
 Leave Link  202 at Sat Feb 12 21:40:24 2022, MaxMem=  8589934592 cpu:               0.1 elap:               0.0
 (Enter /home/rr/g16/l301.exe)
 General basis read from cards:  (5D, 7F)
 Centers:       4      5      6      7      8
 S 3 1.00
     Exponent=  1.3010701000D+01 Coefficients=  1.9682158000D-02
     Exponent=  1.9622572000D+00 Coefficients=  1.3796524000D-01
     Exponent=  4.4453796000D-01 Coefficients=  4.7831935000D-01
 S 1 1.00
     Exponent=  1.2194962000D-01 Coefficients=  1.0000000000D+00
 P 1 1.00
     Exponent=  8.0000000000D-01 Coefficients=  1.0000000000D+00
 P 1 1.00
     Exponent=  1.1704099050D-01 Coefficients=  1.0000000000D+00
 ****
 Centers:       1      2
 S 5 1.00
     Exponent=  1.2384016938D+03 Coefficients=  5.4568832082D-03
     Exponent=  1.8629004992D+02 Coefficients=  4.0638409211D-02
     Exponent=  4.2251176346D+01 Coefficients=  1.8025593888D-01
     Exponent=  1.1676557932D+01 Coefficients=  4.6315121755D-01
     Exponent=  3.5930506482D+00 Coefficients=  4.4087173314D-01
 S 1 1.00
     Exponent=  4.0245147363D-01 Coefficients=  1.0000000000D+00
 S 1 1.00
     Exponent=  1.3090182668D-01 Coefficients=  1.0000000000D+00
 S 1 1.00
     Exponent=  6.7053540256D-02 Coefficients=  1.0000000000D+00
 P 3 1.00
     Exponent=  9.4680970621D+00 Coefficients=  3.8387871728D-02
     Exponent=  2.0103545142D+00 Coefficients=  2.1117025112D-01
     Exponent=  5.4771004707D-01 Coefficients=  5.1328172114D-01
 P 1 1.00
     Exponent=  1.5268613795D-01 Coefficients=  1.0000000000D+00
 D 1 1.00
     Exponent=  8.0000000000D-01 Coefficients=  1.0000000000D+00
 D 1 1.00
     Exponent=  1.1713185140D-01 Coefficients=  1.0000000000D+00
 ****
 Centers:       3
 S 5 1.00
     Exponent=  1.7128415853D+03 Coefficients= -5.3934125305D-03
     Exponent=  2.5764812677D+02 Coefficients= -4.0221581118D-02
     Exponent=  5.8458245853D+01 Coefficients= -1.7931144990D-01
     Exponent=  1.6198367905D+01 Coefficients= -4.6376317823D-01
     Exponent=  5.0052600809D+00 Coefficients= -4.4171422662D-01
 S 1 1.00
     Exponent=  5.8731856571D-01 Coefficients=  1.0000000000D+00
 S 1 1.00
     Exponent=  1.8764592253D-01 Coefficients=  1.0000000000D+00
 S 1 1.00
     Exponent=  9.6171241529D-02 Coefficients=  1.0000000000D+00
 P 3 1.00
     Exponent=  1.3571470233D+01 Coefficients= -4.0072398852D-02
     Exponent=  2.9257372874D+00 Coefficients= -2.1807045028D-01
     Exponent=  7.9927750754D-01 Coefficients= -5.1294466049D-01
 P 1 1.00
     Exponent=  2.1954348034D-01 Coefficients=  1.0000000000D+00
 D 1 1.00
     Exponent=  1.0000000000D+00 Coefficients=  1.0000000000D+00
 D 1 1.00
     Exponent=  1.6697708112D-01 Coefficients=  1.0000000000D+00
 ****
 Ernie: Thresh=  0.10000D-02 Tol=  0.10000D-05 Strict=F.
 There are   106 symmetry adapted cartesian basis functions of A   symmetry.
 There are   100 symmetry adapted basis functions of A   symmetry.
   100 basis functions,   146 primitive gaussians,   106 cartesian basis functions
    12 alpha electrons       12 beta electrons
       nuclear repulsion energy        76.3411953217 Hartrees.
 IExCor= 4639 DFT=T Ex+Corr=wB97XD ExCW=0 ScaHFX=  1.000000
 ScaDFX=  1.000000  1.000000  1.000000  1.000000 ScalE2=  1.000000  1.000000
 IRadAn=      5 IRanWt=     -1 IRanGd=            0 ICorTp=0 IEmpDi=121
 HFx  wShort=  0.000000 wLong=  0.200000 cFull=  0.222036 cShort=  0.000000 cLong=  0.777964
 DFx  wShort=  0.000000 wLong=  0.200000 cFull=  0.000000 cShort=  0.000000 cLong=  1.000000
 NAtoms=    8 NActive=    8 NUniq=    8 SFac= 1.00D+00 NAtFMM=   60 NAOKFM=F Big=F
 Integral buffers will be    131072 words long.
 Raffenetti 1 integral format.
 Two-electron integral symmetry is turned on.
 R6Disp:  Grimme-D2 Dispersion energy=       -0.0017730168 Hartrees.
 Nuclear repulsion after empirical dispersion term =       76.3394223048 Hartrees.
 Leave Link  301 at Sat Feb 12 21:40:24 2022, MaxMem=  8589934592 cpu:               0.6 elap:               0.1
 (Enter /home/rr/g16/l302.exe)
 NPDir=0 NMtPBC=     1 NCelOv=     1 NCel=       1 NClECP=     1 NCelD=      1
         NCelK=      1 NCelE2=     1 NClLst=     1 CellRange=     0.0.
 One-electron integrals computed using PRISM.
 One-electron integral symmetry used in STVInt
 NBasis=   100 RedAO= T EigKep=  1.43D-04  NBF=   100
 NBsUse=   100 1.00D-06 EigRej= -1.00D+00 NBFU=   100
 Precomputing XC quadrature grid using
 IXCGrd= 4 IRadAn=           5 IRanWt=          -1 IRanGd=           0 AccXCQ= 0.00D+00.
 Generated NRdTot=       0 NPtTot=           0 NUsed=           0 NTot=          32
 NSgBfM=   106   106   106   106   106 MxSgAt=     8 MxSgA2=     8.
 Leave Link  302 at Sat Feb 12 21:40:24 2022, MaxMem=  8589934592 cpu:               1.1 elap:               0.2
 (Enter /home/rr/g16/l303.exe)
 DipDrv:  MaxL=1.
 Leave Link  303 at Sat Feb 12 21:40:24 2022, MaxMem=  8589934592 cpu:               0.2 elap:               0.0
 (Enter /home/rr/g16/l308.exe)
 Leave Link  308 at Sat Feb 12 21:40:24 2022, MaxMem=  8589934592 cpu:               0.2 elap:               0.1
 (Enter /home/rr/g16/l401.exe)
 ExpMin= 6.71D-02 ExpMax= 1.71D+03 ExpMxC= 2.58D+02 IAcc=3 IRadAn=         5 AccDes= 0.00D+00
 Harris functional with IExCor= 4639 and IRadAn=       5 diagonalized for initial guess.
 HarFok:  IExCor= 4639 AccDes= 0.00D+00 IRadAn=         5 IDoV= 1 UseB2=F ITyADJ=14
 ICtDFT=  3500011 ScaDFX=  1.000000  1.000000  1.000000  1.000000
 FoFCou: FMM=F IPFlag=           0 FMFlag=      100000 FMFlg1=           0
         NFxFlg=           0 DoJE=T BraDBF=F KetDBF=T FulRan=T
         wScrn=  0.000000 ICntrl=       500 IOpCl=  0 I1Cent=   200000004 NGrid=           0
         NMat0=    1 NMatS0=      1 NMatT0=    0 NMatD0=    1 NMtDS0=    0 NMtDT0=    0
 Petite list used in FoFCou.
 Harris En= -127.669801562410    
 JPrj=0 DoOrth=F DoCkMO=F.
 Leave Link  401 at Sat Feb 12 21:40:25 2022, MaxMem=  8589934592 cpu:               3.4 elap:               0.5
 (Enter /home/rr/g16/l502.exe)
 Keep R1 ints in memory in canonical form, NReq=33470610.
 FoFCou: FMM=F IPFlag=           0 FMFlag=           0 FMFlg1=           0
         NFxFlg=           0 DoJE=F BraDBF=F KetDBF=F FulRan=T
         wScrn=  0.000000 ICntrl=       600 IOpCl=  0 I1Cent=           0 NGrid=           0
         NMat0=    1 NMatS0=   5050 NMatT0=    0 NMatD0=    1 NMtDS0=    0 NMtDT0=    0
 Symmetry not used in FoFCou.
 Two-electron integral symmetry not used.
 Closed shell SCF:
 Using DIIS extrapolation, IDIIS=  1040.
 NGot=  8589934592 LenX=  8564402344 LenY=  8564390667
 Requested convergence on RMS density matrix=1.00D-08 within 100 cycles.
 Requested convergence on MAX density matrix=1.00D-06.
 Requested convergence on             energy=1.00D-06.
 No special actions if energy rises.
 Integral accuracy reduced to 1.0D-05 until final iterations.

 Cycle   1  Pass 0  IDiag  1:
 E= -133.769468516088    
 DIIS: error= 3.67D-02 at cycle   1 NSaved=   1.
 NSaved= 1 IEnMin= 1 EnMin= -133.769468516088     IErMin= 1 ErrMin= 3.67D-02
 ErrMax= 3.67D-02  0.00D+00 EMaxC= 1.00D-01 BMatC= 6.33D-02 BMatP= 6.33D-02
 IDIUse=3 WtCom= 6.33D-01 WtEn= 3.67D-01
 Coeff-Com:  0.100D+01
 Coeff-En:   0.100D+01
 Coeff:      0.100D+01
 Gap=     0.463 Goal=   None    Shift=    0.000
 GapD=    0.463 DampG=2.000 DampE=0.500 DampFc=1.0000 IDamp=-1.
 RMSDP=5.50D-03 MaxDP=1.30D-01              OVMax= 5.98D-02

 Cycle   2  Pass 0  IDiag  1:
 E= -133.781255001812     Delta-E=       -0.011786485724 Rises=F Damp=F
 DIIS: error= 9.23D-03 at cycle   2 NSaved=   2.
 NSaved= 2 IEnMin= 2 EnMin= -133.781255001812     IErMin= 2 ErrMin= 9.23D-03
 ErrMax= 9.23D-03  0.00D+00 EMaxC= 1.00D-01 BMatC= 1.26D-02 BMatP= 6.33D-02
 IDIUse=3 WtCom= 9.08D-01 WtEn= 9.23D-02
 Coeff-Com:  0.242D+00 0.758D+00
 Coeff-En:   0.181D+00 0.819D+00
 Coeff:      0.236D+00 0.764D+00
 Gap=     0.421 Goal=   None    Shift=    0.000
 RMSDP=2.43D-03 MaxDP=8.53D-02 DE=-1.18D-02 OVMax= 4.88D-02

 Cycle   3  Pass 0  IDiag  1:
 E= -133.787309099833     Delta-E=       -0.006054098020 Rises=F Damp=F
 DIIS: error= 5.53D-03 at cycle   3 NSaved=   3.
 NSaved= 3 IEnMin= 3 EnMin= -133.787309099833     IErMin= 3 ErrMin= 5.53D-03
 ErrMax= 5.53D-03  0.00D+00 EMaxC= 1.00D-01 BMatC= 4.89D-03 BMatP= 1.26D-02
 IDIUse=3 WtCom= 9.45D-01 WtEn= 5.53D-02
 Coeff-Com: -0.155D-02 0.383D+00 0.619D+00
 Coeff-En:   0.000D+00 0.287D+00 0.713D+00
 Coeff:     -0.146D-02 0.378D+00 0.624D+00
 Gap=     0.434 Goal=   None    Shift=    0.000
 RMSDP=1.25D-03 MaxDP=5.53D-02 DE=-6.05D-03 OVMax= 2.03D-02

 Cycle   4  Pass 0  IDiag  1:
 E= -133.791414031943     Delta-E=       -0.004104932110 Rises=F Damp=F
 DIIS: error= 3.75D-04 at cycle   4 NSaved=   4.
 NSaved= 4 IEnMin= 4 EnMin= -133.791414031943     IErMin= 4 ErrMin= 3.75D-04
 ErrMax= 3.75D-04  0.00D+00 EMaxC= 1.00D-01 BMatC= 1.87D-05 BMatP= 4.89D-03
 IDIUse=3 WtCom= 9.96D-01 WtEn= 3.75D-03
 Coeff-Com: -0.228D-02 0.564D-01 0.130D+00 0.816D+00
 Coeff-En:   0.000D+00 0.000D+00 0.000D+00 0.100D+01
 Coeff:     -0.227D-02 0.562D-01 0.129D+00 0.817D+00
 Gap=     0.431 Goal=   None    Shift=    0.000
 RMSDP=7.02D-05 MaxDP=1.67D-03 DE=-4.10D-03 OVMax= 1.12D-03

 Cycle   5  Pass 0  IDiag  1:
 E= -133.791431975601     Delta-E=       -0.000017943658 Rises=F Damp=F
 DIIS: error= 9.22D-05 at cycle   5 NSaved=   5.
 NSaved= 5 IEnMin= 5 EnMin= -133.791431975601     IErMin= 5 ErrMin= 9.22D-05
 ErrMax= 9.22D-05  0.00D+00 EMaxC= 1.00D-01 BMatC= 5.90D-07 BMatP= 1.87D-05
 IDIUse=1 WtCom= 1.00D+00 WtEn= 0.00D+00
 Coeff-Com:  0.177D-03-0.288D-01-0.409D-01 0.799D-02 0.106D+01
 Coeff:      0.177D-03-0.288D-01-0.409D-01 0.799D-02 0.106D+01
 Gap=     0.431 Goal=   None    Shift=    0.000
 RMSDP=4.95D-05 MaxDP=2.52D-03 DE=-1.79D-05 OVMax= 4.97D-04

 Cycle   6  Pass 0  IDiag  1:
 E= -133.791433170873     Delta-E=       -0.000001195272 Rises=F Damp=F
 DIIS: error= 8.91D-06 at cycle   6 NSaved=   6.
 NSaved= 6 IEnMin= 6 EnMin= -133.791433170873     IErMin= 6 ErrMin= 8.91D-06
 ErrMax= 8.91D-06  0.00D+00 EMaxC= 1.00D-01 BMatC= 1.62D-08 BMatP= 5.90D-07
 IDIUse=1 WtCom= 1.00D+00 WtEn= 0.00D+00
 Coeff-Com:  0.442D-05-0.336D-02-0.587D-02-0.181D-01 0.788D-01 0.949D+00
 Coeff:      0.442D-05-0.336D-02-0.587D-02-0.181D-01 0.788D-01 0.949D+00
 Gap=     0.431 Goal=   None    Shift=    0.000
 RMSDP=1.08D-05 MaxDP=5.71D-04 DE=-1.20D-06 OVMax= 1.20D-04

 Cycle   7  Pass 0  IDiag  1:
 E= -133.791433209656     Delta-E=       -0.000000038783 Rises=F Damp=F
 DIIS: error= 5.56D-06 at cycle   7 NSaved=   7.
 NSaved= 7 IEnMin= 7 EnMin= -133.791433209656     IErMin= 7 ErrMin= 5.56D-06
 ErrMax= 5.56D-06  0.00D+00 EMaxC= 1.00D-01 BMatC= 3.92D-09 BMatP= 1.62D-08
 IDIUse=1 WtCom= 1.00D+00 WtEn= 0.00D+00
 Coeff-Com:  0.137D-04 0.136D-02 0.149D-02-0.748D-02-0.684D-01 0.295D+00
 Coeff-Com:  0.778D+00
 Coeff:      0.137D-04 0.136D-02 0.149D-02-0.748D-02-0.684D-01 0.295D+00
 Coeff:      0.778D+00
 Gap=     0.431 Goal=   None    Shift=    0.000
 RMSDP=3.29D-06 MaxDP=1.62D-04 DE=-3.88D-08 OVMax= 4.46D-05

 Initial convergence to 1.0D-05 achieved.  Increase integral accuracy.
 Cycle   8  Pass 1  IDiag  1:
 E= -133.791424530406     Delta-E=        0.000008679251 Rises=F Damp=F
 DIIS: error= 1.77D-05 at cycle   1 NSaved=   1.
 NSaved= 1 IEnMin= 1 EnMin= -133.791424530406     IErMin= 1 ErrMin= 1.77D-05
 ErrMax= 1.77D-05  0.00D+00 EMaxC= 1.00D-01 BMatC= 3.57D-08 BMatP= 3.57D-08
 IDIUse=1 WtCom= 1.00D+00 WtEn= 0.00D+00
 Coeff-Com:  0.100D+01
 Coeff:      0.100D+01
 Gap=     0.431 Goal=   None    Shift=    0.000
 RMSDP=3.29D-06 MaxDP=1.62D-04 DE= 8.68D-06 OVMax= 3.51D-05

 Cycle   9  Pass 1  IDiag  1:
 E= -133.791424560505     Delta-E=       -0.000000030099 Rises=F Damp=F
 DIIS: error= 3.41D-06 at cycle   2 NSaved=   2.
 NSaved= 2 IEnMin= 2 EnMin= -133.791424560505     IErMin= 2 ErrMin= 3.41D-06
 ErrMax= 3.41D-06  0.00D+00 EMaxC= 1.00D-01 BMatC= 1.09D-09 BMatP= 3.57D-08
 IDIUse=1 WtCom= 1.00D+00 WtEn= 0.00D+00
 Coeff-Com: -0.704D-02 0.101D+01
 Coeff:     -0.704D-02 0.101D+01
 Gap=     0.431 Goal=   None    Shift=    0.000
 RMSDP=1.06D-06 MaxDP=2.55D-05 DE=-3.01D-08 OVMax= 1.52D-05

 Cycle  10  Pass 1  IDiag  1:
 E= -133.791424561307     Delta-E=       -0.000000000802 Rises=F Damp=F
 DIIS: error= 1.82D-06 at cycle   3 NSaved=   3.
 NSaved= 3 IEnMin= 3 EnMin= -133.791424561307     IErMin= 3 ErrMin= 1.82D-06
 ErrMax= 1.82D-06  0.00D+00 EMaxC= 1.00D-01 BMatC= 5.17D-10 BMatP= 1.09D-09
 IDIUse=1 WtCom= 1.00D+00 WtEn= 0.00D+00
 Coeff-Com: -0.353D-01 0.409D+00 0.627D+00
 Coeff:     -0.353D-01 0.409D+00 0.627D+00
 Gap=     0.431 Goal=   None    Shift=    0.000
 RMSDP=2.96D-07 MaxDP=5.63D-06 DE=-8.02D-10 OVMax= 5.84D-06

 Cycle  11  Pass 1  IDiag  1:
 E= -133.791424561791     Delta-E=       -0.000000000485 Rises=F Damp=F
 DIIS: error= 2.68D-07 at cycle   4 NSaved=   4.
 NSaved= 4 IEnMin= 4 EnMin= -133.791424561791     IErMin= 4 ErrMin= 2.68D-07
 ErrMax= 2.68D-07  0.00D+00 EMaxC= 1.00D-01 BMatC= 1.29D-11 BMatP= 5.17D-10
 IDIUse=1 WtCom= 1.00D+00 WtEn= 0.00D+00
 Coeff-Com: -0.784D-02 0.413D-01 0.139D+00 0.827D+00
 Coeff:     -0.784D-02 0.413D-01 0.139D+00 0.827D+00
 Gap=     0.431 Goal=   None    Shift=    0.000
 RMSDP=1.59D-07 MaxDP=7.83D-06 DE=-4.85D-10 OVMax= 1.64D-06

 Cycle  12  Pass 1  IDiag  1:
 E= -133.791424561805     Delta-E=       -0.000000000013 Rises=F Damp=F
 DIIS: error= 1.56D-07 at cycle   5 NSaved=   5.
 NSaved= 5 IEnMin= 5 EnMin= -133.791424561805     IErMin= 5 ErrMin= 1.56D-07
 ErrMax= 1.56D-07  0.00D+00 EMaxC= 1.00D-01 BMatC= 2.89D-12 BMatP= 1.29D-11
 IDIUse=1 WtCom= 1.00D+00 WtEn= 0.00D+00
 Coeff-Com:  0.946D-03-0.277D-01-0.144D-01 0.324D+00 0.717D+00
 Coeff:      0.946D-03-0.277D-01-0.144D-01 0.324D+00 0.717D+00
 Gap=     0.431 Goal=   None    Shift=    0.000
 RMSDP=3.90D-08 MaxDP=1.56D-06 DE=-1.32D-11 OVMax= 9.28D-07

 Cycle  13  Pass 1  IDiag  1:
 E= -133.791424561809     Delta-E=       -0.000000000004 Rises=F Damp=F
 DIIS: error= 3.16D-08 at cycle   6 NSaved=   6.
 NSaved= 6 IEnMin= 6 EnMin= -133.791424561809     IErMin= 6 ErrMin= 3.16D-08
 ErrMax= 3.16D-08  0.00D+00 EMaxC= 1.00D-01 BMatC= 2.61D-13 BMatP= 2.89D-12
 IDIUse=1 WtCom= 1.00D+00 WtEn= 0.00D+00
 Coeff-Com:  0.123D-02-0.141D-01-0.224D-01 0.419D-03 0.230D+00 0.805D+00
 Coeff:      0.123D-02-0.141D-01-0.224D-01 0.419D-03 0.230D+00 0.805D+00
 Gap=     0.431 Goal=   None    Shift=    0.000
 RMSDP=3.25D-08 MaxDP=1.69D-06 DE=-4.26D-12 OVMax= 3.91D-07

 Cycle  14  Pass 1  IDiag  1:
 E= -133.791424561809     Delta-E=       -0.000000000000 Rises=F Damp=F
 DIIS: error= 1.16D-08 at cycle   7 NSaved=   7.
 NSaved= 7 IEnMin= 7 EnMin= -133.791424561809     IErMin= 7 ErrMin= 1.16D-08
 ErrMax= 1.16D-08  0.00D+00 EMaxC= 1.00D-01 BMatC= 9.84D-15 BMatP= 2.61D-13
 IDIUse=1 WtCom= 1.00D+00 WtEn= 0.00D+00
 Coeff-Com: -0.711D-04 0.253D-02 0.610D-03-0.319D-01-0.610D-01 0.179D-01
 Coeff-Com:  0.107D+01
 Coeff:     -0.711D-04 0.253D-02 0.610D-03-0.319D-01-0.610D-01 0.179D-01
 Coeff:      0.107D+01
 Gap=     0.431 Goal=   None    Shift=    0.000
 RMSDP=1.14D-08 MaxDP=6.09D-07 DE=-1.71D-13 OVMax= 1.91D-07

 Cycle  15  Pass 1  IDiag  1:
 E= -133.791424561808     Delta-E=        0.000000000001 Rises=F Damp=F
 DIIS: error= 2.29D-09 at cycle   8 NSaved=   8.
 NSaved= 8 IEnMin= 7 EnMin= -133.791424561809     IErMin= 8 ErrMin= 2.29D-09
 ErrMax= 2.29D-09  0.00D+00 EMaxC= 1.00D-01 BMatC= 3.98D-16 BMatP= 9.84D-15
 IDIUse=1 WtCom= 1.00D+00 WtEn= 0.00D+00
 Coeff-Com: -0.529D-04 0.425D-03 0.991D-03 0.380D-02-0.504D-02-0.506D-01
 Coeff-Com: -0.963D-01 0.115D+01
 Coeff:     -0.529D-04 0.425D-03 0.991D-03 0.380D-02-0.504D-02-0.506D-01
 Coeff:     -0.963D-01 0.115D+01
 Gap=     0.431 Goal=   None    Shift=    0.000
 RMSDP=2.65D-09 MaxDP=1.41D-07 DE= 1.36D-12 OVMax= 4.76D-08

 SCF Done:  E(RwB97XD) =  -133.791424562     A.U. after   15 cycles
            NFock= 15  Conv=0.27D-08     -V/T= 2.0119
 KE= 1.322240450387D+02 PE=-4.625873577314D+02 EE= 1.202324658260D+02
 Leave Link  502 at Sat Feb 12 21:40:29 2022, MaxMem=  8589934592 cpu:              34.0 elap:               4.6
 (Enter /home/rr/g16/l801.exe)
 DoSCS=F DFT=T ScalE2(SS,OS)=  1.000000  1.000000
 ExpMin= 6.71D-02 ExpMax= 1.71D+03 ExpMxC= 2.58D+02 IAcc=3 IRadAn=         5 AccDes= 0.00D+00
 HarFok:  IExCor=  205 AccDes= 0.00D+00 IRadAn=         5 IDoV=-2 UseB2=F ITyADJ=14
 ICtDFT= 12500011 ScaDFX=  1.000000  1.000000  1.000000  1.000000
 Largest valence mixing into a core orbital is  7.77D-05
 Largest core mixing into a valence orbital is  1.96D-05
 Range of M.O.s used for correlation:     4   100
 NBasis=   100 NAE=    12 NBE=    12 NFC=     3 NFV=     0
 NROrb=     97 NOA=     9 NOB=     9 NVA=    88 NVB=    88

 **** Warning!!: The largest alpha MO coefficient is  0.30808774D+02

 Leave Link  801 at Sat Feb 12 21:40:29 2022, MaxMem=  8589934592 cpu:               0.6 elap:               0.1
 (Enter /home/rr/g16/l914.exe)
 RHF ground state
 Keep R1, R2, and R3 ints in memory in canonical form, NReq=801733722.
 FoFCou: FMM=F IPFlag=           0 FMFlag=           0 FMFlg1=           0
         NFxFlg=           0 DoJE=F BraDBF=F KetDBF=F FulRan=T
         wScrn=  0.000000 ICntrl=       600 IOpCl=  0 I1Cent=           0 NGrid=           0
         NMat0=    1 NMatS0=   5050 NMatT0=    0 NMatD0=    1 NMtDS0=    0 NMtDT0=    0
 Symmetry not used in FoFCou.
 Two-electron integral symmetry not used.
 MDV=  8589934592 DFT=T DoStab=F Mixed=T DoRPA=T DoScal=F NonHer=T
 Making orbital integer symmetry assigments:
 Orbital symmetries:
       Occupied  (A) (A) (A) (A) (A) (A) (A) (A) (A) (A) (A) (A)
       Virtual   (A) (A) (A) (A) (A) (A) (A) (A) (A) (A) (A) (A)
                 (A) (A) (A) (A) (A) (A) (A) (A) (A) (A) (A) (A)
                 (A) (A) (A) (A) (A) (A) (A) (A) (A) (A) (A) (A)
                 (A) (A) (A) (A) (A) (A) (A) (A) (A) (A) (A) (A)
                 (A) (A) (A) (A) (A) (A) (A) (A) (A) (A) (A) (A)
                 (A) (A) (A) (A) (A) (A) (A) (A) (A) (A) (A) (A)
                 (A) (A) (A) (A) (A) (A) (A) (A) (A) (A) (A) (A)
                 (A) (A) (A) (A)
   792 initial guesses have been made.
 Convergence on wavefunction:    0.001000000000000
 Davidson Disk Diagonalization:  ConvIn= 1.00D-03 SkipCon=T Conv= 1.00D-03.
 Max sub-space:  4752 roots to seek:  1584 dimension of matrix:         1584
 *** WARNING: Number of orthogonal guesses is          792
 Iteration     1 Dimension   792 NMult     0 NNew    792
 CISAX will form   792 AO SS matrices at one time.
 NMat=   792 NSing=   792 JSym2X= 0.
 New state      2 was old state      3
 New state      3 was old state      2
 New state      5 was old state      6
 New state      6 was old state      5
 New state     11 was old state     12
 New state     12 was old state     14
 New state     13 was old state     11
 New state     14 was old state     15
 New state     15 was old state     13
 New state     16 was old state     17
 New state     17 was old state     18
 New state     18 was old state     16
 New state     19 was old state     20
 New state     20 was old state     19
 New state     21 was old state     23
 New state     22 was old state     27
 New state     23 was old state     21
 New state     24 was old state     22
 New state     25 was old state     31
 New state     26 was old state     24
 New state     27 was old state     25
 New state     28 was old state     30
 New state     29 was old state     26
 New state     30 was old state     28
 New state     31 was old state     29
 New state     32 was old state     33
 New state     33 was old state     34
 New state     34 was old state     36
 New state     35 was old state     32
 New state     36 was old state     37
 New state     37 was old state     35
 New state     39 was old state     41
 New state     40 was old state     46
 New state     41 was old state     39
 New state     43 was old state     40
 New state     44 was old state     43
 New state     46 was old state     47
 New state     47 was old state     50
 New state     48 was old state     44
 New state     49 was old state     48
 New state     50 was old state     51
 New state     51 was old state     49
 New state     52 was old state     55
 New state     53 was old state     57
 New state     54 was old state     56
 New state     55 was old state     66
 New state     56 was old state     53
 New state     57 was old state     59
 New state     58 was old state     52
 New state     59 was old state     58
 New state     60 was old state     54
 New state     62 was old state     63
 New state     63 was old state     64
 New state     64 was old state     62
 New state     66 was old state     67
 New state     67 was old state     60
 New state     68 was old state     69
 New state     69 was old state     70
 New state     70 was old state     71
 New state     71 was old state     74
 New state     72 was old state     68
 New state     73 was old state     87
 New state     74 was old state     77
 New state     75 was old state     72
 New state     76 was old state     73
 New state     77 was old state     79
 New state     79 was old state     82
 New state     81 was old state     75
 New state     82 was old state     76
 New state     83 was old state     81
 New state     84 was old state     85
 New state     85 was old state     86
 New state     86 was old state     83
 New state     87 was old state     91
 New state     88 was old state     84
 New state     89 was old state     88
 New state     91 was old state     89
 New state     94 was old state     97
 New state     95 was old state     96
 New state     96 was old state     99
 New state     97 was old state    104
 New state     98 was old state    100
 New state     99 was old state     98
 New state    100 was old state    102
 New state    101 was old state    109
 New state    102 was old state    107
 New state    103 was old state    101
 New state    104 was old state    105
 New state    105 was old state    103
 New state    106 was old state     95
 New state    107 was old state    111
 New state    108 was old state    115
 New state    109 was old state    110
 New state    110 was old state    112
 New state    111 was old state    106
 New state    112 was old state    118
 New state    113 was old state    116
 New state    114 was old state    108
 New state    115 was old state    117
 New state    116 was old state    122
 New state    117 was old state    113
 New state    118 was old state    129
 New state    119 was old state    125
 New state    120 was old state    124
 New state    121 was old state    126
 New state    122 was old state    133
 New state    123 was old state    119
 New state    124 was old state    121
 New state    125 was old state    114
 New state    126 was old state    123
 New state    127 was old state    120
 New state    129 was old state    147
 New state    130 was old state    131
 New state    131 was old state    127
 New state    132 was old state    135
 New state    133 was old state    130
 New state    134 was old state    132
 New state    135 was old state    137
 New state    136 was old state    138
 New state    137 was old state    140
 New state    138 was old state    136
 New state    139 was old state    144
 New state    140 was old state    139
 New state    141 was old state    134
 New state    142 was old state    145
 New state    143 was old state    151
 New state    144 was old state    141
 New state    145 was old state    142
 New state    146 was old state    149
 New state    147 was old state    146
 New state    148 was old state    150
 New state    149 was old state    157
 New state    150 was old state    152
 New state    151 was old state    161
 New state    152 was old state    158
 New state    153 was old state    154
 New state    154 was old state    155
 New state    155 was old state    148
 New state    157 was old state    153
 New state    158 was old state    162
 New state    160 was old state    163
 New state    161 was old state    172
 New state    162 was old state    160
 New state    163 was old state    166
 New state    165 was old state    170
 New state    166 was old state    165
 New state    168 was old state    173
 New state    169 was old state    174
 New state    170 was old state    168
 New state    171 was old state    183
 New state    172 was old state    180
 New state    173 was old state    176
 New state    174 was old state    178
 New state    175 was old state    171
 New state    176 was old state    169
 New state    177 was old state    181
 New state    178 was old state    175
 New state    179 was old state    196
 New state    180 was old state    177
 New state    181 was old state    184
 New state    183 was old state    179
 New state    184 was old state    186
 New state    185 was old state    192
 New state    186 was old state    185
 New state    187 was old state    193
 New state    188 was old state    187
 New state    189 was old state    190
 New state    190 was old state    197
 New state    191 was old state    189
 New state    192 was old state    199
 New state    193 was old state    195
 New state    194 was old state    188
 New state    195 was old state    191
 New state    196 was old state    214
 New state    197 was old state    194
 New state    199 was old state    203
 New state    201 was old state    209
 New state    202 was old state    201
 New state    203 was old state    202
 New state    204 was old state    205
 New state    205 was old state    206
 New state    206 was old state    207
 New state    207 was old state    211
 New state    208 was old state    215
 New state    209 was old state    210
 New state    210 was old state    204
 New state    211 was old state    212
 New state    212 was old state    228
 New state    213 was old state    208
 New state    214 was old state    216
 New state    215 was old state    217
 New state    216 was old state    213
 New state    217 was old state    224
 New state    218 was old state    219
 New state    219 was old state    220
 New state    220 was old state    222
 New state    221 was old state    223
 New state    222 was old state    226
 New state    223 was old state    218
 New state    224 was old state    221
 New state    225 was old state    231
 New state    226 was old state    230
 New state    227 was old state    225
 New state    228 was old state    227
 New state    229 was old state    234
 New state    230 was old state    229
 New state    231 was old state    237
 New state    232 was old state    233
 New state    233 was old state    236
 New state    234 was old state    241
 New state    235 was old state    232
 New state    236 was old state    239
 New state    237 was old state    238
 New state    238 was old state    235
 New state    239 was old state    244
 New state    240 was old state    242
 New state    241 was old state    243
 New state    242 was old state    252
 New state    243 was old state    240
 New state    244 was old state    247
 New state    246 was old state    248
 New state    247 was old state    246
 New state    248 was old state    249
 New state    249 was old state    251
 New state    250 was old state    256
 New state    251 was old state    263
 New state    252 was old state    259
 New state    253 was old state    254
 New state    254 was old state    250
 New state    255 was old state    253
 New state    256 was old state    261
 New state    257 was old state    255
 New state    259 was old state    257
 New state    261 was old state    265
 New state    262 was old state    267
 New state    263 was old state    266
 New state    265 was old state    275
 New state    266 was old state    281
 New state    267 was old state    269
 New state    268 was old state    262
 New state    269 was old state    273
 New state    270 was old state    274
 New state    271 was old state    272
 New state    272 was old state    268
 New state    273 was old state    278
 New state    274 was old state    271
 New state    275 was old state    284
 New state    276 was old state    285
 New state    277 was old state    270
 New state    278 was old state    279
 New state    279 was old state    276
 New state    281 was old state    290
 New state    282 was old state    283
 New state    283 was old state    277
 New state    284 was old state    282
 New state    285 was old state    298
 New state    286 was old state    289
 New state    287 was old state    324
 New state    288 was old state    286
 New state    289 was old state    287
 New state    290 was old state    288
 New state    291 was old state    292
 New state    292 was old state    291
 New state    293 was old state    295
 New state    294 was old state    293
 New state    295 was old state    294
 New state    296 was old state    297
 New state    297 was old state    302
 New state    298 was old state    304
 New state    299 was old state    296
 New state    300 was old state    301
 New state    301 was old state    300
 New state    302 was old state    299
 New state    303 was old state    308
 New state    304 was old state    303
 New state    305 was old state    307
 New state    307 was old state    311
 New state    308 was old state    309
 New state    309 was old state    313
 New state    310 was old state    315
 New state    311 was old state    305
 New state    312 was old state    318
 New state    313 was old state    312
 New state    314 was old state    316
 New state    315 was old state    320
 New state    316 was old state    314
 New state    317 was old state    310
 New state    318 was old state    317
 New state    320 was old state    328
 New state    321 was old state    326
 New state    322 was old state    321
 New state    324 was old state    327
 New state    325 was old state    322
 New state    326 was old state    325
 New state    327 was old state    336
 New state    328 was old state    333
 New state    330 was old state    340
 New state    331 was old state    330
 New state    332 was old state    331
 New state    333 was old state    334
 New state    334 was old state    339
 New state    335 was old state    332
 No map to state    336
 New state    337 was old state    335
 New state    338 was old state    342
 New state    339 was old state    350
 New state    340 was old state    337
 New state    341 was old state    343
 New state    342 was old state    346
 New state    343 was old state    338
 New state    344 was old state    341
 New state    346 was old state    349
 New state    347 was old state    344
 New state    348 was old state    357
 New state    349 was old state    348
 New state    350 was old state    356
 New state    352 was old state    347
 New state    353 was old state    358
 New state    354 was old state    353
 New state    356 was old state    352
 New state    357 was old state    359
 New state    358 was old state    354
 New state    359 was old state    362
 New state    360 was old state    364
 New state    361 was old state    366
 New state    362 was old state    360
 New state    363 was old state    361
 New state    364 was old state    363
 New state    365 was old state    368
 New state    366 was old state    365
 New state    367 was old state    374
 New state    368 was old state    377
 New state    370 was old state    378
 New state    371 was old state    367
 New state    372 was old state    382
 New state    373 was old state    380
 New state    374 was old state    371
 New state    375 was old state    376
 New state    376 was old state    372
 New state    377 was old state    370
 New state    378 was old state    381
 New state    380 was old state    373
 New state    381 was old state    384
 New state    382 was old state    386
 New state    383 was old state    387
 New state    384 was old state    375
 New state    385 was old state    391
 New state    386 was old state    383
 New state    387 was old state    394
 New state    388 was old state    397
 New state    389 was old state    393
 New state    390 was old state    389
 New state    391 was old state    385
 New state    392 was old state    396
 New state    393 was old state    390
 New state    394 was old state    392
 New state    395 was old state    399
 New state    396 was old state    398
 New state    397 was old state    411
 New state    398 was old state    400
 No map to state    399
 New state    400 was old state    395
 New state    402 was old state    406
 New state    403 was old state    413
 New state    404 was old state    407
 New state    405 was old state    404
 New state    406 was old state    410
 New state    407 was old state    403
 New state    408 was old state    412
 New state    409 was old state    402
 New state    410 was old state    405
 New state    411 was old state    409
 New state    412 was old state    408
 New state    413 was old state    424
 New state    414 was old state    415
 New state    415 was old state    414
 New state    416 was old state    417
 New state    417 was old state    419
 New state    418 was old state    416
 New state    419 was old state    422
 New state    420 was old state    423
 New state    422 was old state    418
 New state    423 was old state    420
 New state    424 was old state    428
 New state    426 was old state    430
 New state    427 was old state    429
 New state    428 was old state    427
 New state    429 was old state    426
 New state    430 was old state    431
 New state    431 was old state    434
 New state    432 was old state    433
 New state    433 was old state    432
 New state    434 was old state    442
 New state    435 was old state    437
 New state    436 was old state    438
 New state    437 was old state    435
 New state    438 was old state    436
 New state    439 was old state    440
 New state    440 was old state    439
 No map to state    441
 New state    442 was old state    445
 New state    443 was old state    449
 New state    445 was old state    446
 New state    446 was old state    447
 New state    447 was old state    443
 New state    448 was old state    441
 New state    449 was old state    448
 New state    450 was old state    455
 New state    451 was old state    450
 New state    452 was old state    456
 New state    453 was old state    454
 New state    454 was old state    453
 New state    455 was old state    451
 New state    456 was old state    457
 New state    457 was old state    452
 New state    459 was old state    460
 New state    460 was old state    459
 New state    464 was old state    468
 New state    467 was old state    464
 New state    468 was old state    467
 New state    469 was old state    470
 New state    470 was old state    469
 New state    471 was old state    475
 New state    472 was old state    471
 New state    473 was old state    472
 New state    475 was old state    473
 New state    476 was old state    477
 New state    477 was old state    478
 New state    478 was old state    476
 New state    479 was old state    481
 New state    481 was old state    479
 New state    482 was old state    483
 New state    483 was old state    482
 New state    484 was old state    485
 New state    485 was old state    489
 New state    487 was old state    493
 New state    489 was old state    487
 New state    490 was old state    491
 New state    491 was old state    492
 New state    492 was old state    490
 New state    493 was old state    484
 New state    495 was old state    496
 New state    496 was old state    495
 New state    497 was old state    498
 New state    498 was old state    497
 New state    499 was old state    500
 New state    500 was old state    499
 New state    502 was old state    504
 New state    503 was old state    502
 New state    504 was old state    506
 New state    505 was old state    503
 New state    506 was old state    509
 New state    507 was old state    508
 New state    508 was old state    505
 New state    509 was old state    507
 New state    510 was old state    511
 New state    511 was old state    514
 New state    512 was old state    510
 New state    513 was old state    515
 New state    514 was old state    512
 New state    515 was old state    513
 New state    516 was old state    517
 New state    517 was old state    518
 New state    518 was old state    516
 New state    519 was old state    520
 New state    520 was old state    519
 New state    524 was old state    526
 New state    525 was old state    528
 New state    526 was old state    524
 New state    527 was old state    525
 New state    528 was old state    527
 New state    529 was old state    530
 New state    530 was old state    531
 New state    531 was old state    529
 New state    532 was old state    533
 New state    533 was old state    532
 New state    535 was old state    536
 New state    536 was old state    535
 New state    537 was old state    540
 New state    538 was old state    539
 New state    539 was old state    537
 New state    540 was old state    541
 New state    541 was old state    538
 New state    546 was old state    548
 New state    547 was old state    546
 New state    548 was old state    547
 New state    549 was old state    550
 New state    550 was old state    549
 New state    553 was old state    554
 New state    554 was old state    553
 New state    555 was old state    558
 New state    556 was old state    555
 New state    557 was old state    556
 New state    558 was old state    561
 New state    559 was old state    562
 New state    560 was old state    557
 New state    561 was old state    560
 New state    562 was old state    559
 New state    564 was old state    565
 New state    565 was old state    564
 New state    566 was old state    568
 New state    567 was old state    566
 New state    568 was old state    567
 New state    572 was old state    573
 New state    573 was old state    572
 New state    574 was old state    576
 New state    576 was old state    574
 New state    577 was old state    579
 New state    579 was old state    580
 New state    580 was old state    577
 New state    584 was old state    586
 New state    586 was old state    584
 New state    587 was old state    588
 New state    588 was old state    587
 New state    590 was old state    591
 New state    591 was old state    590
 New state    594 was old state    597
 New state    596 was old state    594
 New state    597 was old state    598
 New state    598 was old state    596
 New state    601 was old state    604
 New state    602 was old state    601
 New state    603 was old state    605
 New state    604 was old state    602
 New state    605 was old state    606
 New state    606 was old state    603
 New state    608 was old state    610
 New state    610 was old state    608
 New state    611 was old state    613
 New state    612 was old state    611
 New state    613 was old state    612
 New state    614 was old state    615
 New state    615 was old state    616
 New state    616 was old state    614
 New state    619 was old state    620
 New state    620 was old state    621
 New state    621 was old state    623
 New state    622 was old state    619
 New state    623 was old state    622
 New state    624 was old state    625
 New state    625 was old state    624
 New state    626 was old state    629
 New state    628 was old state    626
 New state    629 was old state    628
 New state    630 was old state    631
 New state    631 was old state    630
 New state    635 was old state    637
 New state    636 was old state    638
 New state    637 was old state    635
 New state    638 was old state    639
 New state    639 was old state    636
 New state    641 was old state    642
 New state    642 was old state    643
 New state    643 was old state    641
 New state    644 was old state    645
 New state    645 was old state    644
 New state    646 was old state    647
 New state    647 was old state    648
 New state    648 was old state    646
 New state    653 was old state    655
 New state    655 was old state    653
 New state    658 was old state    659
 New state    659 was old state    658
 New state    660 was old state    661
 New state    661 was old state    660
 New state    666 was old state    668
 New state    667 was old state    666
 New state    668 was old state    669
 New state    669 was old state    670
 New state    670 was old state    667
 New state    673 was old state    674
 New state    674 was old state    673
 New state    678 was old state    679
 New state    679 was old state    678
 New state    681 was old state    683
 New state    683 was old state    681
 New state    694 was old state    695
 New state    695 was old state    696
 New state    696 was old state    694
 New state    697 was old state    699
 New state    699 was old state    697
 New state    703 was old state    705
 New state    705 was old state    706
 New state    706 was old state    707
 New state    707 was old state    703
 New state    708 was old state    709
 New state    709 was old state    708
 New state    711 was old state    712
 New state    712 was old state    711
 New state    721 was old state    722
 New state    722 was old state    723
 New state    723 was old state    721
 New state    728 was old state    729
 New state    729 was old state    730
 New state    730 was old state    728
 New state    733 was old state    734
 New state    734 was old state    733
 New state    739 was old state    740
 New state    740 was old state    741
 New state    741 was old state    739
 New state    742 was old state    743
 New state    743 was old state    742
 New state    746 was old state    749
 New state    748 was old state    746
 New state    749 was old state    748
 New state    754 was old state    755
 New state    755 was old state    754
 New state    756 was old state    757
 New state    757 was old state    758
 New state    758 was old state    756
 New state    762 was old state    763
 New state    763 was old state    762
 New state    767 was old state    768
 New state    768 was old state    767
 New state    770 was old state    771
 New state    771 was old state    770
 New state    772 was old state    775
 New state    774 was old state    772
 New state    775 was old state    774
 New state    776 was old state    778
 New state    778 was old state    776
 New state    779 was old state    780
 New state    780 was old state    781
 New state    781 was old state    779
 New state    788 was old state    789
 New state    789 was old state    788
 Excitation Energies [eV] at current iteration:
 Root      1 :     7.076694055378494
 Root      2 :     7.977090355750506
 Root      3 :     8.038254001942148
 Root      4 :     8.622858557118107
 Root      5 :     9.044085269004539
 Root      6 :     9.328563776314590
 Root      7 :     9.792467028462809
 Root      8 :     9.805499320430579
 Root      9 :    10.136388514882760
 Root     10 :    10.167414857399620
 Root     11 :    10.451915798804700
 Root     12 :    10.624688500329350
 Root     13 :    10.653917796984970
 Root     14 :    10.720031874087120
 Root     15 :    10.730388837607010
 Root     16 :    10.843620056409140
 Root     17 :    11.090346815699200
 Root     18 :    11.211566119385020
 Root     19 :    11.239227589100700
 Root     20 :    11.412562250145910
 Root     21 :    11.610316697907050
 Root     22 :    11.721620006552690
 Root     23 :    11.835702444555470
 Root     24 :    11.903364082264270
 Root     25 :    12.052783679403070
 Root     26 :    12.053055969514000
 Root     27 :    12.123346908319240
 Root     28 :    12.425708560177330
 Root     29 :    12.468396459601940
 Root     30 :    12.472808042258080
 Root     31 :    12.748292517659480
 Root     32 :    13.034105650034140
 Root     33 :    13.170992932139670
 Root     34 :    13.174115594935890
 Root     35 :    13.253849947537480
 Root     36 :    13.321793351951120
 Root     37 :    13.348003384313690
 Root     38 :    13.474910532104220
 Root     39 :    13.545823463223200
 Root     40 :    13.779419460633110
 Root     41 :    13.865313312638620
 Root     42 :    13.921825420681310
 Root     43 :    13.954059328222510
 Root     44 :    13.993968654151490
 Root     45 :    14.010961064331710
 Root     46 :    14.128613475302310
 Root     47 :    14.247561908512150
 Root     48 :    14.257024318448010
 Root     49 :    14.400935093574530
 Root     50 :    14.483124585429550
 Root     51 :    14.487417171982900
 Root     52 :    14.691061391950810
 Root     53 :    14.698407778282840
 Root     54 :    14.803983692630260
 Root     55 :    14.857367991123050
 Root     56 :    14.886434736395610
 Root     57 :    14.934832396845120
 Root     58 :    14.935898775912100
 Root     59 :    15.067675397213980
 Root     60 :    15.141932201942330
 Root     61 :    15.250829531736830
 Root     62 :    15.407000439738080
 Root     63 :    15.465537508484600
 Root     64 :    15.484609077067400
 Root     65 :    15.562217162759710
 Root     66 :    15.590606625642450
 Root     67 :    15.639541517125720
 Root     68 :    15.643107887130760
 Root     69 :    15.799582574029910
 Root     70 :    15.895095011270800
 Root     71 :    15.948974032441280
 Root     72 :    16.001297535382880
 Root     73 :    16.106507054533850
 Root     74 :    16.186285081852470
 Root     75 :    16.275486619332250
 Root     76 :    16.398091706138930
 Root     77 :    16.445328528420680
 Root     78 :    16.535361858420660
 Root     79 :    16.546435702241130
 Root     80 :    16.654591297457840
 Root     81 :    16.709532953001700
 Root     82 :    16.783437189494220
 Root     83 :    16.797018529155420
 Root     84 :    16.950430674442550
 Root     85 :    17.042391797148340
 Root     86 :    17.129198683199040
 Root     87 :    17.229346860869340
 Root     88 :    17.319384464478960
 Root     89 :    17.376357552900790
 Root     90 :    17.400755291939960
 Root     91 :    17.461449083885310
 Root     92 :    17.465472704744260
 Root     93 :    17.491784827248420
 Root     94 :    17.591303463551940
 Root     95 :    17.733848582595560
 Root     96 :    17.741901123181630
 Root     97 :    17.787125838491130
 Root     98 :    17.845383128581210
 Root     99 :    17.890185349068580
 Root    100 :    17.907690032596590
 Root    101 :    17.922662083460680
 Root    102 :    17.992386076080660
 Root    103 :    18.006154931799520
 Root    104 :    18.112812261526060
 Root    105 :    18.177200333868190
 Root    106 :    18.210339068364180
 Root    107 :    18.238773997374620
 Root    108 :    18.296887803751210
 Root    109 :    18.351032464232080
 Root    110 :    18.425073145247470
 Root    111 :    18.499856026636400
 Root    112 :    18.657636533346160
 Root    113 :    18.713728741131700
 Root    114 :    18.786510854610560
 Root    115 :    18.793624843486770
 Root    116 :    18.844226454344240
 Root    117 :    18.873233601139100
 Root    118 :    18.931981040739770
 Root    119 :    19.014613736733490
 Root    120 :    19.088586498960880
 Root    121 :    19.132874570801060
 Root    122 :    19.169379385489560
 Root    123 :    19.195205727536120
 Root    124 :    19.206929295861090
 Root    125 :    19.215924362288990
 Root    126 :    19.338774517425560
 Root    127 :    19.342396044046120
 Root    128 :    19.372417012184520
 Root    129 :    19.424067513559580
 Root    130 :    19.427126453934930
 Root    131 :    19.491680036142900
 Root    132 :    19.580476801026710
 Root    133 :    19.594286409080930
 Root    134 :    19.653935933331260
 Root    135 :    19.707043378108180
 Root    136 :    19.751234736079790
 Root    137 :    19.831319744917980
 Root    138 :    19.916949993136560
 Root    139 :    19.944958507918620
 Root    140 :    19.973535213052460
 Root    141 :    20.005645244799550
 Root    142 :    20.018469619497200
 Root    143 :    20.021346639511970
 Root    144 :    20.128948061632610
 Root    145 :    20.167558098850270
 Root    146 :    20.180628184779970
 Root    147 :    20.193381334462670
 Root    148 :    20.300736444664150
 Root    149 :    20.322161531353230
 Root    150 :    20.409786369518590
 Root    151 :    20.420282275456260
 Root    152 :    20.575970853649200
 Root    153 :    20.672544854437660
 Root    154 :    20.730525330057040
 Root    155 :    20.734173034499790
 Root    156 :    20.760316023657900
 Root    157 :    20.788499780577510
 Root    158 :    20.879305078649360
 Root    159 :    20.892000055430340
 Root    160 :    20.919061812316150
 Root    161 :    20.993650385818050
 Root    162 :    21.045675219377570
 Root    163 :    21.065342201418510
 Root    164 :    21.113052034136270
 Root    165 :    21.237571491263780
 Root    166 :    21.248870373183820
 Root    167 :    21.317350833654740
 Root    168 :    21.406015512866990
 Root    169 :    21.441656148502460
 Root    170 :    21.442916118763660
 Root    171 :    21.511090267811060
 Root    172 :    21.567994145025680
 Root    173 :    21.600172994804940
 Root    174 :    21.653138378500150
 Root    175 :    21.660895474917720
 Root    176 :    21.677503821363530
 Root    177 :    21.724342602384050
 Root    178 :    21.840003914238300
 Root    179 :    21.859249679819880
 Root    180 :    21.860387944704350
 Root    181 :    21.937100392459900
 Root    182 :    21.960206084804600
 Root    183 :    21.998740041778130
 Root    184 :    22.032790515075420
 Root    185 :    22.122074480389490
 Root    186 :    22.180036689836900
 Root    187 :    22.251198166708740
 Root    188 :    22.298258231615220
 Root    189 :    22.311353541208190
 Root    190 :    22.364551774752580
 Root    191 :    22.382637464605760
 Root    192 :    22.438844516641180
 Root    193 :    22.456360678120780
 Root    194 :    22.589366653407310
 Root    195 :    22.605277728013990
 Root    196 :    22.745869764690550
 Root    197 :    22.775672498158760
 Root    198 :    22.830088138587270
 Root    199 :    22.905905225501510
 Root    200 :    22.977227604919220
 Root    201 :    22.979651874277380
 Root    202 :    23.061954453082440
 Root    203 :    23.124240023832190
 Root    204 :    23.124951455163260
 Root    205 :    23.214809492771010
 Root    206 :    23.235368262177170
 Root    207 :    23.315080770312680
 Root    208 :    23.444127091339020
 Root    209 :    23.469947477397210
 Root    210 :    23.486495443755250
 Root    211 :    23.560800072796780
 Root    212 :    23.578416433804250
 Root    213 :    23.631757453008100
 Root    214 :    23.634522683965590
 Root    215 :    23.674517636886770
 Root    216 :    23.739526045393170
 Root    217 :    23.925025276328120
 Root    218 :    23.986314212134170
 Root    219 :    24.051215015973350
 Root    220 :    24.140872143939240
 Root    221 :    24.209155129232090
 Root    222 :    24.259977212661110
 Root    223 :    24.275430463738370
 Root    224 :    24.343945344166270
 Root    225 :    24.384985716658830
 Root    226 :    24.487953968512240
 Root    227 :    24.511070847261240
 Root    228 :    24.547171107293270
 Root    229 :    24.651458805618380
 Root    230 :    24.688945398854790
 Root    231 :    24.751498665321680
 Root    232 :    24.783689828006040
 Root    233 :    24.967968857251720
 Root    234 :    25.027093598964930
 Root    235 :    25.107324146006300
 Root    236 :    25.146185032968620
 Root    237 :    25.185743007101390
 Root    238 :    25.211914574558900
 Root    239 :    25.216651867772440
 Root    240 :    25.299157210359070
 Root    241 :    25.303101200572770
 Root    242 :    25.384186587365220
 Root    243 :    25.482602900190010
 Root    244 :    25.484984939680610
 Root    245 :    25.629007643445660
 Root    246 :    25.692590440306090
 Root    247 :    25.700522051196450
 Root    248 :    25.770767935647810
 Root    249 :    25.797063176811370
 Root    250 :    25.820057483752130
 Root    251 :    25.955866861489190
 Root    252 :    25.965386128697110
 Root    253 :    26.084365605674110
 Root    254 :    26.296801691174450
 Root    255 :    26.412428127369750
 Root    256 :    26.471560340578930
 Root    257 :    26.492077864278790
 Root    258 :    26.573100697054140
 Root    259 :    26.639832359638550
 Root    260 :    26.641218120415540
 Root    261 :    26.666663770271250
 Root    262 :    26.701935997492590
 Root    263 :    26.829964895776240
 Root    264 :    26.891638482620580
 Root    265 :    26.945353047484470
 Root    266 :    26.951429948850350
 Root    267 :    26.997528682629520
 Root    268 :    27.000146301181950
 Root    269 :    27.193999309454700
 Root    270 :    27.198213141306470
 Root    271 :    27.312464889068990
 Root    272 :    27.349825541038150
 Root    273 :    27.441059912319290
 Root    274 :    27.503700595226600
 Root    275 :    27.536352335230880
 Root    276 :    27.589508809806510
 Root    277 :    27.630621547925130
 Root    278 :    27.657397996486890
 Root    279 :    27.787269678695810
 Root    280 :    27.817601304266100
 Root    281 :    27.818726172705480
 Root    282 :    27.911390254929010
 Root    283 :    27.955635848742520
 Root    284 :    28.008566916391970
 Root    285 :    28.157694071545420
 Root    286 :    28.286065318753490
 Root    287 :    28.286400002911770
 Root    288 :    28.349769808276840
 Root    289 :    28.476993420365430
 Root    290 :    28.604764193956990
 Root    291 :    28.725918901413510
 Root    292 :    28.814324994221860
 Root    293 :    28.906881973060640
 Root    294 :    29.055074838268780
 Root    295 :    29.102497769299760
 Root    296 :    29.129344509746960
 Root    297 :    29.142169208640830
 Root    298 :    29.183134675631190
 Root    299 :    29.275313948961650
 Root    300 :    29.324089823801180
 Root    301 :    29.358818713082500
 Root    302 :    29.386608251265700
 Root    303 :    29.497580900089080
 Root    304 :    29.510701390612570
 Root    305 :    29.581120403581220
 Root    306 :    29.742922210628930
 Root    307 :    29.799506702689840
 Root    308 :    29.803022082286340
 Root    309 :    29.899674684288950
 Root    310 :    29.990686634050460
 Root    311 :    30.144216444646940
 Root    312 :    30.204971032124740
 Root    313 :    30.210748135581000
 Root    314 :    30.287890528373610
 Root    315 :    30.319211570873200
 Root    316 :    30.370029492166470
 Root    317 :    30.472078877907690
 Root    318 :    30.516468621626520
 Root    319 :    30.556970724646550
 Root    320 :    30.616107162340630
 Root    321 :    30.829965282066950
 Root    322 :    30.916567031379990
 Root    323 :    31.022100905139340
 Root    324 :    31.031267560192650
 Root    325 :    31.098174608493210
 Root    326 :    31.241844121559780
 Root    327 :    31.295949761428740
 Root    328 :    31.351200406859430
 Root    329 :    31.387560228816140
 Root    330 :    31.405771764784770
 Root    331 :    31.514905973943310
 Root    332 :    31.595531668526330
 Root    333 :    31.633259985609870
 Root    334 :    31.785232778582920
 Root    335 :    31.788939237483320
 Root    336 :    31.929301466342450
 Root    337 :    32.037199143856670
 Root    338 :    32.162335828464440
 Root    339 :    32.162985363491270
 Root    340 :    32.415629967120310
 Root    341 :    32.484290871591210
 Root    342 :    32.506157416364970
 Root    343 :    32.577534207216960
 Root    344 :    32.802157187641870
 Root    345 :    32.834058836722390
 Root    346 :    32.867684110421180
 Root    347 :    32.879401728934080
 Root    348 :    32.978881987271960
 Root    349 :    33.198142788285880
 Root    350 :    33.207179459536770
 Root    351 :    33.340521586253090
 Root    352 :    33.437417143804290
 Root    353 :    33.528719328352000
 Root    354 :    33.539540315811910
 Root    355 :    33.627156822571970
 Root    356 :    33.638180071714030
 Root    357 :    33.724374198178420
 Root    358 :    33.765674675782170
 Root    359 :    33.794221900628390
 Root    360 :    34.001101749876350
 Root    361 :    34.210504734858490
 Root    362 :    34.301859127720520
 Root    363 :    34.379834034200880
 Root    364 :    34.406556567659150
 Root    365 :    34.593301982851450
 Root    366 :    34.684664517802990
 Root    367 :    34.713447762996110
 Root    368 :    34.987585236351240
 Root    369 :    35.056491836359120
 Root    370 :    35.079923542968280
 Root    371 :    35.149075039197560
 Root    372 :    35.272749547050400
 Root    373 :    35.354954019785690
 Root    374 :    35.470110919046330
 Root    375 :    35.492033297025010
 Root    376 :    35.547259275834740
 Root    377 :    35.560870319236120
 Root    378 :    35.597160172431820
 Root    379 :    35.712184288435520
 Root    380 :    35.817607530043970
 Root    381 :    35.858422119341040
 Root    382 :    36.251469565996490
 Root    383 :    36.269401670965490
 Root    384 :    36.324129573382630
 Root    385 :    36.470942799822950
 Root    386 :    36.532506992842260
 Root    387 :    36.711151830813470
 Root    388 :    36.732584754465660
 Root    389 :    36.835616344030150
 Root    390 :    36.943069128597470
 Root    391 :    37.066197118359970
 Root    392 :    37.131386861803260
 Root    393 :    37.271764868246120
 Root    394 :    37.394942585643640
 Root    395 :    37.400467876429620
 Root    396 :    37.424724422987150
 Root    397 :    37.597157708822700
 Root    398 :    37.684957187978070
 Root    399 :    37.695951044137790
 Root    400 :    37.723831363738290
 Root    401 :    38.028839125422280
 Root    402 :    38.098968160083070
 Root    403 :    38.151671466168500
 Root    404 :    38.250096214199080
 Root    405 :    38.277727332513930
 Root    406 :    38.485905202540090
 Root    407 :    38.536980227482370
 Root    408 :    38.594053167856990
 Root    409 :    38.687689308752990
 Root    410 :    38.724975242987180
 Root    411 :    38.773711995209620
 Root    412 :    38.886419767704890
 Root    413 :    38.979061219152610
 Root    414 :    39.065705836900520
 Root    415 :    39.302034064698790
 Root    416 :    39.422343530050870
 Root    417 :    39.428490359939300
 Root    418 :    39.492798834447070
 Root    419 :    39.628266808955340
 Root    420 :    39.678729333452470
 Root    421 :    39.760435726398140
 Root    422 :    39.851390504524890
 Root    423 :    39.925383469085770
 Root    424 :    40.252574013901840
 Root    425 :    40.362940706861100
 Root    426 :    40.609797012272770
 Root    427 :    40.625904491494860
 Root    428 :    40.685726890091050
 Root    429 :    40.711749692270350
 Root    430 :    40.908931585623150
 Root    431 :    41.021699934748230
 Root    432 :    41.062133540657980
 Root    433 :    41.175708897873020
 Root    434 :    41.193976441122910
 Root    435 :    41.499907621845270
 Root    436 :    41.553034455284250
 Root    437 :    41.611378731103090
 Root    438 :    41.700908396009070
 Root    439 :    42.012312259274000
 Root    440 :    42.027178053276510
 Root    441 :    42.080319543376420
 Root    442 :    42.178154263038220
 Root    443 :    42.190179887128500
 Root    444 :    42.328134403707540
 Root    445 :    42.566496087548270
 Root    446 :    42.742534855256400
 Root    447 :    42.797576581851350
 Root    448 :    42.982802337954030
 Root    449 :    42.994736212886050
 Root    450 :    43.370707233592260
 Root    451 :    43.465527440909360
 Root    452 :    43.525095616420440
 Root    453 :    43.742843069978600
 Root    454 :    43.792247707937000
 Root    455 :    43.843908730260580
 Root    456 :    44.152688161492180
 Root    457 :    44.390479838265750
 Root    458 :    44.503183432976020
 Root    459 :    44.594393941556790
 Root    460 :    44.678777207347710
 Root    461 :    44.969648826183230
 Root    462 :    45.049493747842060
 Root    463 :    45.178661871372770
 Root    464 :    45.357312455699250
 Root    465 :    45.638135514464080
 Root    466 :    45.910305434417360
 Root    467 :    46.072191209254520
 Root    468 :    46.206608254240080
 Root    469 :    46.254648455616620
 Root    470 :    46.412295665722870
 Root    471 :    46.618323141586480
 Root    472 :    46.862543593596090
 Root    473 :    46.940635334151620
 Root    474 :    47.194206143710110
 Root    475 :    47.316055305682480
 Root    476 :    47.548832123661270
 Root    477 :    47.599705333852330
 Root    478 :    47.734271322404130
 Root    479 :    47.935908853641220
 Root    480 :    48.222061084356210
 Root    481 :    48.242343025067790
 Root    482 :    48.685568131173650
 Root    483 :    48.732458135973250
 Root    484 :    48.791724213259840
 Root    485 :    49.023581866695100
 Root    486 :    49.070423699863180
 Root    487 :    49.231803189580730
 Root    488 :    49.330123514357520
 Root    489 :    49.468101528486140
 Root    490 :    49.577530880378650
 Root    491 :    49.695549298944980
 Root    492 :    49.781883998561420
 Root    493 :    49.856844908605610
 Root    494 :    50.116874509557530
 Root    495 :    50.277726629673820
 Root    496 :    50.463731652535720
 Root    497 :    50.716132516680080
 Root    498 :    50.923399273930930
 Root    499 :    51.244868735656770
 Root    500 :    51.310328751623320
 Root    501 :    51.378257762678390
 Root    502 :    51.822163111016780
 Root    503 :    51.866233559779420
 Root    504 :    51.935727452987090
 Root    505 :    52.109067841948000
 Root    506 :    52.265132361942340
 Root    507 :    52.266741641244090
 Root    508 :    52.485540365815540
 Root    509 :    52.551998899071480
 Root    510 :    52.700360219494950
 Root    511 :    52.853094555980480
 Root    512 :    52.939359423864910
 Root    513 :    53.160167276412220
 Root    514 :    53.184462041682830
 Root    515 :    53.238505882393910
 Root    516 :    53.366472991134290
 Root    517 :    53.570725075564560
 Root    518 :    53.696608685752140
 Root    519 :    53.924726259896420
 Root    520 :    54.069438456880340
 Root    521 :    54.150049949760580
 Root    522 :    54.461927468584780
 Root    523 :    54.672898947906080
 Root    524 :    54.861173785376760
 Root    525 :    55.117827628845180
 Root    526 :    55.134376753645040
 Root    527 :    55.325679438827820
 Root    528 :    55.534555160873810
 Root    529 :    55.604369552966280
 Root    530 :    55.713743547601560
 Root    531 :    55.878695440150600
 Root    532 :    55.993567269719240
 Root    533 :    56.086545821824310
 Root    534 :    56.427127715922000
 Root    535 :    56.536969021560240
 Root    536 :    56.609327944311520
 Root    537 :    56.694839494661860
 Root    538 :    56.735514001226800
 Root    539 :    56.737534365881530
 Root    540 :    56.764649121454130
 Root    541 :    56.988000037958110
 Root    542 :    57.118206242577740
 Root    543 :    57.315666903484870
 Root    544 :    57.472306435580980
 Root    545 :    57.563259811593320
 Root    546 :    57.824162654375260
 Root    547 :    57.960614962428440
 Root    548 :    57.978751285811800
 Root    549 :    58.259934044250470
 Root    550 :    58.314248917273190
 Root    551 :    58.318666115132340
 Root    552 :    58.427096516520340
 Root    553 :    58.904329872135500
 Root    554 :    59.000619231481070
 Root    555 :    59.054939373168080
 Root    556 :    59.250811308502580
 Root    557 :    59.288898735605680
 Root    558 :    59.516590271268490
 Root    559 :    59.654202997551720
 Root    560 :    59.839787864530380
 Root    561 :    59.864322955393060
 Root    562 :    59.927349990821820
 Root    563 :    60.257649611916500
 Root    564 :    60.413229196657210
 Root    565 :    60.540267327048920
 Root    566 :    60.767148078632370
 Root    567 :    60.925571089493030
 Root    568 :    60.937285128837620
 Root    569 :    61.295098431013670
 Root    570 :    61.429066818763410
 Root    571 :    61.477905141021510
 Root    572 :    61.657632142361830
 Root    573 :    61.733318061080180
 Root    574 :    61.918890311442230
 Root    575 :    62.002670699018670
 Root    576 :    62.141841310559150
 Root    577 :    62.155951788515780
 Root    578 :    62.368037955868120
 Root    579 :    62.473072830513620
 Root    580 :    62.599036721111420
 Root    581 :    62.872772119850920
 Root    582 :    62.909256732627440
 Root    583 :    62.956868273162160
 Root    584 :    63.152999722011660
 Root    585 :    63.232656381124880
 Root    586 :    63.347321343653550
 Root    587 :    63.479362444319830
 Root    588 :    63.572903137360310
 Root    589 :    63.790845643626600
 Root    590 :    64.500701067141970
 Root    591 :    64.552940641238990
 Root    592 :    64.691990914555330
 Root    593 :    64.854504451446270
 Root    594 :    64.929840516965210
 Root    595 :    64.963783193156230
 Root    596 :    65.020967814215450
 Root    597 :    65.153789612534770
 Root    598 :    65.270878166898410
 Root    599 :    65.332674853510620
 Root    600 :    65.566280575722980
 Root    601 :    65.585548181819600
 Root    602 :    65.619906608807880
 Root    603 :    65.853667328173240
 Root    604 :    65.893283289435050
 Root    605 :    66.086243808483300
 Root    606 :    66.104614700006810
 Root    607 :    66.367890465825510
 Root    608 :    66.499204183717890
 Root    609 :    66.555073481822900
 Root    610 :    66.722481939096030
 Root    611 :    66.889988046373250
 Root    612 :    66.917123114214790
 Root    613 :    67.101883382007700
 Root    614 :    67.131377983521530
 Root    615 :    67.248613132942320
 Root    616 :    67.327609588566010
 Root    617 :    67.630156860269410
 Root    618 :    67.709826882696220
 Root    619 :    68.069945176325670
 Root    620 :    68.160997922990280
 Root    621 :    68.209968583229770
 Root    622 :    68.265878238474100
 Root    623 :    68.332035338635320
 Root    624 :    68.394647959734100
 Root    625 :    68.649027969956550
 Root    626 :    69.095761665966690
 Root    627 :    69.168147790982740
 Root    628 :    69.172795629976140
 Root    629 :    69.303278761055110
 Root    630 :    69.454520584665600
 Root    631 :    69.530963733617990
 Root    632 :    70.026229045642490
 Root    633 :    70.127012521661230
 Root    634 :    70.248743747597620
 Root    635 :    70.434691176021120
 Root    636 :    70.564760056176680
 Root    637 :    70.732541396158000
 Root    638 :    70.738001559129930
 Root    639 :    70.956629995352330
 Root    640 :    71.016775410528920
 Root    641 :    71.215887139748060
 Root    642 :    71.263446227222230
 Root    643 :    71.305475696687960
 Root    644 :    71.670171478564500
 Root    645 :    71.831365311822890
 Root    646 :    71.895494030155930
 Root    647 :    72.363818746126240
 Root    648 :    72.483934003166380
 Root    649 :    73.163770469560460
 Root    650 :    73.177803327821420
 Root    651 :    73.334298679316890
 Root    652 :    73.337813910106730
 Root    653 :    73.411350012413410
 Root    654 :    73.530533056167800
 Root    655 :    73.640362269707070
 Root    656 :    73.867293703697260
 Root    657 :    74.025750606056650
 Root    658 :    74.230558701598550
 Root    659 :    74.274856274150750
 Root    660 :    74.380365454373660
 Root    661 :    74.496558370885780
 Root    662 :    74.781804713506770
 Root    663 :    74.952127542014130
 Root    664 :    75.196354211757000
 Root    665 :    75.342415232391690
 Root    666 :    75.550687471778570
 Root    667 :    75.690981586312250
 Root    668 :    75.772170560073310
 Root    669 :    76.033776850352960
 Root    670 :    76.052907553568830
 Root    671 :    76.167028249881110
 Root    672 :    76.253503433288300
 Root    673 :    76.385937456662870
 Root    674 :    76.517036104255110
 Root    675 :    76.750227588809390
 Root    676 :    77.058865498617640
 Root    677 :    77.290679380747050
 Root    678 :    78.376557199842030
 Root    679 :    78.459542286901540
 Root    680 :    78.545355094263000
 Root    681 :    78.986131714647580
 Root    682 :    79.018343454567540
 Root    683 :    79.143804998408440
 Root    684 :    79.446140949944750
 Root    685 :    79.544945579388890
 Root    686 :    79.641515672284060
 Root    687 :    79.819412800853200
 Root    688 :    80.514579746568940
 Root    689 :    80.816936716639420
 Root    690 :    80.880415978430630
 Root    691 :    81.109042673283650
 Root    692 :    81.346324233265110
 Root    693 :    81.686272861159000
 Root    694 :    81.950122414512480
 Root    695 :    82.153289225209790
 Root    696 :    82.329104723922000
 Root    697 :    82.365679004789580
 Root    698 :    82.589947444828580
 Root    699 :    82.758503195355020
 Root    700 :    83.099325920185580
 Root    701 :    83.218487126589910
 Root    702 :    83.426924641832930
 Root    703 :    83.926937198973830
 Root    704 :    84.027155020623570
 Root    705 :    84.223930393189110
 Root    706 :    84.295243291711640
 Root    707 :    84.305421869057370
 Root    708 :    84.512122963115730
 Root    709 :    84.592419064111010
 Root    710 :    84.875850267182930
 Root    711 :    85.162726233028810
 Root    712 :    85.283079504798420
 Root    713 :    85.818553076244970
 Root    714 :    85.842072168812010
 Root    715 :    86.061132241711010
 Root    716 :    86.453363334995090
 Root    717 :    86.890947606824160
 Root    718 :    87.189747728634910
 Root    719 :    87.496999571249940
 Root    720 :    87.603271718556200
 Root    721 :    87.852718923122400
 Root    722 :    87.922551246332600
 Root    723 :    88.076119308494090
 Root    724 :    88.291371813537820
 Root    725 :    88.778299757820250
 Root    726 :    89.076616591459710
 Root    727 :    89.380836529581740
 Root    728 :    89.649939154455880
 Root    729 :    89.836392260722160
 Root    730 :    89.985273321081980
 Root    731 :    90.034330510880370
 Root    732 :    90.152250940251960
 Root    733 :    90.504087638841430
 Root    734 :    90.610943954593130
 Root    735 :    90.923497720287560
 Root    736 :    91.074539095234370
 Root    737 :    91.238018914749320
 Root    738 :    91.727259093599020
 Root    739 :    91.942005953559170
 Root    740 :    92.056944389184080
 Root    741 :    92.068706892094470
 Root    742 :    92.109489060667470
 Root    743 :    92.532398476664650
 Root    744 :    92.775080524417860
 Root    745 :    92.981017182874710
 Root    746 :    93.176445707977340
 Root    747 :    93.285918431963590
 Root    748 :    93.305789494668940
 Root    749 :    93.645320156829670
 Root    750 :    93.861924671269690
 Root    751 :    93.952340531619090
 Root    752 :    94.341079190182000
 Root    753 :    94.869373726290020
 Root    754 :    95.341303901092940
 Root    755 :    95.397015011038310
 Root    756 :    95.614720467724070
[...]
      5  -0.155324D+00  0.000000D+00 -0.118094D+00  0.149288D+00 -0.500845D-02
      6   0.000000D+00  0.780081D-01  0.000000D+00  0.000000D+00  0.000000D+00
      7   0.000000D+00  0.410615D-01  0.000000D+00  0.000000D+00  0.000000D+00
      8   0.000000D+00  0.135392D+00  0.000000D+00  0.000000D+00  0.000000D+00
      9   0.176646D-01  0.000000D+00 -0.123729D+00 -0.169910D+00  0.129986D+00
     10  -0.187063D+00  0.127623D-05 -0.419852D+00 -0.459133D+00 -0.405291D-01
     11   0.000000D+00  0.420430D+00  0.000000D+00  0.000000D+00  0.000000D+00
     12  -0.129177D-05 -0.862380D+00 -0.103745D-05  0.000000D+00 -0.107237D-05
     13   0.000000D+00  0.390541D-01  0.000000D+00  0.000000D+00  0.109897D-05
     14   0.357573D+00 -0.137197D-05  0.812171D-01  0.611665D+00 -0.289640D-01
     15  -0.152203D+00  0.000000D+00 -0.504672D-01  0.679195D-01  0.266918D-01
     16   0.000000D+00  0.397421D+00 -0.112092D-05  0.000000D+00  0.000000D+00
               726           727           728           729           730 
      1  -0.130518D+03 -0.130507D+03 -0.130497D+03 -0.130490D+03 -0.130485D+03
      2   0.820948D-02  0.105299D+00  0.000000D+00  0.000000D+00  0.000000D+00
      3   0.000000D+00  0.000000D+00  0.831761D-02 -0.257425D-01  0.505953D-01
      4   0.000000D+00  0.000000D+00  0.843210D-02 -0.528566D-01  0.651358D-01
      5  -0.286651D-01 -0.314202D+00  0.000000D+00  0.000000D+00  0.000000D+00
      6   0.000000D+00  0.000000D+00 -0.759215D-02  0.749570D-01 -0.144585D+00
      7   0.000000D+00  0.000000D+00 -0.443176D-01  0.166298D+00 -0.203425D+00
      8   0.000000D+00  0.000000D+00 -0.166767D+00  0.293647D+00 -0.464139D+00
      9   0.162567D+00 -0.874048D-01  0.000000D+00  0.000000D+00  0.000000D+00
     10   0.473985D-01  0.735273D-01  0.000000D+00  0.000000D+00  0.000000D+00
     11   0.000000D+00  0.000000D+00  0.147711D+00 -0.125765D+00  0.274060D+00
     12   0.000000D+00  0.000000D+00  0.267464D-01  0.100969D+00 -0.375560D+00
     13   0.000000D+00  0.000000D+00 -0.370339D-01 -0.233729D+00  0.635161D+00
     14  -0.118400D+00 -0.718759D-01  0.000000D+00  0.000000D+00  0.000000D+00
     15   0.232719D-01  0.346109D+00  0.000000D+00  0.000000D+00  0.000000D+00
     16   0.000000D+00  0.000000D+00 -0.125224D+00  0.477583D+00 -0.573882D+00
               731           732           733           734           735 
      1  -0.130483D+03 -0.130478D+03 -0.130465D+03 -0.130462D+03 -0.130450D+03
      2  -0.492939D-01  0.000000D+00  0.000000D+00  0.000000D+00 -0.478454D-01
      3   0.000000D+00 -0.212195D-01 -0.916072D-02 -0.942496D-02  0.000000D+00
      4   0.000000D+00  0.122451D+00 -0.826321D-02  0.629994D-01  0.000000D+00
      5   0.164339D+00  0.000000D+00  0.000000D+00  0.000000D+00  0.148789D+00
      6   0.000000D+00  0.719499D-01 -0.616696D-03  0.454370D-01  0.000000D+00
      7   0.000000D+00 -0.349137D+00  0.297506D-01 -0.183603D+00  0.000000D+00
      8   0.000000D+00 -0.142178D+00  0.249882D-01  0.544787D-01 -0.113594D-05
      9   0.610323D-01  0.000000D+00  0.000000D+00  0.000000D+00 -0.299149D-01
     10   0.407762D+00  0.000000D+00  0.000000D+00  0.000000D+00 -0.181058D+00
     11   0.000000D+00 -0.947482D-01 -0.462686D+00 -0.321865D+00 -0.117508D-05
     12   0.103303D-05 -0.142150D+00 -0.176090D+00  0.287907D+00  0.000000D+00
     13   0.000000D+00  0.102345D+00  0.428685D-01  0.158620D+00  0.000000D+00
     14   0.664916D-01  0.000000D+00  0.000000D+00  0.000000D+00  0.154748D+00
     15  -0.144464D+00  0.000000D+00  0.000000D+00  0.000000D+00 -0.240450D-01
     16   0.000000D+00 -0.248334D+00  0.174490D+00  0.335127D-01 -0.155128D-05
               736           737           738           739           740 
      1  -0.130444D+03 -0.130438D+03 -0.130421D+03 -0.130413D+03 -0.130408D+03
      2   0.000000D+00 -0.159206D+00  0.000000D+00  0.000000D+00  0.000000D+00
      3   0.615605D-01  0.000000D+00 -0.369062D-02 -0.184264D-01  0.477956D-02
      4   0.107550D+00  0.000000D+00 -0.460188D-01  0.230608D-01 -0.295303D-01
      5   0.100879D-05  0.474650D+00  0.000000D+00  0.000000D+00  0.000000D+00
      6  -0.182825D+00  0.000000D+00  0.694723D-02  0.501377D-01 -0.281121D-01
      7  -0.300160D+00  0.000000D+00  0.133777D+00 -0.714142D-01  0.998881D-01
      8   0.222739D+00  0.000000D+00  0.103041D+00 -0.141430D+00  0.127791D+00
      9   0.000000D+00 -0.664539D-01  0.000000D+00  0.000000D+00  0.000000D+00
     10   0.000000D+00 -0.483533D+00  0.000000D+00  0.000000D+00  0.000000D+00
     11   0.223507D+00  0.000000D+00  0.184894D+00 -0.414447D+00  0.131469D+00
     12  -0.875787D-01  0.000000D+00  0.259696D+00 -0.521483D-01 -0.736362D+00
     13  -0.271195D-02  0.000000D+00  0.140896D-01 -0.114512D-01 -0.183306D+00
     14   0.000000D+00  0.675002D+00  0.000000D+00  0.000000D+00  0.000000D+00
     15   0.000000D+00 -0.989153D-01  0.000000D+00  0.000000D+00  0.000000D+00
     16   0.236006D+00  0.000000D+00  0.207557D-01 -0.278459D+00  0.277391D+00
               741           742           743           744           745 
      1  -0.130408D+03 -0.130406D+03 -0.130391D+03 -0.130382D+03 -0.130374D+03
      2   0.000000D+00 -0.399618D-01  0.236353D-01  0.401980D-01  0.668607D-02
      3  -0.582078D-01  0.000000D+00  0.000000D+00  0.000000D+00  0.000000D+00
      4  -0.584682D-01  0.000000D+00  0.000000D+00  0.000000D+00  0.000000D+00
      5   0.000000D+00  0.102570D+00 -0.896683D-01 -0.143391D+00 -0.571614D-01
      6   0.174977D+00  0.000000D+00  0.000000D+00  0.000000D+00  0.000000D+00
      7   0.152808D+00  0.000000D+00  0.000000D+00  0.000000D+00  0.000000D+00
      8  -0.663123D-01  0.000000D+00  0.000000D+00  0.000000D+00  0.000000D+00
      9   0.000000D+00  0.199559D+00 -0.223134D-01  0.799421D-01 -0.639870D-02
     10   0.000000D+00 -0.176908D+00  0.759168D-01  0.260559D+00  0.302840D+00
     11   0.248130D+00  0.000000D+00  0.000000D+00  0.000000D+00  0.000000D+00
     12   0.262368D+00  0.000000D+00  0.000000D+00  0.000000D+00  0.000000D+00
     13   0.576919D-01  0.000000D+00  0.000000D+00  0.000000D+00  0.000000D+00
     14   0.000000D+00  0.353419D+00 -0.345774D+00 -0.417738D+00 -0.621645D-01
     15   0.000000D+00 -0.267013D+00  0.749969D-01  0.154281D-01  0.112386D+00
     16  -0.135860D+00  0.000000D+00  0.000000D+00  0.000000D+00  0.000000D+00
               746           747           748           749           750 
      1  -0.130367D+03 -0.130363D+03 -0.130362D+03 -0.130350D+03 -0.130342D+03
      2   0.573466D-01  0.149751D-05  0.572068D-01 -0.446299D-01 -0.875737D-01
      3   0.000000D+00  0.133389D-01  0.000000D+00  0.000000D+00  0.000000D+00
      4   0.000000D+00  0.453806D-02  0.000000D+00  0.000000D+00  0.000000D+00
      5  -0.183253D+00 -0.474649D-05 -0.180803D+00  0.128621D+00  0.270536D+00
      6   0.000000D+00 -0.429543D-01  0.127928D-05  0.000000D+00  0.285747D-05
      7   0.000000D+00 -0.439488D-02  0.000000D+00  0.000000D+00  0.000000D+00
      8   0.000000D+00 -0.260234D-01  0.000000D+00  0.000000D+00 -0.159694D-05
      9   0.189258D+00 -0.300740D-05 -0.115394D+00  0.173143D-02 -0.208464D+00
     10   0.800355D-02  0.256331D-05  0.988200D-01 -0.161033D+00  0.899269D-01
     11   0.000000D+00  0.203964D+00 -0.504416D-05  0.000000D+00 -0.169006D-05
     12   0.000000D+00  0.402375D+00 -0.946582D-05  0.000000D+00  0.379435D-05
     13   0.000000D+00 -0.266473D-02  0.000000D+00  0.000000D+00  0.000000D+00
     14  -0.423777D-01  0.774770D-05  0.284840D+00  0.187108D+00 -0.206892D-01
     15  -0.142107D+00  0.316545D-05  0.121762D+00 -0.934548D-01  0.264614D+00
     16   0.000000D+00 -0.841093D-01  0.247587D-05  0.000000D+00 -0.310102D-05
               751           752           753           754           755 
      1  -0.130339D+03 -0.130324D+03 -0.130305D+03 -0.130288D+03 -0.130286D+03
      2   0.000000D+00  0.783762D-01  0.000000D+00  0.288106D-01  0.000000D+00
      3   0.166210D+00  0.000000D+00  0.153502D-01  0.000000D+00 -0.335938D-01
      4  -0.299476D-01  0.000000D+00  0.359099D-01  0.000000D+00 -0.938752D-02
      5   0.140686D-05 -0.221225D+00  0.000000D+00 -0.918372D-01  0.000000D+00
      6  -0.542997D+00  0.000000D+00 -0.440358D-01  0.000000D+00  0.111229D+00
      7   0.805527D-01  0.000000D+00 -0.117885D+00  0.000000D+00  0.206904D-01
      8   0.218065D+00  0.000000D+00  0.994020D-01  0.000000D+00 -0.108994D+00
      9  -0.127748D-05  0.365211D-01  0.000000D+00  0.904674D-01  0.000000D+00
     10   0.000000D+00  0.284144D+00  0.000000D+00  0.396132D+00  0.000000D+00
     11   0.188406D+00 -0.155371D-05 -0.239514D+00  0.000000D+00  0.123085D+00
     12  -0.930050D+00 -0.121702D-05 -0.189497D+00  0.000000D+00  0.823073D+00
     13  -0.998882D-01  0.000000D+00 -0.760917D-01  0.000000D+00 -0.111206D-01
     14   0.000000D+00  0.750866D-01  0.000000D+00 -0.120797D+00  0.000000D+00
     15   0.154037D-05  0.212200D+00  0.000000D+00  0.843507D-01  0.000000D+00
     16   0.503744D+00  0.000000D+00  0.307828D+00  0.000000D+00 -0.195934D+00
               756           757           758           759           760 
      1  -0.130278D+03 -0.130267D+03 -0.130266D+03 -0.130258D+03 -0.130233D+03
      2   0.398799D-02  0.000000D+00 -0.415445D-02  0.000000D+00  0.000000D+00
      3   0.000000D+00 -0.219626D-01  0.000000D+00  0.557217D-01  0.779146D-01
      4   0.000000D+00  0.433445D-01 -0.100958D-05 -0.503208D-01 -0.209032D-01
      5  -0.149619D-01  0.000000D+00  0.121630D-01  0.000000D+00  0.000000D+00
      6   0.000000D+00  0.666921D-01 -0.155397D-05 -0.187836D+00 -0.273334D+00
      7   0.000000D+00 -0.121381D+00  0.284426D-05  0.162472D+00  0.646346D-01
      8   0.000000D+00  0.314682D+00 -0.740321D-05 -0.225844D+00 -0.169671D+00
      9  -0.357198D+00  0.000000D+00  0.681926D-01  0.000000D+00  0.000000D+00
     10  -0.495638D-01  0.308775D-05  0.150425D+00  0.000000D+00  0.000000D+00
     11   0.000000D+00  0.350410D+00 -0.867407D-05  0.690554D-01  0.492932D+00
     12   0.000000D+00  0.667105D+00 -0.164878D-04 -0.351714D+00  0.594148D-02
     13   0.000000D+00 -0.406078D-01  0.101794D-05  0.879740D-01  0.104128D+00
     14  -0.427876D-01  0.357356D-05  0.135106D+00  0.000000D+00  0.000000D+00
     15   0.532408D+00  0.000000D+00 -0.199019D-01  0.000000D+00  0.000000D+00
     16   0.000000D+00  0.288992D+00 -0.700331D-05 -0.316105D+00 -0.874443D-02
               761           762           763           764           765 
      1  -0.130229D+03 -0.130212D+03 -0.130208D+03 -0.130190D+03 -0.130188D+03
      2   0.000000D+00 -0.854893D-01  0.000000D+00  0.000000D+00  0.000000D+00
      3  -0.463219D-01  0.000000D+00 -0.664382D-01 -0.484802D-04 -0.212769D-01
      4  -0.971130D-02  0.000000D+00  0.259792D-01  0.175224D-01  0.107358D+00
      5   0.000000D+00  0.275760D+00  0.000000D+00  0.000000D+00  0.000000D+00
      6   0.145455D+00  0.000000D+00  0.232201D+00 -0.144075D-01  0.890138D-01
      7   0.325597D-01  0.000000D+00 -0.865561D-01 -0.471107D-01 -0.325771D+00
      8  -0.151890D+00  0.000000D+00  0.318065D-01 -0.554047D-01 -0.785804D-01
      9   0.000000D+00 -0.720557D-01  0.000000D+00  0.000000D+00  0.000000D+00
     10   0.000000D+00 -0.560392D+00  0.000000D+00  0.000000D+00  0.000000D+00
     11  -0.460978D+00  0.000000D+00 -0.423688D-01  0.794406D+00 -0.136402D+00
     12   0.298037D-01  0.000000D+00  0.239098D+00 -0.733556D-01  0.239347D+00
     13   0.204465D+00  0.000000D+00  0.867983D-01 -0.401057D-01  0.322831D-01
     14   0.000000D+00  0.313721D+00  0.000000D+00  0.000000D+00  0.000000D+00
     15   0.000000D+00 -0.192964D+00  0.000000D+00  0.000000D+00  0.000000D+00
     16  -0.192284D+00  0.000000D+00 -0.111048D+00 -0.435508D-01 -0.131553D+00
               766           767           768           769           770 
      1  -0.130164D+03 -0.130155D+03 -0.130147D+03 -0.130139D+03 -0.130125D+03
      2  -0.349403D-01  0.239296D-01  0.354181D-01  0.635665D-02  0.000000D+00
      3   0.000000D+00  0.000000D+00  0.000000D+00  0.000000D+00 -0.164737D+00
      4   0.000000D+00  0.000000D+00  0.000000D+00  0.000000D+00 -0.617384D-01
      5   0.118612D+00 -0.839815D-01 -0.836116D-01 -0.250381D-01  0.000000D+00
      6   0.000000D+00  0.000000D+00  0.000000D+00  0.000000D+00  0.557350D+00
      7   0.000000D+00  0.000000D+00  0.000000D+00  0.000000D+00  0.183925D+00
      8   0.000000D+00  0.000000D+00  0.000000D+00  0.000000D+00  0.361533D+00
      9   0.950338D-01  0.262932D-01  0.137508D+00 -0.288764D+00  0.000000D+00
     10  -0.504649D+00  0.487587D-01  0.961320D-02 -0.284086D+00  0.000000D+00
     11   0.000000D+00  0.000000D+00  0.000000D+00  0.000000D+00  0.570529D-01
     12   0.000000D+00  0.000000D+00  0.000000D+00  0.000000D+00  0.157495D+01
     13   0.000000D+00  0.000000D+00  0.000000D+00  0.000000D+00 -0.140912D+00
     14   0.188829D+00 -0.271059D-01 -0.245303D-01  0.198845D+00  0.000000D+00
     15  -0.252770D+00 -0.767231D-01 -0.165720D+00  0.290471D+00  0.000000D+00
     16   0.000000D+00  0.000000D+00  0.000000D+00  0.000000D+00 -0.679329D-01
               771           772           773           774           775 
      1  -0.130114D+03 -0.130081D+03 -0.130080D+03 -0.130079D+03 -0.130062D+03
      2   0.554301D-01  0.433565D-01  0.000000D+00 -0.547757D-01  0.000000D+00
      3   0.000000D+00  0.000000D+00 -0.591575D-01  0.000000D+00  0.184134D-01
      4   0.000000D+00  0.000000D+00  0.442726D-01  0.000000D+00 -0.388298D-02
      5  -0.170450D+00 -0.142677D+00 -0.173161D-05  0.192370D+00  0.000000D+00
      6   0.000000D+00 -0.235962D-05  0.192982D+00  0.000000D+00  0.859531D-02
      7   0.000000D+00  0.190711D-05 -0.137266D+00  0.000000D+00 -0.179924D-02
      8   0.000000D+00 -0.164278D-05  0.132777D+00  0.000000D+00 -0.510591D-01
      9  -0.249984D+00  0.204428D+00  0.260178D-05 -0.137309D+00  0.000000D+00
     10   0.142432D+00  0.148283D+00  0.195371D-05 -0.406412D-01  0.000000D+00
     11   0.000000D+00 -0.180999D-05  0.109846D+00  0.000000D+00 -0.107226D+00
     12   0.122786D-05 -0.101568D-04  0.713764D+00  0.000000D+00  0.106733D+01
     13   0.000000D+00  0.000000D+00  0.320586D-01  0.000000D+00  0.316752D-01
     14   0.287575D+00 -0.149413D+00 -0.163176D-05 -0.864336D-02  0.000000D+00
     15   0.223268D+00 -0.159522D+00 -0.213997D-05  0.801177D-01  0.000000D+00
     16   0.000000D+00  0.137430D-05 -0.872528D-01  0.000000D+00 -0.243954D+00
               776           777           778           779           780 
      1  -0.130039D+03 -0.130029D+03 -0.130024D+03 -0.129992D+03 -0.129984D+03
      2   0.820311D-01 -0.251593D-01  0.000000D+00  0.000000D+00  0.000000D+00
      3   0.000000D+00  0.000000D+00 -0.362000D-01  0.215269D-01 -0.500358D-03
      4   0.000000D+00  0.000000D+00 -0.115338D+00  0.671806D-01  0.542549D-01
      5  -0.307120D+00  0.705611D-01  0.000000D+00  0.000000D+00  0.000000D+00
      6   0.000000D+00  0.000000D+00  0.123568D+00 -0.583327D-01 -0.358473D-01
      7   0.000000D+00  0.000000D+00  0.396198D+00 -0.202097D+00 -0.171231D+00
      8   0.000000D+00  0.000000D+00  0.525190D+00  0.608652D-01 -0.103568D+00
      9   0.772417D-01  0.951886D-01  0.000000D+00  0.000000D+00  0.000000D+00
     10   0.492593D+00 -0.895854D-01  0.000000D+00  0.000000D+00  0.000000D+00
     11   0.000000D+00  0.000000D+00  0.238207D+00 -0.774680D-01 -0.118320D+00
     12   0.000000D+00  0.000000D+00  0.519844D+00  0.190072D+00 -0.346078D+00
     13   0.000000D+00  0.000000D+00 -0.398591D+00  0.513036D-01  0.121322D+00
     14  -0.172863D+00  0.704748D+00  0.000000D+00  0.000000D+00  0.000000D+00
     15   0.189403D+00 -0.305281D+00  0.000000D+00  0.000000D+00  0.000000D+00
     16   0.000000D+00  0.000000D+00  0.419437D+00  0.888275D-01 -0.177998D-01
               781           782           783           784           785 
      1  -0.129968D+03 -0.129945D+03 -0.129929D+03 -0.129886D+03 -0.129851D+03
      2   0.139773D-03 -0.221119D-01  0.000000D+00  0.000000D+00 -0.535798D-01
      3   0.000000D+00  0.000000D+00  0.374816D-01 -0.498322D-01  0.000000D+00
      4   0.000000D+00  0.000000D+00  0.356142D-01  0.545875D-01  0.000000D+00
      5   0.878577D-02  0.733765D-01  0.000000D+00  0.000000D+00  0.172372D+00
      6   0.000000D+00  0.000000D+00 -0.157139D+00  0.174151D+00  0.000000D+00
      7   0.000000D+00  0.000000D+00 -0.104036D+00 -0.190105D+00  0.000000D+00
      8   0.000000D+00  0.000000D+00 -0.411859D-01 -0.223571D+00  0.000000D+00
      9  -0.861046D-01 -0.197310D+00  0.000000D+00  0.000000D+00 -0.421051D-01
     10   0.511054D-01 -0.640413D-01  0.000000D+00  0.000000D+00 -0.709491D-01
     11   0.000000D+00  0.000000D+00  0.331694D-01  0.238328D-01  0.000000D+00
     12   0.000000D+00  0.000000D+00 -0.510699D+00  0.379824D+00  0.000000D+00
     13   0.000000D+00  0.000000D+00  0.219232D-01  0.171228D+00  0.000000D+00
     14  -0.489920D-02  0.294906D+00  0.000000D+00  0.000000D+00  0.393414D-01
     15   0.107540D+00  0.126839D+00  0.000000D+00  0.000000D+00 -0.464105D-02
     16   0.000000D+00  0.000000D+00  0.985008D-01 -0.316360D+00  0.000000D+00
               786           787           788           789           790 
      1  -0.129831D+03 -0.129788D+03 -0.129742D+03 -0.129728D+03 -0.129709D+03
      2   0.000000D+00  0.000000D+00  0.132699D-01  0.126949D-02  0.000000D+00
      3   0.194006D-01 -0.373268D-02  0.000000D+00  0.000000D+00  0.891335D-02
      4   0.782677D-01 -0.146492D-01  0.000000D+00  0.000000D+00  0.217747D-02
      5   0.000000D+00  0.000000D+00 -0.765180D-01  0.480675D-02  0.000000D+00
      6  -0.479166D-01 -0.153967D-01  0.000000D+00  0.000000D+00 -0.431358D-01
      7  -0.261259D+00  0.338636D-01  0.000000D+00  0.000000D+00 -0.146814D-01
      8  -0.492166D+00 -0.388816D+00  0.000000D+00  0.000000D+00 -0.874586D-01
      9   0.000000D+00  0.000000D+00 -0.873174D-01  0.736982D-03  0.000000D+00
     10   0.000000D+00  0.000000D+00  0.150681D+00  0.172634D-01  0.000000D+00
     11  -0.861918D-02 -0.668826D-01  0.000000D+00  0.000000D+00  0.186974D+00
     12  -0.315797D+00 -0.283344D+00  0.000000D+00  0.000000D+00  0.300804D+00
     13   0.314510D+00  0.123366D+00  0.000000D+00  0.000000D+00  0.105355D-01
     14   0.000000D+00  0.000000D+00 -0.186894D+00  0.228162D+00  0.000000D+00
     15   0.000000D+00  0.000000D+00  0.133581D+00 -0.667775D-01  0.000000D+00
     16  -0.490848D+00 -0.366682D+00  0.000000D+00  0.000000D+00 -0.174491D+00
               791           792 
      1  -0.129649D+03 -0.129419D+03
      2  -0.645336D-02  0.000000D+00
      3   0.000000D+00 -0.233522D-01
      4   0.000000D+00 -0.347324D-01
      5   0.122870D-01  0.000000D+00
      6   0.000000D+00  0.409272D-01
      7   0.000000D+00  0.127410D+00
      8   0.000000D+00  0.266383D+00
      9   0.341617D+00  0.000000D+00
     10  -0.246737D-01  0.000000D+00
     11   0.000000D+00 -0.155730D-01
     12   0.000000D+00 -0.863261D-02
     13   0.000000D+00 -0.175369D+00
     14  -0.523327D-01  0.000000D+00
     15  -0.328882D+00  0.000000D+00
     16   0.000000D+00  0.206008D+00
 Unable to Open any file for archive entry.
 1\1\GINC-HEL04\SP\RwB97XD TD-FC\Gen\C2H5N1\RR\12-Feb-2022\0\\#P TD(Nst
 ates=10000) wB97XD/Gen SCF(maxcycles=100) Int(Grid=ultrafine)\\xGDB7_0
 0001_tier4.com\\0,1\C,0,0.741313,-0.391085,0.023666\C,0,-0.741313,-0.3
 91085,0.023666\N,0,0.,0.845504,-0.173581\H,0,1.290256,-0.754998,-0.850
 673\H,0,1.252174,-0.560924,0.978054\H,0,-1.252174,-0.560923,0.978054\H
 ,0,-1.290256,-0.754998,-0.850673\H,0,0.,1.406334,0.676315\\Version=EM6
 4L-G16RevC.01\State=1-A\HF=-133.7914246\RMSD=2.652e-09\PG=C01 [X(C2H5N
 1)]\\@
 The archive entry for this job was punched.


 RESEARCH IS WHAT I AM DOING WHEN I DON'T KNOW WHAT I AM DOING.
     -- WERNER VON BRAUN
 Job cpu time:       0 days  0 hours 18 minutes 57.5 seconds.
 Elapsed time:       0 days  0 hours  2 minutes 22.7 seconds.
 File lengths (MBytes):  RWF=    810 Int=      0 D2E=      0 Chk=    192 Scr=      1
 Normal termination of Gaussian 16 at Sat Feb 12 21:42:47 2022.
