 Entering Gaussian System, Link 0=g16
 Input=000005.com
 Output=000005.log
 Initial command:
 /home/sabyasachi/g16/l1.exe "/scratch/sabyasachi/PBS_7976271.helios/Gau-46444.inp" -scrdir="/scratch/sabyasachi/PBS_7976271.helios/"
 Entering Link 1 = /home/sabyasachi/g16/l1.exe PID=     46445.
  
 Copyright (c) 1988-2019, Gaussian, Inc.  All Rights Reserved.
  
 This is part of the Gaussian(R) 16 program.  It is based on
 the Gaussian(R) 09 system (copyright 2009, Gaussian, Inc.),
 the Gaussian(R) 03 system (copyright 2003, Gaussian, Inc.),
 the Gaussian(R) 98 system (copyright 1998, Gaussian, Inc.),
 the Gaussian(R) 94 system (copyright 1995, Gaussian, Inc.),
 the Gaussian 92(TM) system (copyright 1992, Gaussian, Inc.),
 the Gaussian 90(TM) system (copyright 1990, Gaussian, Inc.),
 the Gaussian 88(TM) system (copyright 1988, Gaussian, Inc.),
 the Gaussian 86(TM) system (copyright 1986, Carnegie Mellon
 University), and the Gaussian 82(TM) system (copyright 1983,
 Carnegie Mellon University). Gaussian is a federally registered
 trademark of Gaussian, Inc.
  
 This software contains proprietary and confidential information,
 including trade secrets, belonging to Gaussian, Inc.
  
 This software is provided under written license and may be
 used, copied, transmitted, or stored only in accord with that
 written license.
  
 The following legend is applicable only to US Government
 contracts under FAR:
  
                    RESTRICTED RIGHTS LEGEND
  
 Use, reproduction and disclosure by the US Government is
 subject to restrictions as set forth in subparagraphs (a)
 and (c) of the Commercial Computer Software - Restricted
 Rights clause in FAR 52.227-19.
  
 Gaussian, Inc.
 340 Quinnipiac St., Bldg. 40, Wallingford CT 06492
  
  
 ---------------------------------------------------------------
 Warning -- This program may not be used in any manner that
 competes with the business of Gaussian, Inc. or will provide
 assistance to any competitor of Gaussian, Inc.  The licensee
 of this program is prohibited from giving any competitor of
 Gaussian, Inc. access to this program.  By using this program,
 the user acknowledges that Gaussian, Inc. is engaged in the
 business of creating and licensing software in the field of
 computational chemistry and represents and warrants to the
 licensee that it is not a competitor of Gaussian, Inc. and that
 it will not use this program in any manner prohibited above.
 ---------------------------------------------------------------
  

 Cite this work as:
 Gaussian 16, Revision C.01,
 M. J. Frisch, G. W. Trucks, H. B. Schlegel, G. E. Scuseria, 
 M. A. Robb, J. R. Cheeseman, G. Scalmani, V. Barone, 
 G. A. Petersson, H. Nakatsuji, X. Li, M. Caricato, A. V. Marenich, 
 J. Bloino, B. G. Janesko, R. Gomperts, B. Mennucci, H. P. Hratchian, 
 J. V. Ortiz, A. F. Izmaylov, J. L. Sonnenberg, D. Williams-Young, 
 F. Ding, F. Lipparini, F. Egidi, J. Goings, B. Peng, A. Petrone, 
 T. Henderson, D. Ranasinghe, V. G. Zakrzewski, J. Gao, N. Rega, 
 G. Zheng, W. Liang, M. Hada, M. Ehara, K. Toyota, R. Fukuda, 
 J. Hasegawa, M. Ishida, T. Nakajima, Y. Honda, O. Kitao, H. Nakai, 
 T. Vreven, K. Throssell, J. A. Montgomery, Jr., J. E. Peralta, 
 F. Ogliaro, M. J. Bearpark, J. J. Heyd, E. N. Brothers, K. N. Kudin, 
 V. N. Staroverov, T. A. Keith, R. Kobayashi, J. Normand, 
 K. Raghavachari, A. P. Rendell, J. C. Burant, S. S. Iyengar, 
 J. Tomasi, M. Cossi, J. M. Millam, M. Klene, C. Adamo, R. Cammi, 
 J. W. Ochterski, R. L. Martin, K. Morokuma, O. Farkas, 
 J. B. Foresman, and D. J. Fox, Gaussian, Inc., Wallingford CT, 2019.
 
 ******************************************
 Gaussian 16:  EM64L-G16RevC.01  3-Jul-2019
                21-Mar-2022 
 ******************************************
 %mem=64gb
 %nproc=8
 Will use up to    8 processors via shared memory.
 ----------------------------------------------------------------------
 #P TD(Nstates=10000) cam-b3lyp/Gen SCF(maxcycles=100) Int(Grid=ultrafi
 ne)
 ----------------------------------------------------------------------
 1/38=1,172=1/1;
 2/12=2,17=6,18=5,40=1/2;
 3/5=7,11=9,25=1,30=1,74=-40,75=-5/1,2,3,8;
 4//1;
 5/5=2,7=100,38=5/2;
 8/6=1,10=1,108=10000/1;
 9/41=10000,42=1,70=2/14;
 6/7=2,8=2,9=2,10=2/1;
 99/5=1,9=1/99;
 Leave Link    1 at Mon Mar 21 20:09:39 2022, MaxMem=  8589934592 cpu:               0.4 elap:               0.1
 (Enter /home/sabyasachi/g16/l101.exe)
 ---------------------
 xGDB7_00001_tier4.com
 ---------------------
 Symbolic Z-matrix:
 Charge =  0 Multiplicity = 1
 6                     0.        0.        0.7614 
 6                     0.        0.       -0.7614 
 1                     0.        1.01711   1.15725 
 1                     0.88084  -0.50856   1.15725 
 1                    -0.88084  -0.50856   1.15725 
 1                     0.88084   0.50856  -1.15725 
 1                    -0.88084   0.50856  -1.15725 
 1                     0.       -1.01711  -1.15725 
 
 ITRead=  0  0  0  0  0  0  0  0
 MicOpt= -1 -1 -1 -1 -1 -1 -1 -1
 NAtoms=      8 NQM=        8 NQMF=       0 NMMI=      0 NMMIF=      0
                NMic=       0 NMicF=      0.
                    Isotopes and Nuclear Properties:
 (Nuclear quadrupole moments (NQMom) in fm**2, nuclear magnetic moments (NMagM)
  in nuclear magnetons)

  Atom         1           2           3           4           5           6           7           8
 IAtWgt=          12          12           1           1           1           1           1           1
 AtmWgt=  12.0000000  12.0000000   1.0078250   1.0078250   1.0078250   1.0078250   1.0078250   1.0078250
 NucSpn=           0           0           1           1           1           1           1           1
 AtZEff=  -0.0000000  -0.0000000  -0.0000000  -0.0000000  -0.0000000  -0.0000000  -0.0000000  -0.0000000
 NQMom=    0.0000000   0.0000000   0.0000000   0.0000000   0.0000000   0.0000000   0.0000000   0.0000000
 NMagM=    0.0000000   0.0000000   2.7928460   2.7928460   2.7928460   2.7928460   2.7928460   2.7928460
 AtZNuc=   6.0000000   6.0000000   1.0000000   1.0000000   1.0000000   1.0000000   1.0000000   1.0000000
 Leave Link  101 at Mon Mar 21 20:09:39 2022, MaxMem=  8589934592 cpu:               0.6 elap:               0.1
 (Enter /home/sabyasachi/g16/l202.exe)
                          Input orientation:                          
 ---------------------------------------------------------------------
 Center     Atomic      Atomic             Coordinates (Angstroms)
 Number     Number       Type             X           Y           Z
 ---------------------------------------------------------------------
      1          6           0        0.000000    0.000000    0.761397
      2          6           0        0.000000    0.000000   -0.761397
      3          1           0        0.000000    1.017110    1.157248
      4          1           0        0.880843   -0.508555    1.157248
      5          1           0       -0.880843   -0.508555    1.157248
      6          1           0        0.880843    0.508555   -1.157248
      7          1           0       -0.880843    0.508555   -1.157248
      8          1           0        0.000000   -1.017110   -1.157248
 ---------------------------------------------------------------------
                    Distance matrix (angstroms):
                    1          2          3          4          5
     1  C    0.000000
     2  C    1.522794   0.000000
     3  H    1.091426   2.171569   0.000000
     4  H    1.091426   2.171569   1.761686   0.000000
     5  H    1.091426   2.171569   1.761686   1.761686   0.000000
     6  H    2.171569   1.091426   2.528123   2.528123   3.081386
     7  H    2.171569   1.091426   2.528123   3.081386   2.528123
     8  H    2.171569   1.091426   3.081386   2.528123   2.528123
                    6          7          8
     6  H    0.000000
     7  H    1.761686   0.000000
     8  H    1.761686   1.761686   0.000000
 Stoichiometry    C2H6
 Framework group  D3D[C3(C.C),3SGD(H2)]
 Deg. of freedom     3
 Full point group                 D3D     NOp  12
 Largest Abelian subgroup         C2H     NOp   4
 Largest concise Abelian subgroup C2H     NOp   4
                         Standard orientation:                         
 ---------------------------------------------------------------------
 Center     Atomic      Atomic             Coordinates (Angstroms)
 Number     Number       Type             X           Y           Z
 ---------------------------------------------------------------------
      1          6           0        0.000000    0.000000    0.761397
      2          6           0       -0.000000   -0.000000   -0.761397
      3          1           0        0.000000    1.017110    1.157248
      4          1           0        0.880843   -0.508555    1.157248
      5          1           0       -0.880843   -0.508555    1.157248
      6          1           0        0.880843    0.508555   -1.157248
      7          1           0       -0.880843    0.508555   -1.157248
      8          1           0       -0.000000   -1.017110   -1.157248
 ---------------------------------------------------------------------
 Rotational constants (GHZ):          80.7876467          20.1030278          20.1030278
 Leave Link  202 at Mon Mar 21 20:09:39 2022, MaxMem=  8589934592 cpu:               0.1 elap:               0.0
 (Enter /home/sabyasachi/g16/l301.exe)
 General basis read from cards:  (5D, 7F)
 Centers:       3      4      5      6      7      8
 S 3 1.00
     Exponent=  1.3010701000D+01 Coefficients=  1.9682158000D-02
     Exponent=  1.9622572000D+00 Coefficients=  1.3796524000D-01
     Exponent=  4.4453796000D-01 Coefficients=  4.7831935000D-01
 S 1 1.00
     Exponent=  1.2194962000D-01 Coefficients=  1.0000000000D+00
 P 1 1.00
     Exponent=  8.0000000000D-01 Coefficients=  1.0000000000D+00
 P 1 1.00
     Exponent=  1.1704099050D-01 Coefficients=  1.0000000000D+00
 ****
 Centers:       1      2
 S 5 1.00
     Exponent=  1.2384016938D+03 Coefficients=  5.4568832082D-03
     Exponent=  1.8629004992D+02 Coefficients=  4.0638409211D-02
     Exponent=  4.2251176346D+01 Coefficients=  1.8025593888D-01
     Exponent=  1.1676557932D+01 Coefficients=  4.6315121755D-01
     Exponent=  3.5930506482D+00 Coefficients=  4.4087173314D-01
 S 1 1.00
     Exponent=  4.0245147363D-01 Coefficients=  1.0000000000D+00
 S 1 1.00
     Exponent=  1.3090182668D-01 Coefficients=  1.0000000000D+00
 S 1 1.00
     Exponent=  6.7053540256D-02 Coefficients=  1.0000000000D+00
 P 3 1.00
     Exponent=  9.4680970621D+00 Coefficients=  3.8387871728D-02
     Exponent=  2.0103545142D+00 Coefficients=  2.1117025112D-01
     Exponent=  5.4771004707D-01 Coefficients=  5.1328172114D-01
 P 1 1.00
     Exponent=  1.5268613795D-01 Coefficients=  1.0000000000D+00
 D 1 1.00
     Exponent=  8.0000000000D-01 Coefficients=  1.0000000000D+00
 D 1 1.00
     Exponent=  1.1713185140D-01 Coefficients=  1.0000000000D+00
 ****
 Ernie: Thresh=  0.10000D-02 Tol=  0.10000D-05 Strict=F.
 There are    30 symmetry adapted cartesian basis functions of AG  symmetry.
 There are    16 symmetry adapted cartesian basis functions of BG  symmetry.
 There are    16 symmetry adapted cartesian basis functions of AU  symmetry.
 There are    30 symmetry adapted cartesian basis functions of BU  symmetry.
 There are    28 symmetry adapted basis functions of AG  symmetry.
 There are    16 symmetry adapted basis functions of BG  symmetry.
 There are    16 symmetry adapted basis functions of AU  symmetry.
 There are    28 symmetry adapted basis functions of BU  symmetry.
    88 basis functions,   124 primitive gaussians,    92 cartesian basis functions
     9 alpha electrons        9 beta electrons
       nuclear repulsion energy        42.3107446799 Hartrees.
 IExCor=20419 DFT=T Ex+Corr=CAM-B3LYP ExCW=0 ScaHFX=  1.000000
 ScaDFX=  1.000000  1.000000  1.000000  0.810000 ScalE2=  1.000000  1.000000
 IRadAn=      5 IRanWt=     -1 IRanGd=            0 ICorTp=0 IEmpDi=  4
 HFx  wShort=  0.000000 wLong=  0.330000 cFull=  0.190000 cShort=  0.000000 cLong=  0.460000
 DFx  wShort=  0.000000 wLong=  0.330000 cFull=  0.190000 cShort=  0.000000 cLong=  0.460000
 NAtoms=    8 NActive=    8 NUniq=    2 SFac= 4.00D+00 NAtFMM=   60 NAOKFM=F Big=F
 Integral buffers will be    131072 words long.
 Raffenetti 1 integral format.
 Two-electron integral symmetry is turned on.
 Leave Link  301 at Mon Mar 21 20:09:39 2022, MaxMem=  8589934592 cpu:               0.5 elap:               0.1
 (Enter /home/sabyasachi/g16/l302.exe)
 NPDir=0 NMtPBC=     1 NCelOv=     1 NCel=       1 NClECP=     1 NCelD=      1
         NCelK=      1 NCelE2=     1 NClLst=     1 CellRange=     0.0.
 One-electron integrals computed using PRISM.
 One-electron integral symmetry used in STVInt
 NBasis=    88 RedAO= T EigKep=  3.75D-04  NBF=    28    16    16    28
 NBsUse=    88 1.00D-06 EigRej= -1.00D+00 NBFU=    28    16    16    28
 Precomputing XC quadrature grid using
 IXCGrd= 4 IRadAn=           5 IRanWt=          -1 IRanGd=           0 AccXCQ= 0.00D+00.
 Generated NRdTot=       0 NPtTot=           0 NUsed=           0 NTot=          32
 NSgBfM=    92    92    92    92    92 MxSgAt=     8 MxSgA2=     8.
 Leave Link  302 at Mon Mar 21 20:09:39 2022, MaxMem=  8589934592 cpu:               1.0 elap:               0.1
 (Enter /home/sabyasachi/g16/l303.exe)
 DipDrv:  MaxL=1.
 Leave Link  303 at Mon Mar 21 20:09:39 2022, MaxMem=  8589934592 cpu:               0.2 elap:               0.0
 (Enter /home/sabyasachi/g16/l308.exe)
 Leave Link  308 at Mon Mar 21 20:09:39 2022, MaxMem=  8589934592 cpu:               0.2 elap:               0.0
 (Enter /home/sabyasachi/g16/l401.exe)
 ExpMin= 6.71D-02 ExpMax= 1.24D+03 ExpMxC= 1.86D+02 IAcc=3 IRadAn=         5 AccDes= 0.00D+00
 Harris functional with IExCor=20419 and IRadAn=       5 diagonalized for initial guess.
 HarFok:  IExCor=20419 AccDes= 0.00D+00 IRadAn=         5 IDoV= 1 UseB2=F ITyADJ=14
 ICtDFT=  3500011 ScaDFX=  1.000000  1.000000  1.000000  1.000000
 FoFCou: FMM=F IPFlag=           0 FMFlag=      100000 FMFlg1=           0
         NFxFlg=           0 DoJE=T BraDBF=F KetDBF=T FulRan=T
         wScrn=  0.000000 ICntrl=       500 IOpCl=  0 I1Cent=   200000004 NGrid=           0
         NMat0=    1 NMatS0=      1 NMatT0=    0 NMatD0=    1 NMtDS0=    0 NMtDT0=    0
 Petite list used in FoFCou.
 Harris En= -75.9545057576136    
 JPrj=0 DoOrth=F DoCkMO=F.
 Initial guess orbital symmetries:
       Occupied  (A2U) (A1G) (A1G) (A2U) (EU) (EU) (A1G) (EG) (EG)
       Virtual   (A1G) (A2U) (EU) (EU) (EG) (EG) (A1G) (EG) (EG)
                 (A2U) (EU) (EU) (EU) (EU) (A2U) (A1G) (A1U) (EG)
                 (EG) (A2U) (EU) (EU) (A1G) (A2U) (EG) (EG) (A2G)
                 (A1G) (EG) (EG) (EU) (EU) (EG) (EG) (A2U) (EU)
                 (EU) (A1G) (A2U) (A1G) (EG) (EG) (EU) (EU) (A2U)
                 (EU) (EU) (A1G) (EG) (EG) (A2U) (EU) (EU) (EG)
                 (EG) (A1U) (A2G) (A1G) (EU) (EU) (EU) (EU) (EG)
                 (EG) (A2U) (EG) (EG) (A1G) (A2U) (EU) (EU) (EG)
                 (EG) (A1G) (A2U) (EG) (EG) (EU) (EU)
 The electronic state of the initial guess is 1-A1G.
 Leave Link  401 at Mon Mar 21 20:09:39 2022, MaxMem=  8589934592 cpu:               1.3 elap:               0.2
 (Enter /home/sabyasachi/g16/l502.exe)
 Keep R1 ints in memory in symmetry-blocked form, NReq=23049068.
 FoFCou: FMM=F IPFlag=           0 FMFlag=           0 FMFlg1=           0
         NFxFlg=           0 DoJE=F BraDBF=F KetDBF=F FulRan=T
         wScrn=  0.000000 ICntrl=       600 IOpCl=  0 I1Cent=           0 NGrid=           0
         NMat0=    1 NMatS0=   3916 NMatT0=    0 NMatD0=    1 NMtDS0=    0 NMtDT0=    0
 Petite list used in FoFCou.
 Closed shell SCF:
 Using DIIS extrapolation, IDIIS=  1040.
 NGot=  8589934592 LenX=  8587972308 LenY=  8587963403
 Requested convergence on RMS density matrix=1.00D-08 within 100 cycles.
 Requested convergence on MAX density matrix=1.00D-06.
 Requested convergence on             energy=1.00D-06.
 No special actions if energy rises.
 Integral accuracy reduced to 1.0D-05 until final iterations.

 Cycle   1  Pass 0  IDiag  1:
 E= -79.6869363463360    
 DIIS: error= 3.63D-02 at cycle   1 NSaved=   1.
 NSaved= 1 IEnMin= 1 EnMin= -79.6869363463360     IErMin= 1 ErrMin= 3.63D-02
 ErrMax= 3.63D-02  0.00D+00 EMaxC= 1.00D-01 BMatC= 4.38D-02 BMatP= 4.38D-02
 IDIUse=3 WtCom= 6.37D-01 WtEn= 3.63D-01
 Coeff-Com:  0.100D+01
 Coeff-En:   0.100D+01
 Coeff:      0.100D+01
 Gap=     0.424 Goal=   None    Shift=    0.000
 GapD=    0.424 DampG=2.000 DampE=0.500 DampFc=1.0000 IDamp=-1.
 RMSDP=4.20D-03 MaxDP=9.64D-02              OVMax= 7.07D-02

 Cycle   2  Pass 0  IDiag  1:
 E= -79.6987564716891     Delta-E=       -0.011820125353 Rises=F Damp=F
 DIIS: error= 1.83D-02 at cycle   2 NSaved=   2.
 NSaved= 2 IEnMin= 2 EnMin= -79.6987564716891     IErMin= 2 ErrMin= 1.83D-02
 ErrMax= 1.83D-02  0.00D+00 EMaxC= 1.00D-01 BMatC= 1.79D-02 BMatP= 4.38D-02
 IDIUse=3 WtCom= 8.17D-01 WtEn= 1.83D-01
 Coeff-Com:  0.363D+00 0.637D+00
 Coeff-En:   0.346D+00 0.654D+00
 Coeff:      0.360D+00 0.640D+00
 Gap=     0.469 Goal=   None    Shift=    0.000
 RMSDP=2.08D-03 MaxDP=4.14D-02 DE=-1.18D-02 OVMax= 4.00D-02

 Cycle   3  Pass 0  IDiag  1:
 E= -79.7163552940100     Delta-E=       -0.017598822321 Rises=F Damp=F
 DIIS: error= 4.07D-03 at cycle   3 NSaved=   3.
 NSaved= 3 IEnMin= 3 EnMin= -79.7163552940100     IErMin= 3 ErrMin= 4.07D-03
 ErrMax= 4.07D-03  0.00D+00 EMaxC= 1.00D-01 BMatC= 9.70D-04 BMatP= 1.79D-02
 IDIUse=3 WtCom= 9.59D-01 WtEn= 4.07D-02
 Coeff-Com:  0.259D-02 0.188D+00 0.810D+00
 Coeff-En:   0.000D+00 0.000D+00 0.100D+01
 Coeff:      0.249D-02 0.180D+00 0.817D+00
 Gap=     0.462 Goal=   None    Shift=    0.000
 RMSDP=3.80D-04 MaxDP=6.65D-03 DE=-1.76D-02 OVMax= 8.45D-03

 Cycle   4  Pass 0  IDiag  1:
 E= -79.7173595570425     Delta-E=       -0.001004263032 Rises=F Damp=F
 DIIS: error= 4.18D-04 at cycle   4 NSaved=   4.
 NSaved= 4 IEnMin= 4 EnMin= -79.7173595570425     IErMin= 4 ErrMin= 4.18D-04
 ErrMax= 4.18D-04  0.00D+00 EMaxC= 1.00D-01 BMatC= 4.22D-06 BMatP= 9.70D-04
 IDIUse=3 WtCom= 9.96D-01 WtEn= 4.18D-03
 Coeff-Com: -0.156D-02 0.120D-01 0.102D+00 0.888D+00
 Coeff-En:   0.000D+00 0.000D+00 0.000D+00 0.100D+01
 Coeff:     -0.156D-02 0.119D-01 0.101D+00 0.888D+00
 Gap=     0.462 Goal=   None    Shift=    0.000
 RMSDP=5.27D-05 MaxDP=4.15D-04 DE=-1.00D-03 OVMax= 1.01D-03

 Cycle   5  Pass 0  IDiag  1:
 E= -79.7173644954033     Delta-E=       -0.000004938361 Rises=F Damp=F
 DIIS: error= 4.07D-05 at cycle   5 NSaved=   5.
 NSaved= 5 IEnMin= 5 EnMin= -79.7173644954033     IErMin= 5 ErrMin= 4.07D-05
 ErrMax= 4.07D-05  0.00D+00 EMaxC= 1.00D-01 BMatC= 9.41D-08 BMatP= 4.22D-06
 IDIUse=1 WtCom= 1.00D+00 WtEn= 0.00D+00
 Coeff-Com:  0.806D-05-0.987D-02-0.419D-01-0.235D-01 0.108D+01
 Coeff:      0.806D-05-0.987D-02-0.419D-01-0.235D-01 0.108D+01
 Gap=     0.462 Goal=   None    Shift=    0.000
 RMSDP=1.26D-05 MaxDP=1.43D-04 DE=-4.94D-06 OVMax= 1.91D-04

 Cycle   6  Pass 0  IDiag  1:
 E= -79.7173646761541     Delta-E=       -0.000000180751 Rises=F Damp=F
 DIIS: error= 4.48D-06 at cycle   6 NSaved=   6.
 NSaved= 6 IEnMin= 6 EnMin= -79.7173646761541     IErMin= 6 ErrMin= 4.48D-06
 ErrMax= 4.48D-06  0.00D+00 EMaxC= 1.00D-01 BMatC= 6.99D-10 BMatP= 9.41D-08
 IDIUse=1 WtCom= 1.00D+00 WtEn= 0.00D+00
 Coeff-Com:  0.243D-04 0.551D-03 0.266D-02-0.383D-02-0.901D-01 0.109D+01
 Coeff:      0.243D-04 0.551D-03 0.266D-02-0.383D-02-0.901D-01 0.109D+01
 Gap=     0.462 Goal=   None    Shift=    0.000
 RMSDP=8.54D-07 MaxDP=8.76D-06 DE=-1.81D-07 OVMax= 2.09D-05

 Initial convergence to 1.0D-05 achieved.  Increase integral accuracy.
 Cycle   7  Pass 1  IDiag  1:
 E= -79.7173647891352     Delta-E=       -0.000000112981 Rises=F Damp=F
 DIIS: error= 9.26D-07 at cycle   1 NSaved=   1.
 NSaved= 1 IEnMin= 1 EnMin= -79.7173647891352     IErMin= 1 ErrMin= 9.26D-07
 ErrMax= 9.26D-07  0.00D+00 EMaxC= 1.00D-01 BMatC= 5.02D-11 BMatP= 5.02D-11
 IDIUse=1 WtCom= 1.00D+00 WtEn= 0.00D+00
 Coeff-Com:  0.100D+01
 Coeff:      0.100D+01
 Gap=     0.462 Goal=   None    Shift=    0.000
 RMSDP=8.54D-07 MaxDP=8.76D-06 DE=-1.13D-07 OVMax= 3.56D-06

 Cycle   8  Pass 1  IDiag  1:
 E= -79.7173647892345     Delta-E=       -0.000000000099 Rises=F Damp=F
 DIIS: error= 1.63D-07 at cycle   2 NSaved=   2.
 NSaved= 2 IEnMin= 2 EnMin= -79.7173647892345     IErMin= 2 ErrMin= 1.63D-07
 ErrMax= 1.63D-07  0.00D+00 EMaxC= 1.00D-01 BMatC= 1.93D-12 BMatP= 5.02D-11
 IDIUse=1 WtCom= 1.00D+00 WtEn= 0.00D+00
 Coeff-Com: -0.755D-01 0.108D+01
 Coeff:     -0.755D-01 0.108D+01
 Gap=     0.462 Goal=   None    Shift=    0.000
 RMSDP=1.86D-07 MaxDP=2.26D-06 DE=-9.93D-11 OVMax= 8.88D-07

 Cycle   9  Pass 1  IDiag  1:
 E= -79.7173647892371     Delta-E=       -0.000000000003 Rises=F Damp=F
 DIIS: error= 1.40D-07 at cycle   3 NSaved=   3.
 NSaved= 3 IEnMin= 3 EnMin= -79.7173647892371     IErMin= 3 ErrMin= 1.40D-07
 ErrMax= 1.40D-07  0.00D+00 EMaxC= 1.00D-01 BMatC= 8.65D-13 BMatP= 1.93D-12
 IDIUse=1 WtCom= 1.00D+00 WtEn= 0.00D+00
 Coeff-Com: -0.672D-01 0.449D+00 0.618D+00
 Coeff:     -0.672D-01 0.449D+00 0.618D+00
 Gap=     0.462 Goal=   None    Shift=    0.000
 RMSDP=2.03D-08 MaxDP=3.00D-07 DE=-2.59D-12 OVMax= 2.82D-07

 Cycle  10  Pass 1  IDiag  1:
 E= -79.7173647892385     Delta-E=       -0.000000000001 Rises=F Damp=F
 DIIS: error= 1.60D-08 at cycle   4 NSaved=   4.
 NSaved= 4 IEnMin= 4 EnMin= -79.7173647892385     IErMin= 4 ErrMin= 1.60D-08
 ErrMax= 1.60D-08  0.00D+00 EMaxC= 1.00D-01 BMatC= 1.65D-14 BMatP= 8.65D-13
 IDIUse=1 WtCom= 1.00D+00 WtEn= 0.00D+00
 Coeff-Com:  0.796D-02-0.873D-01 0.296D-01 0.105D+01
 Coeff:      0.796D-02-0.873D-01 0.296D-01 0.105D+01
 Gap=     0.462 Goal=   None    Shift=    0.000
 RMSDP=2.80D-09 MaxDP=3.83D-08 DE=-1.39D-12 OVMax= 6.78D-08

 SCF Done:  E(RCAM-B3LYP) =  -79.7173647892     A.U. after   10 cycles
            NFock= 10  Conv=0.28D-08     -V/T= 2.0136
 KE= 7.864483281509D+01 PE=-2.678962353107D+02 EE= 6.722329302645D+01
 Leave Link  502 at Mon Mar 21 20:09:40 2022, MaxMem=  8589934592 cpu:               4.9 elap:               0.6
 (Enter /home/sabyasachi/g16/l801.exe)
 DoSCS=F DFT=T ScalE2(SS,OS)=  1.000000  1.000000
 ExpMin= 6.71D-02 ExpMax= 1.24D+03 ExpMxC= 1.86D+02 IAcc=3 IRadAn=         5 AccDes= 0.00D+00
 HarFok:  IExCor=  205 AccDes= 0.00D+00 IRadAn=         5 IDoV=-2 UseB2=F ITyADJ=14
 ICtDFT= 12500011 ScaDFX=  1.000000  1.000000  1.000000  1.000000
 Largest valence mixing into a core orbital is  7.20D-05
 Largest core mixing into a valence orbital is  1.46D-05
 Range of M.O.s used for correlation:     3    88
 NBasis=    88 NAE=     9 NBE=     9 NFC=     2 NFV=     0
 NROrb=     86 NOA=     7 NOB=     7 NVA=    79 NVB=    79

 **** Warning!!: The largest alpha MO coefficient is  0.24934706D+02

 Leave Link  801 at Mon Mar 21 20:09:40 2022, MaxMem=  8589934592 cpu:               0.6 elap:               0.1
 (Enter /home/sabyasachi/g16/l914.exe)
 RHF ground state
 Keep R1, R2, and R3 ints in memory in symmetry-blocked form, NReq=412280856.
 FoFCou: FMM=F IPFlag=           0 FMFlag=           0 FMFlg1=           0
         NFxFlg=           0 DoJE=F BraDBF=F KetDBF=F FulRan=T
         wScrn=  0.000000 ICntrl=       600 IOpCl=  0 I1Cent=           0 NGrid=           0
         NMat0=    1 NMatS0=   3916 NMatT0=    0 NMatD0=    1 NMtDS0=    0 NMtDT0=    0
 Petite list used in FoFCou.
 MDV=  8589934592 DFT=T DoStab=F Mixed=T DoRPA=T DoScal=F NonHer=T
 Making orbital integer symmetry assigments:
 Orbital symmetries:
       Occupied  (A1G) (A2U) (A1G) (A2U) (EU) (EU) (A1G) (EG) (EG)
       Virtual   (A1G) (A2U) (EU) (EU) (EG) (EG) (A1G) (EG) (EG)
                 (EU) (EU) (A2U) (EU) (EU) (A2U) (A1G) (A1U) (A2U)
                 (EG) (EG) (A1G) (EU) (EU) (EG) (EG) (A2U) (A2G)
                 (A1G) (EG) (EG) (EU) (EU) (EG) (EG) (A2U) (EU)
                 (EU) (A1G) (A2U) (A1G) (EG) (EG) (EU) (EU) (A2U)
                 (EU) (EU) (A1G) (EG) (EG) (A2U) (EU) (EU) (EG)
                 (EG) (A1U) (A2G) (EU) (EU) (A1G) (EU) (EU) (EG)
                 (EG) (A2U) (EG) (EG) (A1G) (EU) (EU) (A2U) (EG)
                 (EG) (A1G) (A2U) (EG) (EG) (EU) (EU)
   553 initial guesses have been made.
 Convergence on wavefunction:    0.001000000000000
 Davidson Disk Diagonalization:  ConvIn= 1.00D-03 SkipCon=T Conv= 1.00D-03.
 Max sub-space:  3318 roots to seek:  1106 dimension of matrix:         1106
 *** WARNING: Number of orthogonal guesses is          553
 Iteration     1 Dimension   553 NMult     0 NNew    553
 CISAX will form   553 AO SS matrices at one time.
 NMat=   553 NSing=   553 JSym2X=-1.
 DSYEVD-2 returned Info=        1107 IAlg= 4 N=   553 NDim=   553 NE2=    15522809 trying  DSYEV.
 New state      1 was old state      2
 New state      2 was old state      1
 New state      7 was old state      8
 New state      8 was old state     10
 New state      9 was old state      7
 New state     10 was old state     16
 New state     11 was old state      9
 New state     12 was old state     14
 New state     14 was old state     15
 New state     15 was old state     18
 New state     16 was old state     17
 New state     17 was old state     12
 New state     18 was old state     11
 New state     21 was old state     23
 New state     22 was old state     24
 New state     23 was old state     28
 New state     24 was old state     25
 New state     25 was old state     26
 New state     26 was old state     21
 New state     27 was old state     22
 New state     28 was old state     29
 New state     29 was old state     32
 New state     30 was old state     40
 New state     31 was old state     41
 New state     32 was old state     27
 New state     33 was old state     31
 New state     34 was old state     30
 New state     35 was old state     33
 New state     36 was old state     46
 New state     37 was old state     47
 New state     39 was old state     37
 New state     40 was old state     36
 New state     41 was old state     45
 New state     42 was old state     43
 New state     43 was old state     42
 New state     45 was old state     54
 New state     46 was old state     53
 New state     47 was old state     39
 New state     48 was old state     49
 New state     49 was old state     48
 New state     51 was old state     52
 New state     52 was old state     51
 New state     53 was old state     60
 New state     54 was old state     59
 New state     55 was old state     56
 New state     56 was old state     58
 New state     58 was old state     55
 No map to state     59
 New state     60 was old state     74
 New state     61 was old state     62
 New state     62 was old state     68
 New state     63 was old state     67
 New state     64 was old state     66
 New state     66 was old state     64
 New state     67 was old state     61
 New state     68 was old state     63
 New state     70 was old state     71
 New state     71 was old state     70
 New state     72 was old state     73
 New state     73 was old state     72
 New state     74 was old state    124
 New state     75 was old state     78
 New state     76 was old state     77
 New state     77 was old state     79
 New state     78 was old state     80
 New state     79 was old state     75
 New state     80 was old state     76
 New state     82 was old state     87
 New state     83 was old state     82
 New state     84 was old state     83
 New state     85 was old state     93
 New state     86 was old state     88
 New state     87 was old state     89
 New state     88 was old state    100
 New state     89 was old state     99
 New state     91 was old state     92
 New state     92 was old state     85
 New state     93 was old state     94
 New state     94 was old state     95
 New state     95 was old state     91
 New state     96 was old state     98
 New state     98 was old state    112
 New state     99 was old state    113
 New state    100 was old state     96
 New state    101 was old state     86
 New state    102 was old state     84
 New state    103 was old state    102
 New state    104 was old state    101
 New state    105 was old state    103
 New state    106 was old state    104
 New state    107 was old state    106
 New state    108 was old state    109
 New state    109 was old state    108
 New state    110 was old state    105
 New state    111 was old state    116
 New state    112 was old state    117
 New state    113 was old state    107
 New state    114 was old state    111
 New state    115 was old state    110
 New state    116 was old state    120
 New state    117 was old state    119
 New state    119 was old state    114
 New state    120 was old state    115
 New state    121 was old state    128
 New state    122 was old state    125
 New state    123 was old state    121
 New state    124 was old state    122
 New state    125 was old state    123
 New state    126 was old state    129
 New state    128 was old state    126
 New state    129 was old state    136
 New state    130 was old state    135
 New state    131 was old state    137
 New state    134 was old state    140
 New state    135 was old state    139
 New state    136 was old state    131
 New state    137 was old state    141
 New state    138 was old state    142
 New state    139 was old state    130
 New state    140 was old state    149
 New state    141 was old state    143
 New state    142 was old state    147
 New state    143 was old state    134
 New state    144 was old state    148
 New state    145 was old state    150
 New state    146 was old state    144
 New state    147 was old state    145
 New state    148 was old state    164
 New state    149 was old state    163
 New state    150 was old state    156
 New state    151 was old state    152
 New state    152 was old state    154
 New state    153 was old state    138
 New state    154 was old state    160
 New state    155 was old state    161
 New state    156 was old state    162
 New state    158 was old state    155
 New state    159 was old state    151
 New state    160 was old state    153
 New state    161 was old state    158
 New state    162 was old state    159
 New state    163 was old state    176
 New state    164 was old state    175
 New state    165 was old state    172
 New state    166 was old state    171
 New state    167 was old state    165
 New state    168 was old state    166
 New state    169 was old state    170
 New state    170 was old state    169
 New state    171 was old state    146
 New state    172 was old state    181
 New state    173 was old state    167
 New state    174 was old state    168
 New state    175 was old state    179
 New state    176 was old state    174
 New state    177 was old state    173
 New state    179 was old state    177
 New state    180 was old state    189
 New state    181 was old state    188
 New state    182 was old state    180
 New state    184 was old state    185
 New state    185 was old state    186
 New state    186 was old state    187
 New state    187 was old state    192
 New state    188 was old state    193
 New state    189 was old state    191
 New state    190 was old state    200
 New state    191 was old state    184
 New state    192 was old state    197
 New state    193 was old state    204
 New state    194 was old state    202
 New state    195 was old state    196
 New state    196 was old state    198
 New state    197 was old state    203
 New state    198 was old state    194
 New state    199 was old state    195
 New state    200 was old state    207
 New state    201 was old state    190
 New state    202 was old state    201
 New state    203 was old state    205
 New state    204 was old state    199
 New state    205 was old state    206
 New state    206 was old state    223
 New state    207 was old state    208
 New state    208 was old state    227
 New state    209 was old state    210
 New state    210 was old state    209
 New state    211 was old state    216
 New state    212 was old state    215
 New state    213 was old state    217
 New state    214 was old state    212
 New state    215 was old state    213
 New state    216 was old state    218
 New state    217 was old state    219
 New state    218 was old state    220
 New state    219 was old state    214
 New state    220 was old state    211
 New state    221 was old state    222
 New state    222 was old state    221
 New state    223 was old state    224
 No map to state    224
 New state    227 was old state    230
 New state    230 was old state    250
 New state    233 was old state    234
 New state    234 was old state    233
 New state    237 was old state    238
 New state    238 was old state    239
 New state    239 was old state    237
 New state    241 was old state    242
 New state    242 was old state    241
 New state    243 was old state    248
 New state    244 was old state    249
 New state    245 was old state    243
 New state    246 was old state    256
 New state    247 was old state    244
 New state    248 was old state    245
 New state    249 was old state    247
 New state    250 was old state    246
 New state    255 was old state    283
 New state    256 was old state    260
 New state    257 was old state    259
 New state    258 was old state    255
 New state    259 was old state    265
 New state    260 was old state    266
 New state    261 was old state    257
 New state    262 was old state    258
 New state    263 was old state    267
 New state    264 was old state    271
 New state    265 was old state    268
 New state    266 was old state    270
 New state    267 was old state    261
 New state    268 was old state    262
 New state    269 was old state    264
 New state    270 was old state    263
 New state    271 was old state    273
 New state    272 was old state    274
 New state    273 was old state    276
 New state    274 was old state    275
 New state    275 was old state    272
 New state    276 was old state    277
 New state    277 was old state    278
 New state    278 was old state    284
 New state    279 was old state    282
 New state    280 was old state    281
 New state    281 was old state    280
 New state    282 was old state    279
 New state    283 was old state    269
 New state    284 was old state    293
 New state    285 was old state    292
 New state    286 was old state    291
 New state    287 was old state    285
 New state    288 was old state    286
 New state    289 was old state    288
 New state    290 was old state    289
 New state    291 was old state    290
 New state    292 was old state    287
 New state    293 was old state    297
 New state    295 was old state    296
 New state    296 was old state    300
 New state    297 was old state    301
 New state    298 was old state    295
 New state    299 was old state    305
 New state    300 was old state    304
 New state    301 was old state    303
 New state    303 was old state    299
 New state    304 was old state    298
 New state    305 was old state    309
 New state    306 was old state    308
 New state    308 was old state    315
 New state    309 was old state    310
 New state    310 was old state    312
 New state    311 was old state    306
 New state    312 was old state    314
 New state    314 was old state    311
 New state    315 was old state    316
 New state    316 was old state    317
 New state    317 was old state    327
 New state    318 was old state    319
 New state    319 was old state    318
 New state    320 was old state    323
 New state    321 was old state    325
 New state    322 was old state    324
 New state    323 was old state    321
 New state    324 was old state    322
 New state    325 was old state    320
 New state    327 was old state    329
 New state    329 was old state    333
 New state    330 was old state    331
 New state    331 was old state    332
 New state    332 was old state    334
 New state    333 was old state    338
 New state    334 was old state    336
 New state    336 was old state    343
 New state    338 was old state    330
 New state    339 was old state    341
 New state    340 was old state    342
 New state    341 was old state    340
 New state    342 was old state    339
 New state    343 was old state    345
 No map to state    345
 New state    351 was old state    352
 New state    352 was old state    351
 New state    356 was old state    365
 New state    357 was old state    366
 New state    358 was old state    356
 New state    359 was old state    362
 New state    361 was old state    359
 New state    362 was old state    363
 New state    363 was old state    364
 New state    364 was old state    358
 New state    365 was old state    357
 New state    366 was old state    361
 New state    367 was old state    368
 New state    368 was old state    367
 New state    369 was old state    372
 New state    371 was old state    369
 New state    372 was old state    376
 New state    373 was old state    375
 New state    375 was old state    373
 New state    376 was old state    371
 New state    378 was old state    382
 New state    379 was old state    380
 New state    380 was old state    383
 New state    381 was old state    379
 New state    382 was old state    378
 New state    383 was old state    381
 New state    388 was old state    390
 New state    389 was old state    391
 New state    390 was old state    395
 New state    391 was old state    394
 New state    392 was old state    388
 New state    393 was old state    389
 New state    394 was old state    393
 New state    395 was old state    392
 New state    396 was old state    397
 New state    397 was old state    396
 New state    402 was old state    403
 New state    403 was old state    404
 New state    404 was old state    402
 New state    405 was old state    410
 New state    406 was old state    411
 New state    408 was old state    406
 New state    409 was old state    408
 New state    410 was old state    409
 New state    411 was old state    405
 New state    413 was old state    414
 New state    414 was old state    413
 New state    415 was old state    418
 New state    416 was old state    415
 New state    417 was old state    416
 New state    418 was old state    420
 New state    420 was old state    417
 New state    425 was old state    427
 New state    426 was old state    425
 New state    427 was old state    428
 New state    428 was old state    426
 New state    430 was old state    433
 New state    431 was old state    434
 New state    432 was old state    430
 New state    433 was old state    431
 New state    434 was old state    432
 New state    435 was old state    436
 New state    436 was old state    435
 New state    438 was old state    439
 New state    439 was old state    438
 New state    441 was old state    444
 New state    442 was old state    443
 New state    443 was old state    441
 New state    444 was old state    442
 New state    447 was old state    448
 New state    448 was old state    447
 New state    449 was old state    451
 New state    450 was old state    452
 New state    451 was old state    450
 New state    452 was old state    449
 New state    456 was old state    460
 New state    457 was old state    459
 New state    458 was old state    461
 New state    459 was old state    457
 New state    460 was old state    456
 New state    461 was old state    458
 New state    463 was old state    464
 New state    464 was old state    463
 New state    470 was old state    471
 New state    471 was old state    470
 New state    474 was old state    477
 New state    475 was old state    476
 New state    476 was old state    475
 New state    477 was old state    474
 New state    478 was old state    480
 New state    479 was old state    478
 New state    480 was old state    479
 New state    482 was old state    484
 New state    483 was old state    486
 New state    484 was old state    483
 New state    486 was old state    482
 New state    487 was old state    488
 New state    488 was old state    487
 New state    489 was old state    490
 New state    490 was old state    489
 New state    493 was old state    494
 New state    494 was old state    493
 New state    495 was old state    496
 New state    496 was old state    495
 New state    498 was old state    500
 New state    499 was old state    501
 New state    500 was old state    498
 New state    501 was old state    499
 New state    502 was old state    503
 New state    503 was old state    502
 New state    512 was old state    514
 New state    514 was old state    512
 New state    515 was old state    516
 New state    516 was old state    515
 New state    518 was old state    520
 New state    520 was old state    518
 New state    521 was old state    522
 New state    522 was old state    521
 New state    523 was old state    525
 New state    524 was old state    526
 New state    525 was old state    524
 New state    526 was old state    523
 New state    529 was old state    531
 New state    530 was old state    532
 New state    531 was old state    530
 New state    532 was old state    529
 New state    533 was old state    538
 New state    534 was old state    537
 New state    535 was old state    539
 New state    536 was old state    534
 New state    537 was old state    536
 New state    538 was old state    535
 New state    539 was old state    533
 New state    540 was old state    543
 New state    541 was old state    542
 New state    542 was old state    541
 New state    543 was old state    540
 New state    548 was old state    549
 New state    549 was old state    548
 New state    552 was old state    553
 New state    553 was old state    552
 Excitation Energies [eV] at current iteration:
 Root      1 :     9.227740707599837
 Root      2 :     9.227745152071225
 Root      3 :    10.066776573894140
 Root      4 :    10.210279000877580
 Root      5 :    10.210279220706790
 Root      6 :    11.024492654797610
 Root      7 :    11.241481802520910
 Root      8 :    11.241482445658140
 Root      9 :    11.248702184858480
 Root     10 :    11.568517726697810
 Root     11 :    11.590908586299900
 Root     12 :    11.803457344908380
 Root     13 :    11.803458827210370
 Root     14 :    11.813495075955460
 Root     15 :    11.960791923797120
 Root     16 :    11.960792360315340
 Root     17 :    12.026053743950740
 Root     18 :    12.026056137582200
 Root     19 :    12.269510741885370
 Root     20 :    12.269511268945890
 Root     21 :    12.341240110205940
 Root     22 :    12.341240289991620
 Root     23 :    12.911152419811360
 Root     24 :    12.948239523804600
 Root     25 :    12.948239942530780
 Root     26 :    13.264882633026430
 Root     27 :    13.264882862765760
 Root     28 :    13.338331598679630
 Root     29 :    13.382986270493150
 Root     30 :    13.554496893660420
 Root     31 :    13.554497282842480
 Root     32 :    13.790942471097350
 Root     33 :    13.818321580083950
 Root     34 :    13.818321643529640
 Root     35 :    13.887756227555720
 Root     36 :    13.902109548911990
 Root     37 :    13.902109744711510
 Root     38 :    14.115724649218110
 Root     39 :    14.137413271224020
 Root     40 :    14.137414178716320
 Root     41 :    14.245831971945700
 Root     42 :    14.315319162449070
 Root     43 :    14.315320350221540
 Root     44 :    14.417101306527560
 Root     45 :    14.761482712406310
 Root     46 :    14.761483417670060
 Root     47 :    14.975511834659720
 Root     48 :    15.042690857151290
 Root     49 :    15.065864629405710
 Root     50 :    15.196414164373280
 Root     51 :    15.196415224198010
 Root     52 :    15.382047947531430
 Root     53 :    15.446126931226650
 Root     54 :    15.446127812263810
 Root     55 :    15.972716236022920
 Root     56 :    15.972716254647800
 Root     57 :    16.023223765313280
 Root     58 :    16.074083106390540
 Root     59 :    16.074083178785100
 Root     60 :    16.175512039583130
 Root     61 :    16.202142513459390
 Root     62 :    16.225438368341670
 Root     63 :    16.225439322704670
 Root     64 :    16.495926231274990
 Root     65 :    16.495927612819490
 Root     66 :    16.537508853623810
 Root     67 :    16.548229356788550
 Root     68 :    16.548229442029730
 Root     69 :    17.011001876776890
 Root     70 :    17.105787587596190
 Root     71 :    17.105796762543700
 Root     72 :    17.287636758880520
 Root     73 :    17.287641123229070
 Root     74 :    17.581033382446670
 Root     75 :    17.797380436752080
 Root     76 :    17.810747066914840
 Root     77 :    17.810747866643360
 Root     78 :    17.834482329530710
 Root     79 :    17.942056324102640
 Root     80 :    18.009080700760070
 Root     81 :    18.031770708350870
 Root     82 :    18.342882314731370
 Root     83 :    18.375523134195070
 Root     84 :    18.375524207316430
 Root     85 :    18.500420277011330
 Root     86 :    18.573449181715110
 Root     87 :    18.573452018084950
 Root     88 :    18.717298693316130
 Root     89 :    18.717300009493000
 Root     90 :    18.726851473956260
 Root     91 :    18.726852946863600
 Root     92 :    18.765695798271790
 Root     93 :    18.903851592990310
 Root     94 :    18.903853874493490
 Root     95 :    18.988567957542650
 Root     96 :    19.034350872214760
 Root     97 :    19.034351383915200
 Root     98 :    19.043235018834390
 Root     99 :    19.043235504052300
 Root    100 :    19.155284911937120
 Root    101 :    19.247310078768990
 Root    102 :    19.247310715752150
 Root    103 :    19.364961342304180
 Root    104 :    19.364962128860340
 Root    105 :    19.413412936507670
 Root    106 :    19.493550857524050
 Root    107 :    19.493551526062720
 Root    108 :    19.549099200860150
 Root    109 :    19.549099482697040
 Root    110 :    19.551122805369470
 Root    111 :    19.645044592888650
 Root    112 :    19.645045818224070
 Root    113 :    19.665536436086750
 Root    114 :    19.991056780717310
 Root    115 :    19.991059006947400
 Root    116 :    20.168857614191530
 Root    117 :    20.174631965524250
 Root    118 :    20.174632727781150
 Root    119 :    20.440965952101330
 Root    120 :    20.440966195464290
 Root    121 :    20.500888310740720
 Root    122 :    20.777829981769620
 Root    123 :    20.801592300252810
 Root    124 :    20.801592337320950
 Root    125 :    20.826209255023060
 Root    126 :    20.974716367003820
 Root    127 :    21.019035652153040
 Root    128 :    21.019036055292820
 Root    129 :    21.077572262761250
 Root    130 :    21.141087577811040
 Root    131 :    21.141088351902090
 Root    132 :    21.315929900316440
 Root    133 :    21.315933013824730
 Root    134 :    21.381101930514320
 Root    135 :    21.381102159163210
 Root    136 :    21.382053089792120
 Root    137 :    21.484433500583030
 Root    138 :    21.484434593201250
 Root    139 :    21.488697672368380
 Root    140 :    21.488699131399900
 Root    141 :    21.554365095575890
 Root    142 :    21.676029340048650
 Root    143 :    21.709724488646450
 Root    144 :    21.792333820769670
 Root    145 :    21.839609663597800
 Root    146 :    21.842238255986930
 Root    147 :    21.842238988164750
 Root    148 :    22.021630808288320
 Root    149 :    22.021632805258640
 Root    150 :    22.022190351508110
 Root    151 :    22.065656951905580
 Root    152 :    22.065657725745030
 Root    153 :    22.066808209304060
 Root    154 :    22.093733277804770
 Root    155 :    22.160651871894180
 Root    156 :    22.160653661431910
 Root    157 :    22.275440361624220
 Root    158 :    22.325299675916690
 Root    159 :    22.338020840664190
 Root    160 :    22.338023392944020
 Root    161 :    22.360422031588710
 Root    162 :    22.360423051060450
 Root    163 :    22.568114156787840
 Root    164 :    22.568114326779820
 Root    165 :    22.575300392120330
 Root    166 :    22.575300637683090
 Root    167 :    22.746135379575990
 Root    168 :    22.746135642136170
 Root    169 :    22.901566715070590
 Root    170 :    22.901567146670260
 Root    171 :    22.902774425846450
 Root    172 :    22.938158874071090
 Root    173 :    23.033374592327310
 Root    174 :    23.033374905603420
 Root    175 :    23.133419486887940
 Root    176 :    23.225347748834470
 Root    177 :    23.225348532487280
 Root    178 :    23.322522757613110
 Root    179 :    23.322523087244490
 Root    180 :    23.553107519819430
 Root    181 :    23.553107568532470
 Root    182 :    23.688107708390560
 Root    183 :    23.918511982024940
 Root    184 :    24.125953468921560
 Root    185 :    24.125954588656500
 Root    186 :    24.217915011665230
 Root    187 :    24.329088645572470
 Root    188 :    24.329089413017930
 Root    189 :    24.374786192931500
 Root    190 :    24.529117922725010
 Root    191 :    24.539011495205460
 Root    192 :    24.639144188846390
 Root    193 :    24.661775541109530
 Root    194 :    24.661776604441930
 Root    195 :    24.668687002482380
 Root    196 :    24.668688986250710
 Root    197 :    24.743873402532660
 Root    198 :    24.802283233437990
 Root    199 :    24.802283351872480
 Root    200 :    24.842770963637620
 Root    201 :    24.842774314803680
 Root    202 :    24.846209518961430
 Root    203 :    24.972016738052540
 Root    204 :    24.981641398137150
 Root    205 :    25.155234642607230
 Root    206 :    25.155234680377880
 Root    207 :    25.183445870792160
 Root    208 :    25.866919771278270
 Root    209 :    25.873167555906720
 Root    210 :    25.873168075474030
 Root    211 :    25.910292534951690
 Root    212 :    26.133776153525020
 Root    213 :    26.133777298683810
 Root    214 :    26.151994113620780
 Root    215 :    26.151994290604660
 Root    216 :    26.246582860375470
 Root    217 :    26.249958169403890
 Root    218 :    26.249958254779760
 Root    219 :    26.459820152930580
 Root    220 :    26.483008395313780
 Root    221 :    26.701857469841260
 Root    222 :    26.701857630526450
 Root    223 :    27.196412186642240
 Root    224 :    27.196412340419260
 Root    225 :    27.433949218655710
 Root    226 :    27.585561502132910
 Root    227 :    28.165118796930940
 Root    228 :    28.691839127963780
 Root    229 :    28.869173449570570
 Root    230 :    29.124753119847970
 Root    231 :    29.320197268253440
 Root    232 :    29.320197395318720
 Root    233 :    29.612477210559700
 Root    234 :    29.612477379297100
 Root    235 :    29.713056167422850
 Root    236 :    29.713056303212350
 Root    237 :    29.917603777512070
 Root    238 :    29.917604188588200
 Root    239 :    30.011442208188500
 Root    240 :    30.145237018222540
 Root    241 :    30.199356464046820
 Root    242 :    30.199356499739850
 Root    243 :    30.312690076635050
 Root    244 :    30.312690554297160
 Root    245 :    30.899955430855000
 Root    246 :    30.943878190045080
 Root    247 :    30.967561848631170
 Root    248 :    30.967562212938010
 Root    249 :    31.161275631891560
 Root    250 :    31.161276009664050
 Root    251 :    31.536537067619480
 Root    252 :    31.581938971957290
 Root    253 :    31.687908525675750
 Root    254 :    31.687908944716880
 Root    255 :    32.583937542552580
 Root    256 :    32.855877658295400
 Root    257 :    32.855880251505730
 Root    258 :    33.009962290332530
 Root    259 :    33.114583093041610
 Root    260 :    33.114583896287680
 Root    261 :    33.141090390019020
 Root    262 :    33.141090429429160
 Root    263 :    33.148762717651880
 Root    264 :    33.320646419019770
 Root    265 :    33.360545583992940
 Root    266 :    33.360545683440080
 Root    267 :    33.418409139177660
 Root    268 :    33.418409726158910
 Root    269 :    33.523667226855250
 Root    270 :    33.523667265242580
 Root    271 :    33.856210552787630
 Root    272 :    33.856210879802350
 Root    273 :    34.359351588772680
 Root    274 :    34.359351609045050
 Root    275 :    34.653264390890460
 Root    276 :    34.788607721961840
 Root    277 :    34.788608124074540
 Root    278 :    34.902281872919150
 Root    279 :    34.902283514146630
 Root    280 :    34.955736453914210
 Root    281 :    35.136047804214600
 Root    282 :    35.136049408479810
 Root    283 :    35.189775490274940
 Root    284 :    35.637034842004190
 Root    285 :    35.685822631827370
 Root    286 :    35.685823757525480
 Root    287 :    36.014387044018900
 Root    288 :    36.014387225079510
 Root    289 :    36.174284755679120
 Root    290 :    36.262686880641840
 Root    291 :    36.262687074400780
 Root    292 :    36.290682172322530
 Root    293 :    37.071567743101250
 Root    294 :    37.312406761384290
 Root    295 :    37.312408106207820
 Root    296 :    37.407698101619640
 Root    297 :    37.407700083409400
 Root    298 :    37.457778281955210
 Root    299 :    37.960235232666560
 Root    300 :    37.965225628693830
 Root    301 :    37.965226348295790
 Root    302 :    38.033040861237880
 Root    303 :    38.055828021642220
 Root    304 :    38.055828345404120
 Root    305 :    38.295475840249760
 Root    306 :    38.583558787645760
 Root    307 :    38.583559053310130
 Root    308 :    38.865565999068320
 Root    309 :    38.885404035455650
 Root    310 :    39.575606932339970
 Root    311 :    39.899415621058820
 Root    312 :    39.900778088297320
 Root    313 :    39.900779427065420
 Root    314 :    40.185934481787950
 Root    315 :    40.379710918521210
 Root    316 :    40.379712333578110
 Root    317 :    40.967841137193520
 Root    318 :    41.003943314857300
 Root    319 :    41.003943461311100
 Root    320 :    41.147657114178350
 Root    321 :    41.409239034057040
 Root    322 :    41.409239984028550
 Root    323 :    41.432308186097610
 Root    324 :    41.635654857540610
 Root    325 :    41.635655102965150
 Root    326 :    41.930049569930220
 Root    327 :    42.922165013352930
 Root    328 :    42.922165112398180
 Root    329 :    43.283689171003820
 Root    330 :    43.389445948524180
 Root    331 :    43.389446375473940
 Root    332 :    43.617154777749020
 Root    333 :    43.674962035439090
 Root    334 :    43.963647612857870
 Root    335 :    43.963648761983330
 Root    336 :    44.112648636395850
 Root    337 :    44.219556714969710
 Root    338 :    44.314389001015540
 Root    339 :    44.644646649990260
 Root    340 :    44.644646765062720
 Root    341 :    44.933299254752360
 Root    342 :    44.933299521586960
 Root    343 :    45.893196243149660
 Root    344 :    45.893197453341490
 Root    345 :    46.340141523994350
 Root    346 :    46.676700558476550
 Root    347 :    46.676700834584010
 Root    348 :    47.085653441321960
 Root    349 :    48.510068907391810
 Root    350 :    48.510069636096080
 Root    351 :    48.903937279194660
 Root    352 :    48.903937341235890
 Root    353 :    49.529925303944000
 Root    354 :    51.026660673008560
 Root    355 :    51.376007644694130
 Root    356 :    51.666526194079540
 Root    357 :    51.666526381551740
 Root    358 :    51.858339495622730
 Root    359 :    51.953420422578290
 Root    360 :    52.262821911105470
 Root    361 :    52.262822377435650
 Root    362 :    52.358570484157000
 Root    363 :    52.358570511906900
 Root    364 :    52.568033727190560
 Root    365 :    52.568033870882570
 Root    366 :    52.722019205986680
 Root    367 :    52.902111130423010
 Root    368 :    52.902111323188890
 Root    369 :    54.299142509711650
 Root    370 :    54.392440602657390
 Root    371 :    54.392441113693310
 Root    372 :    54.526662116278680
 Root    373 :    54.526662302631730
 Root    374 :    54.556654881933950
 Root    375 :    54.631001235557470
 Root    376 :    54.631001663402540
 Root    377 :    54.670111643769620
 Root    378 :    54.805782184760590
 Root    379 :    54.895774050470910
 Root    380 :    55.022563644090680
 Root    381 :    55.186711690462810
 Root    382 :    55.223336937249410
 Root    383 :    55.223337579791260
 Root    384 :    57.279014293884020
 Root    385 :    57.279014427088290
 Root    386 :    57.459970501248740
 Root    387 :    57.459970503821150
 Root    388 :    58.892946799256220
 Root    389 :    58.892946954648920
 Root    390 :    58.930662203360950
 Root    391 :    58.930662237791530
 Root    392 :    58.934721475712360
 Root    393 :    58.963357866571580
 Root    394 :    59.396340331249570
 Root    395 :    59.396340500918910
 Root    396 :    59.445508876447820
 Root    397 :    59.445508903447900
 Root    398 :    59.978754596355150
 Root    399 :    59.978754945430110
 Root    400 :    60.068728231700980
 Root    401 :    61.324756369077760
 Root    402 :    61.324756739808280
 Root    403 :    61.386288266032150
 Root    404 :    61.390059676479100
 Root    405 :    61.394653906060740
 Root    406 :    61.394654219464680
 Root    407 :    61.671790298351660
 Root    408 :    61.671790429574100
 Root    409 :    61.688607883245620
 Root    410 :    61.809628076137340
 Root    411 :    61.883539588711010
 Root    412 :    62.058462240297370
 Root    413 :    62.601923600581120
 Root    414 :    62.601923915489960
 Root    415 :    63.081717955443060
 Root    416 :    63.088707658190120
 Root    417 :    63.088707882946580
 Root    418 :    63.110659307251080
 Root    419 :    63.110659443518140
 Root    420 :    63.382578283250030
 Root    421 :    63.603640750994280
 Root    422 :    63.603640897733540
 Root    423 :    63.686935001174540
 Root    424 :    63.686935190855090
 Root    425 :    64.575736295808600
 Root    426 :    64.595853128403120
 Root    427 :    64.595853247704840
 Root    428 :    64.925348172147340
 Root    429 :    65.762186636481020
 Root    430 :    65.900060750767350
 Root    431 :    66.001889294600870
 Root    432 :    66.002352409548350
 Root    433 :    66.104446975210150
 Root    434 :    66.104447568960820
 Root    435 :    66.423523018858280
 Root    436 :    66.423523065397250
 Root    437 :    66.668500620270180
 Root    438 :    67.541705267005300
 Root    439 :    67.541705614634180
 Root    440 :    68.136382484103310
 Root    441 :    68.712523588841390
 Root    442 :    68.853480183125040
 Root    443 :    68.853480301003840
 Root    444 :    69.045286659022960
 Root    445 :    69.235054448227730
 Root    446 :    69.235054494067820
 Root    447 :    69.489908861947800
 Root    448 :    69.489908868566500
 Root    449 :    69.851926632622250
 Root    450 :    69.851926829776730
 Root    451 :    69.967863697292830
 Root    452 :    69.967863841653710
 Root    453 :    70.224804622092730
 Root    454 :    70.919159842279060
 Root    455 :    70.919159892146170
 Root    456 :    71.233439527877480
 Root    457 :    71.510693615612210
 Root    458 :    71.510693887427240
 Root    459 :    71.539963687035650
 Root    460 :    71.539963783581950
 Root    461 :    71.559216737057500
 Root    462 :    71.982646837334680
 Root    463 :    73.154093091598640
 Root    464 :    73.154093442849610
 Root    465 :    73.843619848172050
 Root    466 :    73.843620185617380
 Root    467 :    74.558042769643890
 Root    468 :    74.558042875907320
 Root    469 :    75.133118786093990
 Root    470 :    76.160339728756720
 Root    471 :    76.160339818779780
 Root    472 :    76.719046049346820
 Root    473 :    76.919985931239220
 Root    474 :    77.072525760795160
 Root    475 :    77.072526054769040
 Root    476 :    77.123885275865830
 Root    477 :    77.123885389967540
 Root    478 :    77.462923294457780
 Root    479 :    77.665154957901280
 Root    480 :    77.665155059502950
 Root    481 :    78.413600639891600
 Root    482 :    78.814218262846240
 Root    483 :    79.201941635094190
 Root    484 :    79.201941838690290
 Root    485 :    79.316563840631030
 Root    486 :    79.458597216373860
 Root    487 :    79.505327941185810
 Root    488 :    79.505327944001880
 Root    489 :    79.990865492102390
 Root    490 :    79.990865531629100
 Root    491 :    80.401958151488070
 Root    492 :    80.401958166404400
 Root    493 :    80.438717521283680
 Root    494 :    80.492257028793320
 Root    495 :    80.545260816188230
 Root    496 :    80.545261114960550
 Root    497 :    82.505837878653270
 Root    498 :    82.519711105977140
 Root    499 :    82.678267276516560
 Root    500 :    82.718672919900920
 Root    501 :    82.718672939213290
 Root    502 :    83.396768426663460
 Root    503 :    83.396769187996700
 Root    504 :    83.923365347072040
 Root    505 :    84.518720436378470
 Root    506 :    84.518720574541310
 Root    507 :    84.844167674697050
 Root    508 :    85.804283116885670
 Root    509 :    85.804283173649030
 Root    510 :    87.209658280987970
 Root    511 :    87.209658507671040
 Root    512 :    88.286147288794880
 Root    513 :    88.516635330837500
 Root    514 :    88.516635366110780
 Root    515 :    88.978569580488980
 Root    516 :    88.978569584386350
 Root    517 :    89.460492861976460
 Root    518 :    91.112365976173760
 Root    519 :    91.112366125386290
 Root    520 :    91.151356129287020
 Root    521 :    91.263070512150750
 Root    522 :    91.263070670064150
 Root    523 :    91.365704706540940
 Root    524 :    91.365705046306490
 Root    525 :    91.371987170472120
 Root    526 :    91.659575438393030
 Root    527 :    91.875389246192100
 Root    528 :    91.875389815053080
 Root    529 :    92.993670975587760
 Root    530 :    93.071705862350430
 Root    531 :    93.071706122713880
 Root    532 :    93.291332144965270
 Root    533 :    93.856569651716260
 Root    534 :    93.856570117266780
 Root    535 :    94.541304375966600
 Root    536 :    94.716543790463220
 Root    537 :    94.716543937529510
 Root    538 :    94.730708805624060
 Root    539 :    94.749750102204500
 Root    540 :    96.303782180707240
 Root    541 :    96.393884729814870
 Root    542 :    96.436050427536560
 Root    543 :    96.436050841663930
 Root    544 :    96.702720655528710
 Root    545 :    98.965948418365310
 Root    546 :    98.965949102376670
 Root    547 :    99.951757152432930
 Root    548 :   100.830853863766300
 Root    549 :   100.830854554982000
 Root    550 :   102.986332813122600
 Root    551 :   102.986333182348800
 Root    552 :   104.869333886003800
 Root    553 :   104.869334980735600
 Convergence achieved for final wavefunctions.
 ***********************************************************************
 Excited states from <AA,BB:AA,BB> singles matrix:
 ***********************************************************************
 
 1PDM for each excited state written to RWF  633
 Ground to excited state transition densities written to RWF  633
 Ground to excited state transition electric dipole moments (Au):
       state          X           Y           Z        Dip. S.      Osc.
         1        -0.0000      0.0000      0.0000      0.0000      0.0000
         2         0.0000     -0.0000      0.0000      0.0000      0.0000
         3         0.0000     -0.0000      0.0000      0.0000      0.0000
         4        -0.7085     -0.0000     -0.0000      0.5020      0.1256
         5         0.0000     -0.7085      0.0000      0.5020      0.1256
         6         0.0000     -0.0000     -0.9759      0.9523      0.2572
         7        -0.0000      0.5208      0.0000      0.2712      0.0747
         8        -0.5208     -0.0000      0.0000      0.2712      0.0747
         9        -0.0000      0.0000      0.0000      0.0000      0.0000
        10         0.0000      0.0000     -0.0000      0.0000      0.0000
        11         0.0000     -0.0000      0.9836      0.9675      0.2748
        12         0.0000      0.0000      0.0000      0.0000      0.0000
        13         0.0000      0.0000      0.0000      0.0000      0.0000
        14        -0.0000     -0.0000      0.0000      0.0000      0.0000
        15         0.1219     -0.0000     -0.0000      0.0149      0.0044
        16         0.0000      0.1219     -0.0000      0.0149      0.0044
        17        -0.6946     -0.0000      0.0000      0.4825      0.1422
        18         0.0000     -0.6946      0.0000      0.4825      0.1422
        19        -0.0000     -0.0000      0.0000      0.0000      0.0000
        20         0.0000     -0.0000     -0.0000      0.0000      0.0000
        21        -0.0000      0.0000     -0.0000      0.0000      0.0000
        22         0.0000     -0.0000     -0.0000      0.0000      0.0000
        23         0.0000     -0.0000      0.0000      0.0000      0.0000
        24        -0.0000      0.0000     -0.0000      0.0000      0.0000
        25        -0.0000     -0.0000     -0.0000      0.0000      0.0000
        26        -0.0000     -0.0000     -0.0000      0.0000      0.0000
        27        -0.0000     -0.0000      0.0000      0.0000      0.0000
        28        -0.0000     -0.0000      0.0000      0.0000      0.0000
        29        -0.0000     -0.0000      0.0000      0.0000      0.0000
        30         0.0258      0.0000      0.0000      0.0007      0.0002
        31        -0.0000      0.0258      0.0000      0.0007      0.0002
        32        -0.0000     -0.0000     -0.0000      0.0000      0.0000
        33        -0.0000     -0.0000     -0.0000      0.0000      0.0000
        34        -0.0000      0.0000     -0.0000      0.0000      0.0000
        35         0.0000     -0.0000     -0.7193      0.5173      0.1760
        36        -0.0000      0.7116     -0.0000      0.5064      0.1725
        37         0.7116      0.0000      0.0000      0.5064      0.1725
        38         0.0000     -0.0000     -0.0000      0.0000      0.0000
        39        -0.0000      0.0000     -0.0000      0.0000      0.0000
        40        -0.0000     -0.0000      0.0000      0.0000      0.0000
        41        -0.0000     -0.0000     -0.0930      0.0086      0.0030
        42         0.1607      0.0000      0.0000      0.0258      0.0091
        43        -0.0000      0.1607     -0.0000      0.0258      0.0091
        44         0.0000     -0.0000     -0.0000      0.0000      0.0000
        45        -1.0175      0.0000      0.0000      1.0353      0.3744
        46         0.0000      1.0175      0.0000      1.0353      0.3744
        47        -0.0000      0.0000      0.0000      0.0000      0.0000
        48         0.0000      0.0000     -0.0000      0.0000      0.0000
        49         0.0000      0.0000      0.7674      0.5889      0.2174
        50         0.0000     -0.8121      0.0000      0.6596      0.2456
        51         0.8121      0.0000      0.0000      0.6596      0.2456
        52        -0.0000      0.0000      1.3774      1.8973      0.7150
        53         0.4303     -0.0000      0.0000      0.1852      0.0701
        54         0.0000      0.4303     -0.0000      0.1852      0.0701
        55         0.4268     -0.0000      0.0000      0.1822      0.0713
        56         0.0000      0.4269     -0.0000      0.1822      0.0713
        57        -0.0000     -0.0000      0.0000      0.0000      0.0000
        58         0.0000      0.6708     -0.0000      0.4499      0.1772
        59         0.6708     -0.0000      0.0000      0.4500      0.1772
        60        -0.0000      0.0000     -0.0926      0.0086      0.0034
        61        -0.0000      0.0000      0.0000      0.0000      0.0000
        62        -0.0000     -0.0000     -0.0000      0.0000      0.0000
        63        -0.0000     -0.0000     -0.0000      0.0000      0.0000
        64         0.0000      0.3549      0.0000      0.1260      0.0509
        65         0.3549     -0.0000     -0.0000      0.1260      0.0509
        66         0.0000      0.0000     -0.0000      0.0000      0.0000
        67         0.0000      0.0000     -0.0000      0.0000      0.0000
        68        -0.0000      0.0000     -0.0000      0.0000      0.0000
        69        -0.0000      0.0000     -0.3351      0.1123      0.0468
        70        -0.0000      0.0000      0.0000      0.0000      0.0000
        71        -0.0000      0.0000     -0.0000      0.0000      0.0000
        72        -0.1828      0.0000     -0.0000      0.0334      0.0142
        73         0.0000      0.1828      0.0000      0.0334      0.0142
        74        -0.0000      0.0000      0.8518      0.7256      0.3125
        75        -0.0000      0.0000      0.0000      0.0000      0.0000
        76        -0.0000     -0.0000     -0.0000      0.0000      0.0000
        77        -0.0000     -0.0000      0.0000      0.0000      0.0000
        78         0.0000      0.0000      0.0000      0.0000      0.0000
        79         0.0000     -0.0000     -0.0000      0.0000      0.0000
        80         0.0000      0.0000     -0.0000      0.0000      0.0000
        81        -0.0000      0.0000      0.0000      0.0000      0.0000
        82        -0.0000      0.0000      0.0000      0.0000      0.0000
        83         0.4783      0.0000      0.0000      0.2288      0.1030
        84        -0.0000      0.4783     -0.0000      0.2288      0.1030
        85         0.0000     -0.0000     -0.0000      0.0000      0.0000
        86        -0.0000     -0.0000      0.0000      0.0000      0.0000
        87        -0.0000      0.0000     -0.0000      0.0000      0.0000
        88        -0.0000     -0.0000      0.0000      0.0000      0.0000
        89         0.0000      0.0000     -0.0000      0.0000      0.0000
        90         0.5302     -0.0000      0.0000      0.2811      0.1290
        91         0.0000      0.5302     -0.0000      0.2811      0.1290
        92        -0.0000      0.0000     -0.0000      0.0000      0.0000
        93        -0.0000     -0.0000      0.0000      0.0000      0.0000
        94         0.0000      0.0000     -0.0000      0.0000      0.0000
        95         0.0000     -0.0000     -0.7700      0.5929      0.2758
        96        -0.0000     -0.0000      0.0000      0.0000      0.0000
        97        -0.0000      0.0000     -0.0000      0.0000      0.0000
        98        -0.0166     -0.0000      0.0000      0.0003      0.0001
        99         0.0000     -0.0166      0.0000      0.0003      0.0001
       100        -0.0000      0.0000      0.3252      0.1057      0.0496
       101         0.0000     -0.0000      0.0000      0.0000      0.0000
       102        -0.0000     -0.0000      0.0000      0.0000      0.0000
       103         0.3492      0.0000      0.0000      0.1220      0.0579
       104        -0.0000      0.3492      0.0000      0.1220      0.0579
       105         0.0000      0.0000     -0.0000      0.0000      0.0000
       106         0.0000      0.0000     -0.0000      0.0000      0.0000
       107         0.0000      0.0000     -0.0000      0.0000      0.0000
       108        -0.3834      0.0000     -0.0000      0.1470      0.0704
       109        -0.0000     -0.3835     -0.0000      0.1470      0.0704
       110        -0.0000     -0.0000     -0.0000      0.0000      0.0000
       111        -0.0000      0.0000      0.0000      0.0000      0.0000
       112         0.0000     -0.0000     -0.0000      0.0000      0.0000
       113        -0.0000     -0.0000     -0.0000      0.0000      0.0000
       114         0.2830      0.0000      0.0000      0.0801      0.0392
       115        -0.0000      0.2830     -0.0000      0.0801      0.0392
       116         0.0000     -0.0000     -0.3262      0.1064      0.0526
       117        -0.0000      0.0000     -0.0000      0.0000      0.0000
       118        -0.0000     -0.0000     -0.0000      0.0000      0.0000
       119        -0.0000     -0.0000      0.0000      0.0000      0.0000
       120        -0.0000      0.0000     -0.0000      0.0000      0.0000
       121         0.0000      0.0000     -0.5263      0.2770      0.1391
       122        -0.0000     -0.0000      0.0000      0.0000      0.0000
       123        -0.0000      0.3685     -0.0000      0.1358      0.0692
       124         0.3685      0.0000      0.0000      0.1358      0.0692
       125        -0.0000      0.0000      0.0000      0.0000      0.0000
       126        -0.0000     -0.0000     -0.0000      0.0000      0.0000
       127        -0.0000     -0.0000      0.0000      0.0000      0.0000
       128         0.0000     -0.0000      0.0000      0.0000      0.0000
       129         0.0000      0.0000      0.0000      0.0000      0.0000
       130        -0.0000      0.0000      0.0000      0.0000      0.0000
       131         0.0000     -0.0000      0.0000      0.0000      0.0000
       132        -0.0000      0.3904     -0.0000      0.1524      0.0796
       133         0.3904      0.0000      0.0000      0.1524      0.0796
       134         0.0000     -0.0000      0.0000      0.0000      0.0000
       135        -0.0000     -0.0000      0.0000      0.0000      0.0000
       136        -0.0000      0.0000      0.2049      0.0420      0.0220
       137        -0.0000     -0.0000     -0.0000      0.0000      0.0000
       138         0.0000     -0.0000      0.0000      0.0000      0.0000
       139        -0.2229      0.0000     -0.0000      0.0497      0.0262
       140        -0.0000     -0.2229      0.0000      0.0497      0.0262
       141        -0.0000     -0.0000     -0.0000      0.0000      0.0000
       142         0.0000     -0.0000     -0.0000      0.0000      0.0000
       143        -0.0000     -0.0000     -0.0000      0.0000      0.0000
       144         0.0000     -0.0000     -0.0000      0.0000      0.0000
       145         0.0000      0.0000      0.0818      0.0067      0.0036
       146        -0.0000      0.0000      0.0000      0.0000      0.0000
       147        -0.0000      0.0000     -0.0000      0.0000      0.0000
       148         0.0000      0.0000     -0.0000      0.0000      0.0000
       149        -0.0000      0.0000      0.0000      0.0000      0.0000
       150        -0.0000      0.0000     -0.0000      0.0000      0.0000
       151        -0.5253     -0.0000     -0.0000      0.2759      0.1492
       152        -0.0000      0.5253     -0.0000      0.2759      0.1492
       153         0.0000     -0.0002     -0.0955      0.0091      0.0049
       154        -0.0000      0.0000     -0.0000      0.0000      0.0000
       155        -0.0000      0.0000      0.0000      0.0000      0.0000
       156         0.0000     -0.0000      0.0000      0.0000      0.0000
       157        -0.0000     -0.0000     -0.0000      0.0000      0.0000
       158         0.0000     -0.0000     -0.0000      0.0000      0.0000
       159         0.1022     -0.0000     -0.0000      0.0104      0.0057
       160         0.0000      0.1022     -0.0000      0.0104      0.0057
       161        -0.0000     -0.0000     -0.0000      0.0000      0.0000
       162        -0.0000     -0.0000      0.0000      0.0000      0.0000
       163         0.0000      0.0000      0.0000      0.0000      0.0000
       164         0.0000     -0.0000     -0.0000      0.0000      0.0000
       165         0.2318      0.0000     -0.0000      0.0537      0.0297
       166        -0.0000      0.2318     -0.0000      0.0537      0.0297
       167         0.0667     -0.0000     -0.0000      0.0045      0.0025
       168        -0.0000     -0.0667     -0.0000      0.0045      0.0025
       169         0.2089     -0.0000     -0.0000      0.0436      0.0245
       170         0.0000      0.2089      0.0000      0.0436      0.0245
       171         0.0000      0.0000     -0.0000      0.0000      0.0000
       172         0.0000     -0.0000      0.2152      0.0463      0.0260
       173        -0.0000      0.0000     -0.0000      0.0000      0.0000
       174         0.0000      0.0000     -0.0000      0.0000      0.0000
       175        -0.0000     -0.0000      0.0000      0.0000      0.0000
       176         0.0000     -0.1567      0.0000      0.0246      0.0140
       177        -0.1567     -0.0000      0.0000      0.0246      0.0140
       178         0.0000      0.0000      0.0000      0.0000      0.0000
       179        -0.0000     -0.0000     -0.0000      0.0000      0.0000
       180         0.4223     -0.0000     -0.0000      0.1783      0.1029
       181         0.0000      0.4223      0.0000      0.1783      0.1029
       182         0.0000      0.0000     -0.9519      0.9061      0.5259
       183        -0.0000     -0.0000     -0.4864      0.2365      0.1386
       184         0.0000      0.2930     -0.0000      0.0859      0.0507
       185         0.2930     -0.0000     -0.0000      0.0859      0.0507
       186        -0.0000     -0.0000      0.0000      0.0000      0.0000
       187         0.3194      0.0000      0.0000      0.1020      0.0608
       188        -0.0000      0.3194      0.0000      0.1020      0.0608
       189         0.0000      0.0000     -0.0000      0.0000      0.0000
       190         0.0000      0.0000      0.1526      0.0233      0.0140
       191        -0.0000     -0.0000      0.0000      0.0000      0.0000
       192        -0.0000      0.0000     -0.0000      0.0000      0.0000
       193        -0.0000     -0.6362      0.0000      0.4048      0.2446
       194        -0.6362      0.0000     -0.0000      0.4048      0.2446
       195         0.0000      0.0000      0.0000      0.0000      0.0000
       196         0.0000      0.0000      0.0000      0.0000      0.0000
       197        -0.0000     -0.0000      0.0000      0.0000      0.0000
       198         0.0000      0.0000     -0.0000      0.0000      0.0000
       199        -0.0000     -0.0000      0.0000      0.0000      0.0000
       200        -0.7172     -0.0000      0.0000      0.5143      0.3131
       201         0.0000     -0.7172     -0.0000      0.5143      0.3131
       202         0.0000     -0.0001      0.1509      0.0228      0.0139
       203        -0.0000      0.0000      0.0000      0.0000      0.0000
       204         0.0000      0.0000     -0.0000      0.0000      0.0000
       205         0.0000      0.4220     -0.0000      0.1781      0.1098
       206         0.4220     -0.0000     -0.0000      0.1781      0.1098
       207         0.0000      0.0000      0.1720      0.0296      0.0183
       208        -0.0000     -0.0000     -0.3084      0.0951      0.0603
       209        -0.0000     -0.0000      0.0000      0.0000      0.0000
       210         0.0000     -0.0000     -0.0000      0.0000      0.0000
       211        -0.0000      0.0000     -0.0000      0.0000      0.0000
       212         0.0000     -0.0000     -0.0000      0.0000      0.0000
       213         0.0000     -0.0000      0.0000      0.0000      0.0000
       214        -0.0000      0.0449      0.0000      0.0020      0.0013
       215         0.0449      0.0000      0.0000      0.0020      0.0013
       216         0.0000     -0.0000      0.0000      0.0000      0.0000
       217         0.0000      0.0000      0.0000      0.0000      0.0000
       218        -0.0000      0.0000      0.0000      0.0000      0.0000
       219         0.0000      0.0000     -0.0591      0.0035      0.0023
       220        -0.0000     -0.0000      0.0000      0.0000      0.0000
       221        -0.0474      0.0000      0.0000      0.0022      0.0015
       222        -0.0000     -0.0474      0.0000      0.0022      0.0015
       223         0.0000     -0.0245      0.0000      0.0006      0.0004
       224        -0.0245     -0.0000      0.0000      0.0006      0.0004
       225        -0.0000     -0.0000      0.0000      0.0000      0.0000
       226        -0.0000     -0.0000      0.0000      0.0000      0.0000
       227        -0.0000     -0.0000     -0.0288      0.0008      0.0006
       228        -0.0000      0.0000      0.0000      0.0000      0.0000
       229         0.0000      0.0000     -0.0000      0.0000      0.0000
       230        -0.0000     -0.0000      0.1850      0.0342      0.0244
       231         0.0000     -0.1842     -0.0000      0.0339      0.0244
[...]
      7   0.301171D+00  0.000000D+00  0.000000D+00  0.000000D+00  0.000000D+00
      8   0.000000D+00  0.000000D+00  0.000000D+00 -0.368352D-02  0.000000D+00
      9   0.000000D+00  0.000000D+00 -0.368350D-02  0.000000D+00  0.000000D+00
     10   0.000000D+00  0.424150D+00  0.000000D+00  0.000000D+00  0.000000D+00
     11   0.000000D+00  0.000000D+00  0.000000D+00 -0.262343D+00  0.401338D+00
     12   0.000000D+00  0.000000D+00  0.000000D+00  0.262341D+00  0.401338D+00
     13   0.000000D+00  0.000000D+00  0.000000D+00  0.000000D+00  0.743193D-01
     14   0.000000D+00  0.000000D+00  0.262342D+00  0.000000D+00  0.000000D+00
     15   0.000000D+00  0.000000D+00 -0.190889D+00  0.000000D+00  0.000000D+00
     16   0.000000D+00  0.000000D+00  0.000000D+00  0.190889D+00  0.000000D+00
               486           487           488           489           490 
      1  -0.767973D+02 -0.767956D+02 -0.767956D+02 -0.767778D+02 -0.767778D+02
      2   0.000000D+00  0.000000D+00  0.000000D+00  0.000000D+00  0.000000D+00
      3   0.000000D+00  0.000000D+00  0.000000D+00  0.000000D+00  0.000000D+00
      4  -0.370259D-01  0.000000D+00  0.000000D+00  0.000000D+00  0.000000D+00
      5   0.000000D+00  0.000000D+00  0.000000D+00  0.000000D+00  0.000000D+00
      6   0.000000D+00  0.000000D+00  0.000000D+00  0.000000D+00  0.000000D+00
      7   0.413493D-01  0.000000D+00  0.000000D+00  0.000000D+00  0.000000D+00
      8   0.000000D+00  0.000000D+00 -0.433736D-01  0.000000D+00 -0.683442D-01
      9   0.000000D+00  0.433737D-01  0.000000D+00  0.683439D-01  0.000000D+00
     10   0.000000D+00  0.000000D+00  0.000000D+00  0.000000D+00  0.000000D+00
     11   0.000000D+00 -0.603153D-05 -0.411075D+00  0.000000D+00  0.127906D+00
     12   0.000000D+00  0.603154D-05  0.411076D+00  0.000000D+00 -0.127906D+00
     13   0.000000D+00  0.000000D+00  0.000000D+00  0.000000D+00  0.000000D+00
     14   0.000000D+00 -0.411075D+00  0.603154D-05  0.127906D+00  0.000000D+00
     15   0.000000D+00 -0.224628D+00  0.332848D-05  0.196187D+00  0.000000D+00
     16   0.000000D+00 -0.332848D-05 -0.224628D+00  0.000000D+00  0.196187D+00
               491           492           493           494           495 
      1  -0.767626D+02 -0.767626D+02 -0.767613D+02 -0.767593D+02 -0.767574D+02
      2   0.000000D+00  0.000000D+00  0.000000D+00  0.000000D+00  0.000000D+00
      3   0.000000D+00  0.000000D+00  0.000000D+00  0.000000D+00  0.000000D+00
      4   0.000000D+00  0.000000D+00  0.000000D+00  0.000000D+00  0.000000D+00
      5   0.000000D+00  0.000000D+00  0.000000D+00  0.000000D+00  0.000000D+00
      6   0.000000D+00  0.000000D+00  0.000000D+00  0.000000D+00  0.000000D+00
      7   0.000000D+00  0.000000D+00  0.000000D+00  0.000000D+00  0.000000D+00
      8   0.000000D+00 -0.855546D-01  0.000000D+00  0.000000D+00  0.000000D+00
      9  -0.855541D-01  0.000000D+00  0.000000D+00  0.000000D+00 -0.482764D+00
     10   0.000000D+00  0.000000D+00 -0.443748D-01  0.000000D+00  0.000000D+00
     11   0.000000D+00 -0.922064D-01  0.000000D+00  0.802941D-01  0.000000D+00
     12   0.000000D+00  0.922064D-01  0.000000D+00  0.802943D-01  0.000000D+00
     13   0.000000D+00  0.000000D+00  0.000000D+00  0.173113D+00  0.000000D+00
     14   0.922062D-01  0.000000D+00  0.000000D+00  0.000000D+00  0.195638D+00
     15  -0.309835D+00  0.000000D+00  0.000000D+00  0.000000D+00 -0.266917D+00
     16   0.000000D+00  0.309836D+00  0.000000D+00  0.000000D+00  0.000000D+00
               496           497           498           499           500 
      1  -0.767574D+02 -0.766853D+02 -0.766848D+02 -0.766790D+02 -0.766775D+02
      2   0.000000D+00  0.000000D+00  0.000000D+00  0.000000D+00  0.000000D+00
      3   0.000000D+00  0.000000D+00  0.000000D+00  0.000000D+00 -0.113593D+00
      4   0.000000D+00  0.000000D+00  0.000000D+00  0.385710D-01  0.000000D+00
      5   0.000000D+00  0.000000D+00  0.000000D+00  0.000000D+00  0.000000D+00
      6   0.000000D+00  0.000000D+00  0.000000D+00  0.000000D+00  0.298133D+00
      7   0.000000D+00  0.000000D+00  0.000000D+00 -0.146679D+00  0.000000D+00
      8   0.482764D+00  0.000000D+00  0.000000D+00  0.000000D+00  0.000000D+00
      9   0.000000D+00  0.000000D+00  0.000000D+00  0.000000D+00  0.000000D+00
     10   0.000000D+00  0.000000D+00  0.000000D+00  0.000000D+00  0.000000D+00
     11   0.195638D+00  0.130632D+00  0.000000D+00  0.000000D+00  0.000000D+00
     12  -0.195638D+00  0.130632D+00  0.000000D+00  0.000000D+00  0.000000D+00
     13   0.000000D+00 -0.561029D+00  0.000000D+00  0.000000D+00  0.000000D+00
     14   0.000000D+00  0.000000D+00  0.000000D+00  0.000000D+00  0.000000D+00
     15   0.000000D+00  0.000000D+00  0.000000D+00  0.000000D+00  0.000000D+00
     16  -0.266917D+00  0.000000D+00  0.000000D+00  0.000000D+00  0.000000D+00
               501           502           503           504           505 
      1  -0.766775D+02 -0.766526D+02 -0.766526D+02 -0.766332D+02 -0.766114D+02
      2   0.113593D+00  0.000000D+00  0.000000D+00  0.000000D+00  0.000000D+00
      3   0.000000D+00  0.000000D+00  0.000000D+00  0.000000D+00  0.000000D+00
      4   0.000000D+00  0.000000D+00  0.000000D+00  0.000000D+00  0.000000D+00
      5  -0.298133D+00  0.000000D+00  0.000000D+00  0.000000D+00  0.000000D+00
      6   0.000000D+00  0.000000D+00  0.000000D+00  0.000000D+00  0.000000D+00
      7   0.000000D+00  0.000000D+00  0.000000D+00  0.000000D+00  0.000000D+00
      8   0.000000D+00 -0.183209D+00  0.000000D+00  0.000000D+00 -0.124415D+00
      9   0.000000D+00  0.000000D+00  0.183209D+00  0.000000D+00  0.000000D+00
     10   0.000000D+00  0.000000D+00  0.000000D+00  0.000000D+00  0.000000D+00
     11   0.000000D+00 -0.783446D-01  0.000000D+00  0.104250D+00  0.293973D+00
     12   0.000000D+00  0.783446D-01  0.000000D+00  0.104250D+00 -0.293973D+00
     13   0.000000D+00  0.000000D+00  0.000000D+00 -0.522563D+00  0.000000D+00
     14   0.000000D+00  0.000000D+00 -0.783446D-01  0.000000D+00  0.000000D+00
     15   0.000000D+00  0.000000D+00  0.392598D+00  0.000000D+00  0.000000D+00
     16   0.000000D+00  0.392598D+00  0.000000D+00  0.000000D+00  0.276428D+00
               506           507           508           509           510 
      1  -0.766114D+02 -0.765994D+02 -0.765641D+02 -0.765641D+02 -0.765125D+02
      2   0.000000D+00  0.000000D+00  0.000000D+00 -0.663039D-01  0.000000D+00
      3   0.000000D+00  0.000000D+00 -0.663039D-01  0.000000D+00  0.124199D-01
      4   0.000000D+00  0.000000D+00  0.000000D+00  0.000000D+00  0.000000D+00
      5   0.000000D+00  0.000000D+00  0.000000D+00  0.139010D+00  0.000000D+00
      6   0.000000D+00  0.000000D+00  0.139010D+00  0.000000D+00 -0.346167D-01
      7   0.000000D+00  0.000000D+00  0.000000D+00  0.000000D+00  0.000000D+00
      8   0.000000D+00  0.000000D+00  0.000000D+00  0.000000D+00  0.000000D+00
      9  -0.124415D+00  0.000000D+00  0.000000D+00  0.000000D+00  0.000000D+00
     10   0.000000D+00  0.000000D+00  0.000000D+00  0.000000D+00  0.000000D+00
     11   0.000000D+00  0.754318D-01  0.000000D+00  0.000000D+00  0.000000D+00
     12   0.000000D+00  0.754318D-01  0.000000D+00  0.000000D+00  0.000000D+00
     13   0.000000D+00  0.549984D+00  0.000000D+00  0.000000D+00  0.000000D+00
     14  -0.293973D+00  0.000000D+00  0.000000D+00  0.000000D+00  0.000000D+00
     15  -0.276428D+00  0.000000D+00  0.000000D+00  0.000000D+00  0.000000D+00
     16   0.000000D+00  0.000000D+00  0.000000D+00  0.000000D+00  0.000000D+00
               511           512           513           514           515 
      1  -0.765125D+02 -0.764729D+02 -0.764644D+02 -0.764644D+02 -0.764475D+02
      2   0.124199D-01  0.000000D+00  0.726654D-01  0.000000D+00  0.000000D+00
      3   0.000000D+00  0.000000D+00  0.000000D+00 -0.726654D-01 -0.768058D-01
      4   0.000000D+00  0.123557D-01  0.000000D+00  0.000000D+00  0.000000D+00
      5  -0.346167D-01  0.000000D+00 -0.179649D+00  0.000000D+00  0.000000D+00
      6   0.000000D+00  0.000000D+00  0.000000D+00  0.179650D+00  0.203758D+00
      7   0.000000D+00 -0.533270D-01  0.000000D+00  0.000000D+00  0.000000D+00
      8   0.000000D+00  0.000000D+00  0.000000D+00  0.000000D+00  0.000000D+00
      9   0.000000D+00  0.000000D+00  0.000000D+00  0.000000D+00  0.000000D+00
     10   0.000000D+00  0.000000D+00  0.000000D+00  0.000000D+00  0.000000D+00
     11   0.000000D+00  0.000000D+00  0.000000D+00  0.000000D+00  0.000000D+00
     12   0.000000D+00  0.000000D+00  0.000000D+00  0.000000D+00  0.000000D+00
     13   0.000000D+00  0.000000D+00  0.000000D+00  0.000000D+00  0.000000D+00
     14   0.000000D+00  0.000000D+00  0.000000D+00  0.000000D+00  0.000000D+00
     15   0.000000D+00  0.000000D+00  0.000000D+00  0.000000D+00  0.000000D+00
     16   0.000000D+00  0.000000D+00  0.000000D+00  0.000000D+00  0.000000D+00
               516           517           518           519           520 
      1  -0.764475D+02 -0.764298D+02 -0.763690D+02 -0.763690D+02 -0.763676D+02
      2  -0.768059D-01  0.000000D+00  0.000000D+00  0.000000D+00  0.000000D+00
      3   0.000000D+00  0.000000D+00  0.000000D+00  0.000000D+00  0.000000D+00
      4   0.000000D+00  0.160144D+00  0.000000D+00  0.000000D+00  0.463313D-01
      5   0.203758D+00  0.000000D+00  0.000000D+00  0.000000D+00  0.000000D+00
      6   0.000000D+00  0.000000D+00  0.000000D+00  0.000000D+00  0.000000D+00
      7   0.000000D+00 -0.488553D+00  0.000000D+00  0.000000D+00 -0.133263D+00
      8   0.000000D+00  0.000000D+00  0.000000D+00 -0.112339D+00  0.000000D+00
      9   0.000000D+00  0.000000D+00  0.112338D+00  0.000000D+00  0.000000D+00
     10   0.000000D+00  0.000000D+00  0.000000D+00  0.000000D+00  0.000000D+00
     11   0.000000D+00  0.000000D+00  0.000000D+00 -0.723391D-03  0.000000D+00
     12   0.000000D+00  0.000000D+00  0.000000D+00  0.723479D-03  0.000000D+00
     13   0.000000D+00  0.000000D+00  0.000000D+00  0.000000D+00  0.000000D+00
     14   0.000000D+00  0.000000D+00 -0.723340D-03  0.000000D+00  0.000000D+00
     15   0.000000D+00  0.000000D+00  0.221559D+00  0.000000D+00  0.000000D+00
     16   0.000000D+00  0.000000D+00  0.000000D+00  0.221559D+00  0.000000D+00
               521           522           523           524           525 
      1  -0.763635D+02 -0.763635D+02 -0.763597D+02 -0.763597D+02 -0.763595D+02
      2   0.000000D+00  0.000000D+00  0.000000D+00  0.000000D+00  0.000000D+00
      3   0.000000D+00  0.000000D+00  0.000000D+00  0.000000D+00  0.000000D+00
      4   0.000000D+00  0.000000D+00  0.000000D+00  0.000000D+00  0.000000D+00
      5   0.000000D+00  0.000000D+00  0.000000D+00  0.000000D+00  0.000000D+00
      6   0.000000D+00  0.000000D+00  0.000000D+00  0.000000D+00  0.000000D+00
      7   0.000000D+00  0.000000D+00  0.000000D+00  0.000000D+00  0.000000D+00
      8   0.493661D+00 -0.156243D-05  0.195479D+00  0.000000D+00  0.000000D+00
      9   0.156243D-05  0.493661D+00  0.000000D+00 -0.195479D+00  0.270646D-05
     10   0.000000D+00  0.000000D+00  0.000000D+00  0.148167D-05  0.937943D-01
     11   0.725181D-02  0.000000D+00  0.911099D-01  0.000000D+00  0.000000D+00
     12  -0.725188D-02  0.000000D+00 -0.911102D-01  0.000000D+00  0.000000D+00
     13   0.000000D+00  0.000000D+00 -0.123872D-05  0.000000D+00  0.000000D+00
     14   0.000000D+00 -0.725177D-02  0.000000D+00  0.911103D-01 -0.144799D-05
     15   0.000000D+00  0.206050D+00  0.000000D+00  0.996103D-01 -0.189629D-05
     16  -0.206049D+00  0.000000D+00  0.996100D-01  0.000000D+00  0.000000D+00
               526           527           528           529           530 
      1  -0.763489D+02 -0.763410D+02 -0.763410D+02 -0.762999D+02 -0.762970D+02
      2   0.000000D+00  0.000000D+00  0.000000D+00  0.000000D+00  0.000000D+00
      3   0.000000D+00  0.000000D+00  0.000000D+00  0.000000D+00  0.169257D+00
      4   0.000000D+00  0.000000D+00  0.000000D+00  0.000000D+00  0.000000D+00
      5   0.000000D+00  0.000000D+00  0.000000D+00  0.000000D+00  0.000000D+00
      6   0.000000D+00  0.000000D+00  0.000000D+00  0.000000D+00 -0.491398D+00
      7   0.000000D+00  0.000000D+00  0.000000D+00  0.000000D+00  0.000000D+00
      8   0.000000D+00  0.604948D+00  0.000000D+00  0.000000D+00  0.000000D+00
      9   0.000000D+00  0.000000D+00 -0.604948D+00  0.000000D+00  0.000000D+00
     10   0.000000D+00  0.000000D+00  0.000000D+00  0.000000D+00  0.000000D+00
     11  -0.132555D+00 -0.186348D+00  0.000000D+00  0.000000D+00  0.000000D+00
     12  -0.132554D+00  0.186349D+00  0.000000D+00  0.000000D+00  0.000000D+00
     13  -0.108791D+01  0.160230D-05  0.000000D+00  0.000000D+00  0.000000D+00
     14   0.000000D+00  0.000000D+00 -0.186349D+00  0.000000D+00  0.000000D+00
     15   0.000000D+00  0.000000D+00 -0.792241D+00  0.000000D+00  0.000000D+00
     16  -0.131207D-05 -0.792242D+00  0.000000D+00  0.000000D+00  0.000000D+00
               531           532           533           534           535 
      1  -0.762970D+02 -0.762890D+02 -0.762682D+02 -0.762682D+02 -0.762430D+02
      2  -0.169257D+00  0.000000D+00  0.000000D+00  0.880606D-01  0.000000D+00
      3   0.000000D+00  0.000000D+00  0.880606D-01  0.000000D+00  0.000000D+00
      4   0.000000D+00  0.148701D+00  0.000000D+00  0.000000D+00  0.000000D+00
      5   0.491398D+00  0.000000D+00  0.000000D+00 -0.248218D+00  0.000000D+00
      6   0.000000D+00  0.000000D+00 -0.248218D+00  0.000000D+00  0.000000D+00
      7   0.000000D+00 -0.431098D+00  0.000000D+00  0.000000D+00  0.000000D+00
      8   0.000000D+00  0.000000D+00  0.000000D+00  0.000000D+00  0.000000D+00
      9   0.000000D+00  0.000000D+00  0.000000D+00  0.000000D+00  0.000000D+00
     10   0.000000D+00  0.000000D+00  0.000000D+00  0.000000D+00  0.000000D+00
     11   0.000000D+00  0.000000D+00  0.000000D+00  0.000000D+00  0.170148D+00
     12   0.000000D+00  0.000000D+00  0.000000D+00  0.000000D+00  0.170148D+00
     13   0.000000D+00  0.000000D+00  0.000000D+00  0.000000D+00 -0.732674D+00
     14   0.000000D+00  0.000000D+00  0.000000D+00  0.000000D+00  0.000000D+00
     15   0.000000D+00  0.000000D+00  0.000000D+00  0.000000D+00  0.000000D+00
     16   0.000000D+00  0.000000D+00  0.000000D+00  0.000000D+00  0.000000D+00
               536           537           538           539           540 
      1  -0.762366D+02 -0.762366D+02 -0.762361D+02 -0.762354D+02 -0.761783D+02
      2  -0.631670D-02  0.000000D+00  0.000000D+00  0.000000D+00  0.000000D+00
      3   0.000000D+00 -0.631664D-02  0.000000D+00  0.000000D+00  0.000000D+00
      4   0.000000D+00  0.000000D+00  0.000000D+00  0.390536D-01  0.000000D+00
      5  -0.862218D-02  0.000000D+00  0.000000D+00  0.000000D+00  0.000000D+00
      6   0.000000D+00 -0.862235D-02  0.000000D+00  0.000000D+00  0.000000D+00
      7   0.000000D+00  0.000000D+00  0.000000D+00 -0.121173D+00  0.000000D+00
      8   0.000000D+00  0.000000D+00  0.000000D+00  0.000000D+00  0.000000D+00
      9   0.000000D+00  0.000000D+00  0.000000D+00  0.000000D+00  0.000000D+00
     10   0.000000D+00  0.000000D+00  0.000000D+00  0.000000D+00  0.225622D-01
     11   0.000000D+00  0.000000D+00  0.000000D+00  0.000000D+00  0.000000D+00
     12   0.000000D+00  0.000000D+00  0.000000D+00  0.000000D+00  0.000000D+00
     13   0.000000D+00  0.000000D+00  0.000000D+00  0.000000D+00  0.000000D+00
     14   0.000000D+00  0.000000D+00  0.000000D+00  0.000000D+00  0.000000D+00
     15   0.000000D+00  0.000000D+00  0.000000D+00  0.000000D+00  0.000000D+00
     16   0.000000D+00  0.000000D+00  0.000000D+00  0.000000D+00  0.000000D+00
               541           542           543           544           545 
      1  -0.761750D+02 -0.761734D+02 -0.761734D+02 -0.761636D+02 -0.760804D+02
      2   0.000000D+00  0.000000D+00  0.000000D+00  0.000000D+00  0.000000D+00
      3   0.000000D+00  0.000000D+00  0.000000D+00  0.000000D+00 -0.826757D-01
      4   0.000000D+00  0.000000D+00  0.000000D+00  0.000000D+00  0.000000D+00
      5   0.000000D+00  0.000000D+00  0.000000D+00  0.000000D+00  0.000000D+00
      6   0.000000D+00  0.000000D+00  0.000000D+00  0.000000D+00  0.232351D+00
      7   0.000000D+00  0.000000D+00  0.000000D+00  0.000000D+00  0.000000D+00
      8   0.696337D-05 -0.416292D+00  0.000000D+00  0.000000D+00  0.000000D+00
      9   0.000000D+00  0.000000D+00  0.416292D+00  0.000000D+00  0.000000D+00
     10   0.000000D+00  0.000000D+00  0.000000D+00  0.000000D+00  0.000000D+00
     11  -0.884088D-03 -0.104204D+00  0.000000D+00  0.908471D-01  0.000000D+00
     12  -0.887520D-03  0.104204D+00  0.000000D+00  0.908471D-01  0.000000D+00
     13  -0.790396D+00 -0.132055D-04  0.000000D+00 -0.117754D+01  0.000000D+00
     14   0.000000D+00  0.000000D+00 -0.104204D+00  0.000000D+00  0.000000D+00
     15   0.000000D+00  0.000000D+00  0.429343D+00  0.000000D+00  0.000000D+00
     16  -0.717848D-05  0.429343D+00  0.000000D+00  0.000000D+00  0.000000D+00
               546           547           548           549           550 
      1  -0.760804D+02 -0.760442D+02 -0.760119D+02 -0.760119D+02 -0.759327D+02
      2  -0.826757D-01  0.000000D+00  0.000000D+00  0.000000D+00  0.000000D+00
      3   0.000000D+00  0.000000D+00  0.000000D+00  0.000000D+00  0.000000D+00
      4   0.000000D+00  0.841747D-01  0.000000D+00  0.000000D+00  0.000000D+00
      5   0.232351D+00  0.000000D+00  0.000000D+00  0.000000D+00  0.000000D+00
      6   0.000000D+00  0.000000D+00  0.000000D+00  0.000000D+00  0.000000D+00
      7   0.000000D+00 -0.202410D+00  0.000000D+00  0.000000D+00  0.000000D+00
      8   0.000000D+00  0.000000D+00 -0.496864D+00  0.000000D+00 -0.256072D+00
      9   0.000000D+00  0.000000D+00  0.000000D+00  0.496864D+00  0.000000D+00
     10   0.000000D+00  0.000000D+00  0.000000D+00  0.000000D+00  0.000000D+00
     11   0.000000D+00  0.000000D+00  0.179519D+00  0.000000D+00  0.160015D+00
     12   0.000000D+00  0.000000D+00 -0.179519D+00  0.000000D+00 -0.160015D+00
     13   0.000000D+00  0.000000D+00  0.000000D+00  0.000000D+00  0.000000D+00
     14   0.000000D+00  0.000000D+00  0.000000D+00  0.179519D+00  0.000000D+00
     15   0.000000D+00  0.000000D+00  0.000000D+00  0.299768D+00  0.000000D+00
     16   0.000000D+00  0.000000D+00  0.299768D+00  0.000000D+00  0.258487D+00
               551           552           553 
      1  -0.759327D+02 -0.758635D+02 -0.758635D+02
      2   0.000000D+00  0.000000D+00 -0.969790D-01
      3   0.000000D+00 -0.969790D-01  0.000000D+00
      4   0.000000D+00  0.000000D+00  0.000000D+00
      5   0.000000D+00  0.000000D+00  0.289107D+00
      6   0.000000D+00  0.289107D+00  0.000000D+00
      7   0.000000D+00  0.000000D+00  0.000000D+00
      8   0.000000D+00  0.000000D+00  0.000000D+00
      9   0.256072D+00  0.000000D+00  0.000000D+00
     10   0.000000D+00  0.000000D+00  0.000000D+00
     11   0.000000D+00  0.000000D+00  0.000000D+00
     12   0.000000D+00  0.000000D+00  0.000000D+00
     13   0.000000D+00  0.000000D+00  0.000000D+00
     14   0.160015D+00  0.000000D+00  0.000000D+00
     15   0.258488D+00  0.000000D+00  0.000000D+00
     16   0.000000D+00  0.000000D+00  0.000000D+00
 Unable to Open any file for archive entry.
 1\1\GINC-HEL25\SP\RCAM-B3LYP TD-FC\Gen\C2H6\SABYASACHI\21-Mar-2022\0\\
 #P TD(Nstates=10000) cam-b3lyp/Gen SCF(maxcycles=100) Int(Grid=ultrafi
 ne)\\xGDB7_00001_tier4.com\\0,1\C,0,0.,0.,0.761397\C,0,0.,0.,-0.761397
 \H,0,0.,1.01711,1.157248\H,0,0.880843,-0.508555,1.157248\H,0,-0.880843
 ,-0.508555,1.157248\H,0,0.880843,0.508555,-1.157248\H,0,-0.880843,0.50
 8555,-1.157248\H,0,0.,-1.01711,-1.157248\\Version=EM64L-G16RevC.01\Sta
 te=1-A1G\HF=-79.7173648\RMSD=2.805e-09\PG=D03D [C3(C1.C1),3SGD(H2)]\\@
 The archive entry for this job was punched.


 LOVE IS BLIND, THAT'S WHY ALL THE WORLD LOVES A LOUVER.
 Job cpu time:       0 days  0 hours  2 minutes 29.6 seconds.
 Elapsed time:       0 days  0 hours  0 minutes 19.0 seconds.
 File lengths (MBytes):  RWF=    401 Int=      0 D2E=      0 Chk=    102 Scr=      1
 Normal termination of Gaussian 16 at Mon Mar 21 20:09:58 2022.
