 Entering Gaussian System, Link 0=g16
 Input=000021.com
 Output=000021.log
 Initial command:
 /home/sabyasachi/g16/l1.exe "/scratch/sabyasachi/PBS_7976287.helios/Gau-158292.inp" -scrdir="/scratch/sabyasachi/PBS_7976287.helios/"
 Entering Link 1 = /home/sabyasachi/g16/l1.exe PID=    158293.
  
 Copyright (c) 1988-2019, Gaussian, Inc.  All Rights Reserved.
  
 This is part of the Gaussian(R) 16 program.  It is based on
 the Gaussian(R) 09 system (copyright 2009, Gaussian, Inc.),
 the Gaussian(R) 03 system (copyright 2003, Gaussian, Inc.),
 the Gaussian(R) 98 system (copyright 1998, Gaussian, Inc.),
 the Gaussian(R) 94 system (copyright 1995, Gaussian, Inc.),
 the Gaussian 92(TM) system (copyright 1992, Gaussian, Inc.),
 the Gaussian 90(TM) system (copyright 1990, Gaussian, Inc.),
 the Gaussian 88(TM) system (copyright 1988, Gaussian, Inc.),
 the Gaussian 86(TM) system (copyright 1986, Carnegie Mellon
 University), and the Gaussian 82(TM) system (copyright 1983,
 Carnegie Mellon University). Gaussian is a federally registered
 trademark of Gaussian, Inc.
  
 This software contains proprietary and confidential information,
 including trade secrets, belonging to Gaussian, Inc.
  
 This software is provided under written license and may be
 used, copied, transmitted, or stored only in accord with that
 written license.
  
 The following legend is applicable only to US Government
 contracts under FAR:
  
                    RESTRICTED RIGHTS LEGEND
  
 Use, reproduction and disclosure by the US Government is
 subject to restrictions as set forth in subparagraphs (a)
 and (c) of the Commercial Computer Software - Restricted
 Rights clause in FAR 52.227-19.
  
 Gaussian, Inc.
 340 Quinnipiac St., Bldg. 40, Wallingford CT 06492
  
  
 ---------------------------------------------------------------
 Warning -- This program may not be used in any manner that
 competes with the business of Gaussian, Inc. or will provide
 assistance to any competitor of Gaussian, Inc.  The licensee
 of this program is prohibited from giving any competitor of
 Gaussian, Inc. access to this program.  By using this program,
 the user acknowledges that Gaussian, Inc. is engaged in the
 business of creating and licensing software in the field of
 computational chemistry and represents and warrants to the
 licensee that it is not a competitor of Gaussian, Inc. and that
 it will not use this program in any manner prohibited above.
 ---------------------------------------------------------------
  

 Cite this work as:
 Gaussian 16, Revision C.01,
 M. J. Frisch, G. W. Trucks, H. B. Schlegel, G. E. Scuseria, 
 M. A. Robb, J. R. Cheeseman, G. Scalmani, V. Barone, 
 G. A. Petersson, H. Nakatsuji, X. Li, M. Caricato, A. V. Marenich, 
 J. Bloino, B. G. Janesko, R. Gomperts, B. Mennucci, H. P. Hratchian, 
 J. V. Ortiz, A. F. Izmaylov, J. L. Sonnenberg, D. Williams-Young, 
 F. Ding, F. Lipparini, F. Egidi, J. Goings, B. Peng, A. Petrone, 
 T. Henderson, D. Ranasinghe, V. G. Zakrzewski, J. Gao, N. Rega, 
 G. Zheng, W. Liang, M. Hada, M. Ehara, K. Toyota, R. Fukuda, 
 J. Hasegawa, M. Ishida, T. Nakajima, Y. Honda, O. Kitao, H. Nakai, 
 T. Vreven, K. Throssell, J. A. Montgomery, Jr., J. E. Peralta, 
 F. Ogliaro, M. J. Bearpark, J. J. Heyd, E. N. Brothers, K. N. Kudin, 
 V. N. Staroverov, T. A. Keith, R. Kobayashi, J. Normand, 
 K. Raghavachari, A. P. Rendell, J. C. Burant, S. S. Iyengar, 
 J. Tomasi, M. Cossi, J. M. Millam, M. Klene, C. Adamo, R. Cammi, 
 J. W. Ochterski, R. L. Martin, K. Morokuma, O. Farkas, 
 J. B. Foresman, and D. J. Fox, Gaussian, Inc., Wallingford CT, 2019.
 
 ******************************************
 Gaussian 16:  EM64L-G16RevC.01  3-Jul-2019
                21-Mar-2022 
 ******************************************
 %mem=64gb
 %nproc=8
 Will use up to    8 processors via shared memory.
 ----------------------------------------------------------------------
 #P TD(Nstates=10000) cam-b3lyp/Gen SCF(maxcycles=100) Int(Grid=ultrafi
 ne)
 ----------------------------------------------------------------------
 1/38=1,172=1/1;
 2/12=2,17=6,18=5,40=1/2;
 3/5=7,11=9,25=1,30=1,74=-40,75=-5/1,2,3,8;
 4//1;
 5/5=2,7=100,38=5/2;
 8/6=1,10=1,108=10000/1;
 9/41=10000,42=1,70=2/14;
 6/7=2,8=2,9=2,10=2/1;
 99/5=1,9=1/99;
 Leave Link    1 at Mon Mar 21 20:18:26 2022, MaxMem=  8589934592 cpu:               0.4 elap:               0.1
 (Enter /home/sabyasachi/g16/l101.exe)
 ---------------------
 xGDB7_00001_tier4.com
 ---------------------
 Symbolic Z-matrix:
 Charge =  0 Multiplicity = 1
 6                    -1.13157  -0.50439   0. 
 6                     0.        0.47222   0. 
 6                     1.28414   0.15079   0. 
 1                    -1.76745  -0.36278   0.8777 
 1                    -0.77012  -1.53346   0. 
 1                    -1.76745  -0.36278  -0.8777 
 1                    -0.27655   1.52347   0. 
 1                     1.60844  -0.88456   0. 
 1                     2.05775   0.90833   0. 
 
 ITRead=  0  0  0  0  0  0  0  0  0
 MicOpt= -1 -1 -1 -1 -1 -1 -1 -1 -1
 NAtoms=      9 NQM=        9 NQMF=       0 NMMI=      0 NMMIF=      0
                NMic=       0 NMicF=      0.
                    Isotopes and Nuclear Properties:
 (Nuclear quadrupole moments (NQMom) in fm**2, nuclear magnetic moments (NMagM)
  in nuclear magnetons)

  Atom         1           2           3           4           5           6           7           8           9
 IAtWgt=          12          12          12           1           1           1           1           1           1
 AtmWgt=  12.0000000  12.0000000  12.0000000   1.0078250   1.0078250   1.0078250   1.0078250   1.0078250   1.0078250
 NucSpn=           0           0           0           1           1           1           1           1           1
 AtZEff=  -0.0000000  -0.0000000  -0.0000000  -0.0000000  -0.0000000  -0.0000000  -0.0000000  -0.0000000  -0.0000000
 NQMom=    0.0000000   0.0000000   0.0000000   0.0000000   0.0000000   0.0000000   0.0000000   0.0000000   0.0000000
 NMagM=    0.0000000   0.0000000   0.0000000   2.7928460   2.7928460   2.7928460   2.7928460   2.7928460   2.7928460
 AtZNuc=   6.0000000   6.0000000   6.0000000   1.0000000   1.0000000   1.0000000   1.0000000   1.0000000   1.0000000
 Leave Link  101 at Mon Mar 21 20:18:27 2022, MaxMem=  8589934592 cpu:               0.6 elap:               0.1
 (Enter /home/sabyasachi/g16/l202.exe)
                          Input orientation:                          
 ---------------------------------------------------------------------
 Center     Atomic      Atomic             Coordinates (Angstroms)
 Number     Number       Type             X           Y           Z
 ---------------------------------------------------------------------
      1          6           0       -1.131573   -0.504386    0.000000
      2          6           0        0.000000    0.472223    0.000000
      3          6           0        1.284136    0.150792    0.000000
      4          1           0       -1.767446   -0.362775    0.877699
      5          1           0       -0.770123   -1.533458    0.000000
      6          1           0       -1.767446   -0.362775   -0.877699
      7          1           0       -0.276551    1.523465    0.000000
      8          1           0        1.608435   -0.884556    0.000000
      9          1           0        2.057749    0.908326    0.000000
 ---------------------------------------------------------------------
                    Distance matrix (angstroms):
                    1          2          3          4          5
     1  C    0.000000
     2  C    1.494732   0.000000
     3  C    2.502980   1.323753   0.000000
     4  H    1.093043   2.142765   3.216560   0.000000
     5  H    1.090704   2.148452   2.656441   1.770736   0.000000
     6  H    1.093043   2.142765   3.216560   1.755398   1.770736
     7  H    2.200737   1.087010   2.078455   2.559497   3.096513
     8  H    2.766256   2.104261   1.084949   3.526923   2.465484
     9  H    3.488199   2.103454   1.082744   4.125308   3.736197
                    6          7          8          9
     6  H    0.000000
     7  H    2.559497   0.000000
     8  H    3.526923   3.058061   0.000000
     9  H    4.125308   2.413991   1.848326   0.000000
 Stoichiometry    C3H6
 Framework group  CS[SG(C3H4),X(H2)]
 Deg. of freedom    14
 Full point group                 CS      NOp   2
 Largest Abelian subgroup         CS      NOp   2
 Largest concise Abelian subgroup CS      NOp   2
                         Standard orientation:                         
 ---------------------------------------------------------------------
 Center     Atomic      Atomic             Coordinates (Angstroms)
 Number     Number       Type             X           Y           Z
 ---------------------------------------------------------------------
      1          6           0       -1.131573   -0.504386    0.000000
      2          6           0        0.000000    0.472223    0.000000
      3          6           0        1.284136    0.150792    0.000000
      4          1           0       -1.767446   -0.362776    0.877699
      5          1           0       -0.770122   -1.533458    0.000000
      6          1           0       -1.767446   -0.362776   -0.877699
      7          1           0       -0.276551    1.523465    0.000000
      8          1           0        1.608435   -0.884555    0.000000
      9          1           0        2.057749    0.908327    0.000000
 ---------------------------------------------------------------------
 Rotational constants (GHZ):          47.1476739           9.3674147           8.2089652
 Leave Link  202 at Mon Mar 21 20:18:27 2022, MaxMem=  8589934592 cpu:               0.1 elap:               0.0
 (Enter /home/sabyasachi/g16/l301.exe)
 General basis read from cards:  (5D, 7F)
 Centers:       4      5      6      7      8      9
 S 3 1.00
     Exponent=  1.3010701000D+01 Coefficients=  1.9682158000D-02
     Exponent=  1.9622572000D+00 Coefficients=  1.3796524000D-01
     Exponent=  4.4453796000D-01 Coefficients=  4.7831935000D-01
 S 1 1.00
     Exponent=  1.2194962000D-01 Coefficients=  1.0000000000D+00
 P 1 1.00
     Exponent=  8.0000000000D-01 Coefficients=  1.0000000000D+00
 P 1 1.00
     Exponent=  1.1704099050D-01 Coefficients=  1.0000000000D+00
 ****
 Centers:       1      2      3
 S 5 1.00
     Exponent=  1.2384016938D+03 Coefficients=  5.4568832082D-03
     Exponent=  1.8629004992D+02 Coefficients=  4.0638409211D-02
     Exponent=  4.2251176346D+01 Coefficients=  1.8025593888D-01
     Exponent=  1.1676557932D+01 Coefficients=  4.6315121755D-01
     Exponent=  3.5930506482D+00 Coefficients=  4.4087173314D-01
 S 1 1.00
     Exponent=  4.0245147363D-01 Coefficients=  1.0000000000D+00
 S 1 1.00
     Exponent=  1.3090182668D-01 Coefficients=  1.0000000000D+00
 S 1 1.00
     Exponent=  6.7053540256D-02 Coefficients=  1.0000000000D+00
 P 3 1.00
     Exponent=  9.4680970621D+00 Coefficients=  3.8387871728D-02
     Exponent=  2.0103545142D+00 Coefficients=  2.1117025112D-01
     Exponent=  5.4771004707D-01 Coefficients=  5.1328172114D-01
 P 1 1.00
     Exponent=  1.5268613795D-01 Coefficients=  1.0000000000D+00
 D 1 1.00
     Exponent=  8.0000000000D-01 Coefficients=  1.0000000000D+00
 D 1 1.00
     Exponent=  1.1713185140D-01 Coefficients=  1.0000000000D+00
 ****
 Ernie: Thresh=  0.10000D-02 Tol=  0.10000D-05 Strict=F.
 There are    80 symmetry adapted cartesian basis functions of A'  symmetry.
 There are    34 symmetry adapted cartesian basis functions of A"  symmetry.
 There are    74 symmetry adapted basis functions of A'  symmetry.
 There are    34 symmetry adapted basis functions of A"  symmetry.
   108 basis functions,   156 primitive gaussians,   114 cartesian basis functions
    12 alpha electrons       12 beta electrons
       nuclear repulsion energy        70.9801488057 Hartrees.
 IExCor=20419 DFT=T Ex+Corr=CAM-B3LYP ExCW=0 ScaHFX=  1.000000
 ScaDFX=  1.000000  1.000000  1.000000  0.810000 ScalE2=  1.000000  1.000000
 IRadAn=      5 IRanWt=     -1 IRanGd=            0 ICorTp=0 IEmpDi=  4
 HFx  wShort=  0.000000 wLong=  0.330000 cFull=  0.190000 cShort=  0.000000 cLong=  0.460000
 DFx  wShort=  0.000000 wLong=  0.330000 cFull=  0.190000 cShort=  0.000000 cLong=  0.460000
 NAtoms=    9 NActive=    9 NUniq=    8 SFac= 1.27D+00 NAtFMM=   60 NAOKFM=F Big=F
 Integral buffers will be    131072 words long.
 Raffenetti 1 integral format.
 Two-electron integral symmetry is turned on.
 Leave Link  301 at Mon Mar 21 20:18:27 2022, MaxMem=  8589934592 cpu:               0.5 elap:               0.1
 (Enter /home/sabyasachi/g16/l302.exe)
 NPDir=0 NMtPBC=     1 NCelOv=     1 NCel=       1 NClECP=     1 NCelD=      1
         NCelK=      1 NCelE2=     1 NClLst=     1 CellRange=     0.0.
 One-electron integrals computed using PRISM.
 One-electron integral symmetry used in STVInt
 NBasis=   108 RedAO= T EigKep=  8.08D-05  NBF=    74    34
 NBsUse=   108 1.00D-06 EigRej= -1.00D+00 NBFU=    74    34
 Precomputing XC quadrature grid using
 IXCGrd= 4 IRadAn=           5 IRanWt=          -1 IRanGd=           0 AccXCQ= 0.00D+00.
 Generated NRdTot=       0 NPtTot=           0 NUsed=           0 NTot=          32
 NSgBfM=   114   114   114   114   114 MxSgAt=     9 MxSgA2=     9.
 Leave Link  302 at Mon Mar 21 20:18:27 2022, MaxMem=  8589934592 cpu:               1.1 elap:               0.2
 (Enter /home/sabyasachi/g16/l303.exe)
 DipDrv:  MaxL=1.
 Leave Link  303 at Mon Mar 21 20:18:27 2022, MaxMem=  8589934592 cpu:               0.2 elap:               0.0
 (Enter /home/sabyasachi/g16/l308.exe)
 Leave Link  308 at Mon Mar 21 20:18:27 2022, MaxMem=  8589934592 cpu:               0.2 elap:               0.0
 (Enter /home/sabyasachi/g16/l401.exe)
 ExpMin= 6.71D-02 ExpMax= 1.24D+03 ExpMxC= 1.86D+02 IAcc=3 IRadAn=         5 AccDes= 0.00D+00
 Harris functional with IExCor=20419 and IRadAn=       5 diagonalized for initial guess.
 HarFok:  IExCor=20419 AccDes= 0.00D+00 IRadAn=         5 IDoV= 1 UseB2=F ITyADJ=14
 ICtDFT=  3500011 ScaDFX=  1.000000  1.000000  1.000000  1.000000
 FoFCou: FMM=F IPFlag=           0 FMFlag=      100000 FMFlg1=           0
         NFxFlg=           0 DoJE=T BraDBF=F KetDBF=T FulRan=T
         wScrn=  0.000000 ICntrl=       500 IOpCl=  0 I1Cent=   200000004 NGrid=           0
         NMat0=    1 NMatS0=      1 NMatT0=    0 NMatD0=    1 NMtDS0=    0 NMtDT0=    0
 Petite list used in FoFCou.
 Harris En= -112.516119468650    
 JPrj=0 DoOrth=F DoCkMO=F.
 Initial guess orbital symmetries:
       Occupied  (A') (A') (A') (A') (A') (A') (A') (A') (A") (A')
                 (A') (A")
       Virtual   (A") (A') (A') (A') (A') (A") (A') (A') (A") (A')
                 (A') (A") (A') (A") (A') (A') (A") (A') (A") (A')
                 (A') (A') (A") (A') (A') (A') (A") (A") (A') (A')
                 (A') (A") (A') (A') (A') (A') (A") (A') (A") (A')
                 (A") (A') (A') (A") (A') (A") (A') (A') (A") (A')
                 (A') (A') (A") (A') (A') (A") (A') (A') (A') (A')
                 (A') (A') (A') (A") (A") (A") (A") (A") (A') (A')
                 (A') (A") (A') (A') (A") (A') (A') (A") (A') (A")
                 (A') (A') (A') (A") (A") (A') (A') (A') (A") (A')
                 (A') (A') (A") (A') (A') (A')
 The electronic state of the initial guess is 1-A'.
 Leave Link  401 at Mon Mar 21 20:18:27 2022, MaxMem=  8589934592 cpu:               2.3 elap:               0.3
 (Enter /home/sabyasachi/g16/l502.exe)
 Keep R1 ints in memory in symmetry-blocked form, NReq=52358333.
 FoFCou: FMM=F IPFlag=           0 FMFlag=           0 FMFlg1=           0
         NFxFlg=           0 DoJE=F BraDBF=F KetDBF=F FulRan=T
         wScrn=  0.000000 ICntrl=       600 IOpCl=  0 I1Cent=           0 NGrid=           0
         NMat0=    1 NMatS0=   5886 NMatT0=    0 NMatD0=    1 NMtDS0=    0 NMtDT0=    0
 Petite list used in FoFCou.
 Closed shell SCF:
 Using DIIS extrapolation, IDIIS=  1040.
 NGot=  8589934592 LenX=  8581046321 LenY=  8581032884
 Requested convergence on RMS density matrix=1.00D-08 within 100 cycles.
 Requested convergence on MAX density matrix=1.00D-06.
 Requested convergence on             energy=1.00D-06.
 No special actions if energy rises.
 Integral accuracy reduced to 1.0D-05 until final iterations.

 Cycle   1  Pass 0  IDiag  1:
 E= -117.718154584351    
 DIIS: error= 2.45D-02 at cycle   1 NSaved=   1.
 NSaved= 1 IEnMin= 1 EnMin= -117.718154584351     IErMin= 1 ErrMin= 2.45D-02
 ErrMax= 2.45D-02  0.00D+00 EMaxC= 1.00D-01 BMatC= 5.35D-02 BMatP= 5.35D-02
 IDIUse=3 WtCom= 7.55D-01 WtEn= 2.45D-01
 Coeff-Com:  0.100D+01
 Coeff-En:   0.100D+01
 Coeff:      0.100D+01
 Gap=     0.342 Goal=   None    Shift=    0.000
 GapD=    0.342 DampG=1.000 DampE=0.500 DampFc=0.5000 IDamp=-1.
 Damping current iteration by 5.00D-01
 RMSDP=6.48D-03 MaxDP=1.28D-01              OVMax= 6.21D-02

 Cycle   2  Pass 0  IDiag  1:
 E= -117.734089171747     Delta-E=       -0.015934587396 Rises=F Damp=T
 DIIS: error= 1.34D-02 at cycle   2 NSaved=   2.
 NSaved= 2 IEnMin= 2 EnMin= -117.734089171747     IErMin= 2 ErrMin= 1.34D-02
 ErrMax= 1.34D-02  0.00D+00 EMaxC= 1.00D-01 BMatC= 1.02D-02 BMatP= 5.35D-02
 IDIUse=3 WtCom= 8.66D-01 WtEn= 1.34D-01
 Coeff-Com: -0.422D+00 0.142D+01
 Coeff-En:   0.000D+00 0.100D+01
 Coeff:     -0.365D+00 0.137D+01
 Gap=     0.384 Goal=   None    Shift=    0.000
 RMSDP=3.34D-03 MaxDP=7.48D-02 DE=-1.59D-02 OVMax= 3.90D-02

 Cycle   3  Pass 0  IDiag  1:
 E= -117.748010785508     Delta-E=       -0.013921613761 Rises=F Damp=F
 DIIS: error= 2.82D-03 at cycle   3 NSaved=   3.
 NSaved= 3 IEnMin= 3 EnMin= -117.748010785508     IErMin= 3 ErrMin= 2.82D-03
 ErrMax= 2.82D-03  0.00D+00 EMaxC= 1.00D-01 BMatC= 9.74D-04 BMatP= 1.02D-02
 IDIUse=3 WtCom= 9.72D-01 WtEn= 2.82D-02
 Coeff-Com: -0.206D+00 0.413D+00 0.794D+00
 Coeff-En:   0.000D+00 0.000D+00 0.100D+01
 Coeff:     -0.201D+00 0.401D+00 0.800D+00
 Gap=     0.380 Goal=   None    Shift=    0.000
 RMSDP=5.12D-04 MaxDP=1.22D-02 DE=-1.39D-02 OVMax= 1.14D-02

 Cycle   4  Pass 0  IDiag  1:
 E= -117.749003984938     Delta-E=       -0.000993199430 Rises=F Damp=F
 DIIS: error= 5.24D-04 at cycle   4 NSaved=   4.
 NSaved= 4 IEnMin= 4 EnMin= -117.749003984938     IErMin= 4 ErrMin= 5.24D-04
 ErrMax= 5.24D-04  0.00D+00 EMaxC= 1.00D-01 BMatC= 3.23D-05 BMatP= 9.74D-04
 IDIUse=3 WtCom= 9.95D-01 WtEn= 5.24D-03
 Coeff-Com: -0.864D-01 0.170D+00 0.362D+00 0.555D+00
 Coeff-En:   0.000D+00 0.000D+00 0.000D+00 0.100D+01
 Coeff:     -0.860D-01 0.169D+00 0.360D+00 0.557D+00
 Gap=     0.380 Goal=   None    Shift=    0.000
 RMSDP=8.14D-05 MaxDP=1.63D-03 DE=-9.93D-04 OVMax= 2.96D-03

 Cycle   5  Pass 0  IDiag  1:
 E= -117.749033882611     Delta-E=       -0.000029897673 Rises=F Damp=F
 DIIS: error= 1.73D-04 at cycle   5 NSaved=   5.
 NSaved= 5 IEnMin= 5 EnMin= -117.749033882611     IErMin= 5 ErrMin= 1.73D-04
 ErrMax= 1.73D-04  0.00D+00 EMaxC= 1.00D-01 BMatC= 2.07D-06 BMatP= 3.23D-05
 IDIUse=3 WtCom= 9.98D-01 WtEn= 1.73D-03
 Coeff-Com:  0.332D-02-0.815D-02 0.564D-03 0.187D+00 0.817D+00
 Coeff-En:   0.000D+00 0.000D+00 0.000D+00 0.000D+00 0.100D+01
 Coeff:      0.332D-02-0.814D-02 0.563D-03 0.187D+00 0.817D+00
 Gap=     0.380 Goal=   None    Shift=    0.000
 RMSDP=3.16D-05 MaxDP=4.38D-04 DE=-2.99D-05 OVMax= 9.44D-04

 Cycle   6  Pass 0  IDiag  1:
 E= -117.749036445362     Delta-E=       -0.000002562751 Rises=F Damp=F
 DIIS: error= 2.71D-05 at cycle   6 NSaved=   6.
 NSaved= 6 IEnMin= 6 EnMin= -117.749036445362     IErMin= 6 ErrMin= 2.71D-05
 ErrMax= 2.71D-05  0.00D+00 EMaxC= 1.00D-01 BMatC= 9.28D-08 BMatP= 2.07D-06
 IDIUse=1 WtCom= 1.00D+00 WtEn= 0.00D+00
 Coeff-Com:  0.736D-02-0.147D-01-0.269D-01-0.147D-01 0.169D+00 0.880D+00
 Coeff:      0.736D-02-0.147D-01-0.269D-01-0.147D-01 0.169D+00 0.880D+00
 Gap=     0.380 Goal=   None    Shift=    0.000
 RMSDP=8.57D-06 MaxDP=8.90D-05 DE=-2.56D-06 OVMax= 1.30D-04

 Initial convergence to 1.0D-05 achieved.  Increase integral accuracy.
 Cycle   7  Pass 1  IDiag  1:
 E= -117.749031535309     Delta-E=        0.000004910053 Rises=F Damp=F
 DIIS: error= 4.53D-06 at cycle   1 NSaved=   1.
 NSaved= 1 IEnMin= 1 EnMin= -117.749031535309     IErMin= 1 ErrMin= 4.53D-06
 ErrMax= 4.53D-06  0.00D+00 EMaxC= 1.00D-01 BMatC= 4.51D-09 BMatP= 4.51D-09
 IDIUse=1 WtCom= 1.00D+00 WtEn= 0.00D+00
 Coeff-Com:  0.100D+01
 Coeff:      0.100D+01
 Gap=     0.380 Goal=   None    Shift=    0.000
 RMSDP=8.57D-06 MaxDP=8.90D-05 DE= 4.91D-06 OVMax= 2.82D-05

 Cycle   8  Pass 1  IDiag  1:
 E= -117.749031538970     Delta-E=       -0.000000003661 Rises=F Damp=F
 DIIS: error= 3.86D-06 at cycle   2 NSaved=   2.
 NSaved= 2 IEnMin= 2 EnMin= -117.749031538970     IErMin= 2 ErrMin= 3.86D-06
 ErrMax= 3.86D-06  0.00D+00 EMaxC= 1.00D-01 BMatC= 2.42D-09 BMatP= 4.51D-09
 IDIUse=1 WtCom= 1.00D+00 WtEn= 0.00D+00
 Coeff-Com:  0.416D+00 0.584D+00
 Coeff:      0.416D+00 0.584D+00
 Gap=     0.380 Goal=   None    Shift=    0.000
 RMSDP=8.38D-07 MaxDP=1.68D-05 DE=-3.66D-09 OVMax= 1.86D-05

 Cycle   9  Pass 1  IDiag  1:
 E= -117.749031541485     Delta-E=       -0.000000002515 Rises=F Damp=F
 DIIS: error= 7.23D-07 at cycle   3 NSaved=   3.
 NSaved= 3 IEnMin= 3 EnMin= -117.749031541485     IErMin= 3 ErrMin= 7.23D-07
 ErrMax= 7.23D-07  0.00D+00 EMaxC= 1.00D-01 BMatC= 8.33D-11 BMatP= 2.42D-09
 IDIUse=1 WtCom= 1.00D+00 WtEn= 0.00D+00
 Coeff-Com: -0.566D-01 0.724D-01 0.984D+00
 Coeff:     -0.566D-01 0.724D-01 0.984D+00
 Gap=     0.380 Goal=   None    Shift=    0.000
 RMSDP=3.38D-07 MaxDP=5.72D-06 DE=-2.52D-09 OVMax= 4.40D-06

 Cycle  10  Pass 1  IDiag  1:
 E= -117.749031541581     Delta-E=       -0.000000000095 Rises=F Damp=F
 DIIS: error= 5.49D-07 at cycle   4 NSaved=   4.
 NSaved= 4 IEnMin= 4 EnMin= -117.749031541581     IErMin= 4 ErrMin= 5.49D-07
 ErrMax= 5.49D-07  0.00D+00 EMaxC= 1.00D-01 BMatC= 1.80D-11 BMatP= 8.33D-11
 IDIUse=1 WtCom= 1.00D+00 WtEn= 0.00D+00
 Coeff-Com: -0.545D-01 0.112D-05 0.445D+00 0.609D+00
 Coeff:     -0.545D-01 0.112D-05 0.445D+00 0.609D+00
 Gap=     0.380 Goal=   None    Shift=    0.000
 RMSDP=7.14D-08 MaxDP=1.56D-06 DE=-9.54D-11 OVMax= 3.37D-06

 Cycle  11  Pass 1  IDiag  1:
 E= -117.749031541602     Delta-E=       -0.000000000021 Rises=F Damp=F
 DIIS: error= 1.06D-07 at cycle   5 NSaved=   5.
 NSaved= 5 IEnMin= 5 EnMin= -117.749031541602     IErMin= 5 ErrMin= 1.06D-07
 ErrMax= 1.06D-07  0.00D+00 EMaxC= 1.00D-01 BMatC= 1.75D-12 BMatP= 1.80D-11
 IDIUse=1 WtCom= 1.00D+00 WtEn= 0.00D+00
 Coeff-Com: -0.107D-01-0.591D-02 0.359D-02 0.228D+00 0.785D+00
 Coeff:     -0.107D-01-0.591D-02 0.359D-02 0.228D+00 0.785D+00
 Gap=     0.380 Goal=   None    Shift=    0.000
 RMSDP=3.23D-08 MaxDP=9.33D-07 DE=-2.12D-11 OVMax= 3.46D-07

 Cycle  12  Pass 1  IDiag  1:
 E= -117.749031541603     Delta-E=       -0.000000000001 Rises=F Damp=F
 DIIS: error= 1.47D-08 at cycle   6 NSaved=   6.
 NSaved= 6 IEnMin= 6 EnMin= -117.749031541603     IErMin= 6 ErrMin= 1.47D-08
 ErrMax= 1.47D-08  0.00D+00 EMaxC= 1.00D-01 BMatC= 3.53D-14 BMatP= 1.75D-12
 IDIUse=1 WtCom= 1.00D+00 WtEn= 0.00D+00
 Coeff-Com:  0.385D-02 0.508D-03-0.416D-01-0.534D-02 0.670D-01 0.976D+00
 Coeff:      0.385D-02 0.508D-03-0.416D-01-0.534D-02 0.670D-01 0.976D+00
 Gap=     0.380 Goal=   None    Shift=    0.000
 RMSDP=8.41D-09 MaxDP=1.88D-07 DE=-7.96D-13 OVMax= 1.48D-07

 SCF Done:  E(RCAM-B3LYP) =  -117.749031542     A.U. after   12 cycles
            NFock= 12  Conv=0.84D-08     -V/T= 2.0125
 KE= 1.162960110433D+02 PE=-4.133945226429D+02 EE= 1.083693312523D+02
 Leave Link  502 at Mon Mar 21 20:18:30 2022, MaxMem=  8589934592 cpu:              18.0 elap:               2.4
 (Enter /home/sabyasachi/g16/l801.exe)
 DoSCS=F DFT=T ScalE2(SS,OS)=  1.000000  1.000000
 ExpMin= 6.71D-02 ExpMax= 1.24D+03 ExpMxC= 1.86D+02 IAcc=3 IRadAn=         5 AccDes= 0.00D+00
 HarFok:  IExCor=  205 AccDes= 0.00D+00 IRadAn=         5 IDoV=-2 UseB2=F ITyADJ=14
 ICtDFT= 12500011 ScaDFX=  1.000000  1.000000  1.000000  1.000000
 Largest valence mixing into a core orbital is  6.83D-05
 Largest core mixing into a valence orbital is  1.68D-05
 Range of M.O.s used for correlation:     4   108
 NBasis=   108 NAE=    12 NBE=    12 NFC=     3 NFV=     0
 NROrb=    105 NOA=     9 NOB=     9 NVA=    96 NVB=    96

 **** Warning!!: The largest alpha MO coefficient is  0.41763939D+02

 Leave Link  801 at Mon Mar 21 20:18:30 2022, MaxMem=  8589934592 cpu:               0.6 elap:               0.1
 (Enter /home/sabyasachi/g16/l914.exe)
 RHF ground state
 Keep R1, R2, and R3 ints in memory in symmetry-blocked form, NReq=935716124.
 FoFCou: FMM=F IPFlag=           0 FMFlag=           0 FMFlg1=           0
         NFxFlg=           0 DoJE=F BraDBF=F KetDBF=F FulRan=T
         wScrn=  0.000000 ICntrl=       600 IOpCl=  0 I1Cent=           0 NGrid=           0
         NMat0=    1 NMatS0=   5886 NMatT0=    0 NMatD0=    1 NMtDS0=    0 NMtDT0=    0
 Petite list used in FoFCou.
 MDV=  8589934592 DFT=T DoStab=F Mixed=T DoRPA=T DoScal=F NonHer=T
 Making orbital integer symmetry assigments:
 Orbital symmetries:
       Occupied  (A') (A') (A') (A') (A') (A') (A') (A') (A") (A')
                 (A') (A")
       Virtual   (A") (A') (A') (A') (A') (A") (A') (A') (A") (A')
                 (A') (A") (A') (A") (A') (A') (A") (A') (A") (A')
                 (A') (A') (A") (A') (A') (A") (A') (A") (A') (A')
                 (A') (A") (A') (A') (A') (A') (A") (A") (A') (A")
                 (A') (A') (A") (A') (A') (A") (A') (A') (A") (A')
                 (A') (A') (A") (A') (A') (A") (A') (A') (A') (A')
                 (A') (A') (A') (A") (A") (A") (A") (A") (A') (A')
                 (A') (A") (A') (A') (A") (A') (A') (A") (A') (A")
                 (A') (A') (A') (A") (A') (A") (A') (A') (A") (A')
                 (A') (A') (A") (A') (A') (A')
   864 initial guesses have been made.
 Convergence on wavefunction:    0.001000000000000
 Davidson Disk Diagonalization:  ConvIn= 1.00D-03 SkipCon=T Conv= 1.00D-03.
 Max sub-space:  5184 roots to seek:  1728 dimension of matrix:         1728
 *** WARNING: Number of orthogonal guesses is          864
 Iteration     1 Dimension   864 NMult     0 NNew    864
 CISAX will form   864 AO SS matrices at one time.
 NMat=   864 NSing=   864 JSym2X=-1.
 New state      1 was old state      2
 New state      2 was old state      1
 New state      3 was old state      4
 New state      4 was old state      3
 New state      5 was old state      6
 New state      6 was old state     12
 New state      7 was old state      5
 New state      8 was old state      7
 New state     10 was old state      8
 New state     11 was old state     10
 New state     12 was old state     13
 New state     13 was old state     14
 New state     14 was old state     24
 New state     15 was old state     11
 New state     16 was old state     15
 New state     17 was old state     16
 New state     20 was old state     21
 New state     21 was old state     17
 New state     23 was old state     20
 New state     24 was old state     23
 New state     25 was old state     39
 New state     27 was old state     25
 New state     28 was old state     27
 New state     30 was old state     32
 New state     31 was old state     36
 New state     32 was old state     33
 New state     33 was old state     30
 New state     34 was old state     35
 New state     35 was old state     38
 New state     36 was old state     40
 New state     38 was old state     28
 New state     39 was old state     34
 New state     40 was old state     31
 New state     41 was old state     42
 New state     42 was old state     45
 New state     44 was old state     47
 New state     45 was old state     41
 New state     46 was old state     49
 New state     47 was old state     44
 New state     48 was old state     46
 New state     49 was old state     51
 New state     50 was old state     53
 New state     51 was old state     52
 New state     52 was old state     60
 New state     53 was old state     55
 New state     54 was old state     59
 New state     55 was old state     57
 New state     56 was old state     50
 New state     57 was old state     48
 New state     59 was old state     56
 New state     60 was old state     63
 New state     61 was old state     62
 New state     62 was old state     61
 New state     63 was old state     65
 New state     64 was old state     69
 New state     65 was old state     84
 New state     66 was old state     72
 New state     68 was old state     64
 New state     69 was old state     66
 New state     70 was old state     68
 New state     72 was old state     77
 New state     73 was old state     70
 New state     75 was old state     78
 New state     76 was old state     83
 New state     77 was old state     80
 New state     78 was old state     79
 New state     79 was old state     76
 New state     80 was old state     73
 New state     81 was old state     75
 New state     82 was old state     93
 New state     83 was old state     81
 New state     84 was old state     82
 New state     86 was old state     90
 New state     87 was old state     99
 New state     88 was old state     91
 New state     89 was old state     87
 New state     90 was old state     88
 New state     91 was old state     92
 New state     92 was old state     89
 New state     93 was old state     98
 New state     94 was old state     97
 New state     95 was old state     86
 New state     96 was old state     94
 New state     97 was old state     96
 New state     98 was old state    102
 New state     99 was old state    104
 New state    100 was old state     95
 New state    102 was old state    106
 New state    103 was old state    112
 New state    104 was old state    100
 New state    105 was old state    103
 New state    106 was old state    105
 New state    108 was old state    109
 New state    109 was old state    111
 New state    110 was old state    108
 New state    111 was old state    113
 New state    112 was old state    114
 New state    113 was old state    119
 New state    114 was old state    110
 New state    115 was old state    123
 New state    116 was old state    115
 New state    117 was old state    118
 New state    118 was old state    116
 New state    119 was old state    117
 New state    120 was old state    140
 New state    121 was old state    120
 New state    122 was old state    135
 New state    123 was old state    122
 New state    124 was old state    121
 New state    125 was old state    131
 New state    126 was old state    124
 New state    128 was old state    125
 New state    130 was old state    126
 New state    131 was old state    130
 New state    132 was old state    138
 New state    134 was old state    128
 New state    135 was old state    132
 New state    136 was old state    134
 New state    138 was old state    136
 New state    140 was old state    142
 New state    141 was old state    144
 New state    142 was old state    148
 New state    144 was old state    145
 New state    145 was old state    141
 New state    146 was old state    149
 New state    147 was old state    150
 New state    148 was old state    146
 New state    149 was old state    151
 New state    150 was old state    154
 New state    151 was old state    161
 New state    153 was old state    147
 New state    154 was old state    153
 New state    156 was old state    163
 New state    157 was old state    164
 New state    158 was old state    157
 New state    160 was old state    166
 New state    161 was old state    160
 New state    162 was old state    165
 New state    163 was old state    168
 New state    164 was old state    162
 New state    165 was old state    169
 New state    166 was old state    174
 New state    168 was old state    177
 New state    169 was old state    203
 New state    170 was old state    158
 New state    172 was old state    176
 New state    173 was old state    179
 New state    174 was old state    170
 New state    175 was old state    180
 New state    176 was old state    172
 New state    177 was old state    178
 New state    178 was old state    173
 New state    179 was old state    175
 New state    180 was old state    185
 New state    182 was old state    208
 New state    183 was old state    182
 New state    184 was old state    183
 New state    185 was old state    190
 New state    186 was old state    187
 New state    187 was old state    198
 New state    188 was old state    191
 New state    189 was old state    184
 New state    190 was old state    193
 New state    191 was old state    192
 New state    192 was old state    189
 New state    193 was old state    199
 New state    194 was old state    188
 New state    195 was old state    186
 New state    196 was old state    194
 New state    197 was old state    196
 New state    198 was old state    195
 New state    199 was old state    259
 New state    201 was old state    206
 New state    202 was old state    197
 New state    203 was old state    204
 New state    204 was old state    210
 New state    205 was old state    201
 New state    206 was old state    213
 New state    207 was old state    202
 New state    208 was old state    205
 New state    210 was old state    207
 New state    211 was old state    216
 New state    212 was old state    214
 New state    213 was old state    233
 New state    214 was old state    211
 New state    215 was old state    212
 New state    216 was old state    215
 New state    217 was old state    220
 New state    218 was old state    217
 New state    219 was old state    218
 New state    220 was old state    227
 New state    221 was old state    224
 New state    222 was old state    219
 New state    223 was old state    226
 New state    224 was old state    222
 New state    226 was old state    232
 New state    227 was old state    228
 New state    228 was old state    237
 New state    229 was old state    230
 New state    230 was old state    234
 New state    231 was old state    235
 New state    232 was old state    229
 New state    233 was old state    243
 New state    234 was old state    240
 New state    235 was old state    248
 New state    236 was old state    238
 New state    237 was old state    247
 New state    238 was old state    223
 New state    239 was old state    236
 New state    240 was old state    244
 New state    241 was old state    231
 New state    243 was old state    239
 New state    244 was old state    241
 New state    245 was old state    246
 New state    246 was old state    245
 New state    247 was old state    253
 New state    248 was old state    262
 New state    249 was old state    263
 New state    251 was old state    249
 New state    252 was old state    258
 New state    253 was old state    252
 New state    254 was old state    251
 New state    255 was old state    256
 New state    256 was old state    264
 New state    257 was old state    255
 New state    258 was old state    272
 New state    259 was old state    261
 New state    260 was old state    274
 New state    261 was old state    257
 New state    262 was old state    254
 New state    263 was old state    260
 New state    264 was old state    267
 New state    265 was old state    266
 New state    266 was old state    265
 New state    267 was old state    269
 New state    268 was old state    270
 New state    269 was old state    276
 New state    270 was old state    278
 New state    271 was old state    273
 New state    272 was old state    268
 New state    273 was old state    271
 New state    274 was old state    287
 New state    276 was old state    279
 New state    277 was old state    282
 New state    278 was old state    280
 New state    279 was old state    284
 New state    280 was old state    290
 New state    281 was old state    286
 New state    282 was old state    283
 New state    283 was old state    288
 New state    284 was old state    294
 New state    285 was old state    281
 New state    286 was old state    291
 New state    287 was old state    293
 New state    288 was old state    277
 New state    290 was old state    285
 New state    291 was old state    300
 New state    293 was old state    299
 New state    294 was old state    309
 New state    297 was old state    301
 New state    298 was old state    305
 New state    299 was old state    298
 New state    300 was old state    303
 New state    301 was old state    307
 New state    302 was old state    297
 New state    303 was old state    304
 New state    304 was old state    306
 New state    305 was old state    302
 New state    306 was old state    313
 New state    307 was old state    310
 New state    308 was old state    315
 New state    309 was old state    311
 New state    310 was old state    314
 New state    311 was old state    312
 New state    312 was old state    308
 New state    313 was old state    316
 No map to state    314
 New state    315 was old state    317
 New state    316 was old state    319
 New state    317 was old state    321
 New state    318 was old state    322
 New state    319 was old state    318
 New state    320 was old state    323
 New state    321 was old state    320
 New state    322 was old state    328
 New state    323 was old state    337
 New state    324 was old state    326
 New state    326 was old state    324
 New state    327 was old state    332
 New state    328 was old state    334
 New state    329 was old state    327
 New state    330 was old state    329
 New state    331 was old state    335
 New state    332 was old state    340
 New state    333 was old state    336
 New state    334 was old state    331
 New state    335 was old state    330
 New state    336 was old state    333
 New state    337 was old state    339
 New state    339 was old state    351
 New state    340 was old state    346
 New state    342 was old state    349
 New state    343 was old state    342
 New state    344 was old state    353
 New state    345 was old state    348
 New state    346 was old state    343
 New state    347 was old state    344
 New state    348 was old state    347
 New state    349 was old state    352
 New state    350 was old state    355
 New state    351 was old state    350
 New state    352 was old state    356
 New state    353 was old state    357
 No map to state    355
 New state    356 was old state    364
 New state    357 was old state    362
 New state    358 was old state    359
 New state    359 was old state    361
 New state    360 was old state    374
 New state    361 was old state    358
 New state    362 was old state    360
 New state    364 was old state    367
 New state    365 was old state    366
 New state    366 was old state    368
 New state    367 was old state    365
 No map to state    368
 New state    369 was old state    371
 New state    370 was old state    369
 New state    371 was old state    370
 New state    372 was old state    384
 New state    373 was old state    378
 New state    374 was old state    372
 New state    375 was old state    385
 New state    376 was old state    373
 New state    377 was old state    376
 New state    378 was old state    377
 New state    379 was old state    387
 New state    380 was old state    379
 New state    381 was old state    375
 New state    383 was old state    381
 New state    384 was old state    380
 New state    385 was old state    383
 New state    386 was old state    388
 New state    387 was old state    389
 New state    388 was old state    386
 New state    389 was old state    394
 New state    390 was old state    391
 New state    391 was old state    406
 New state    392 was old state    404
 New state    393 was old state    396
 New state    394 was old state    390
 New state    395 was old state    393
 New state    396 was old state    392
 New state    397 was old state    395
 New state    398 was old state    402
 New state    400 was old state    403
 New state    401 was old state    398
 New state    402 was old state    400
 New state    403 was old state    408
 New state    404 was old state    397
 New state    406 was old state    410
 New state    407 was old state    401
 New state    408 was old state    412
 New state    409 was old state    411
 New state    410 was old state    414
 New state    411 was old state    407
 New state    412 was old state    418
 New state    413 was old state    409
 New state    414 was old state    417
 New state    415 was old state    420
 New state    416 was old state    413
 New state    417 was old state    415
 New state    418 was old state    423
 New state    419 was old state    416
 New state    420 was old state    421
 New state    421 was old state    419
 New state    422 was old state    426
 New state    423 was old state    425
 New state    424 was old state    433
 New state    425 was old state    429
 New state    426 was old state    427
 New state    427 was old state    422
 New state    428 was old state    432
 New state    429 was old state    431
 New state    430 was old state    424
 New state    431 was old state    435
 New state    432 was old state    430
 New state    433 was old state    443
 New state    434 was old state    428
 New state    435 was old state    441
 New state    436 was old state    439
 New state    437 was old state    444
 New state    438 was old state    434
 New state    439 was old state    440
 New state    440 was old state    437
 New state    441 was old state    446
 New state    442 was old state    447
 New state    443 was old state    442
 New state    444 was old state    436
 New state    445 was old state    448
 New state    446 was old state    438
 New state    447 was old state    445
 New state    448 was old state    452
 New state    451 was old state    462
 New state    452 was old state    460
 New state    453 was old state    451
 New state    454 was old state    453
 New state    455 was old state    457
 New state    456 was old state    464
 New state    457 was old state    454
 New state    458 was old state    461
 New state    459 was old state    455
 New state    460 was old state    458
 New state    461 was old state    463
 New state    462 was old state    465
 New state    463 was old state    459
 New state    464 was old state    456
 New state    465 was old state    466
 New state    466 was old state    469
 New state    467 was old state    470
 New state    468 was old state    467
 New state    469 was old state    468
 New state    470 was old state    474
 New state    471 was old state    473
 New state    472 was old state    476
 New state    473 was old state    472
 New state    474 was old state    475
 New state    475 was old state    477
 New state    476 was old state    478
 New state    477 was old state    471
 New state    478 was old state    479
 New state    479 was old state    482
 New state    480 was old state    485
 New state    481 was old state    483
 New state    482 was old state    481
 New state    483 was old state    480
 New state    484 was old state    487
 New state    485 was old state    484
 New state    487 was old state    488
 New state    488 was old state    490
 New state    490 was old state    497
 New state    493 was old state    499
 New state    494 was old state    493
 New state    495 was old state    494
 New state    496 was old state    500
 New state    497 was old state    498
 New state    498 was old state    495
 New state    499 was old state    496
 New state    500 was old state    501
 New state    501 was old state    502
 New state    502 was old state    506
 New state    504 was old state    507
 New state    505 was old state    510
 New state    506 was old state    512
 New state    507 was old state    509
 New state    508 was old state    505
 New state    509 was old state    513
 New state    510 was old state    517
 New state    511 was old state    508
 New state    512 was old state    514
 New state    513 was old state    511
 New state    514 was old state    518
 New state    515 was old state    504
 New state    516 was old state    526
 New state    517 was old state    515
 New state    518 was old state    516
 New state    521 was old state    522
 New state    522 was old state    523
 New state    523 was old state    521
 New state    524 was old state    528
 New state    525 was old state    524
 New state    526 was old state    527
 New state    527 was old state    525
 New state    528 was old state    529
 New state    529 was old state    531
 New state    530 was old state    538
 New state    531 was old state    530
 New state    532 was old state    534
 New state    533 was old state    532
 New state    534 was old state    533
 New state    535 was old state    536
 New state    536 was old state    537
 New state    537 was old state    535
 New state    538 was old state    542
 New state    542 was old state    543
 New state    543 was old state    545
 New state    544 was old state    547
 New state    545 was old state    544
 No map to state    546
 New state    547 was old state    546
 New state    548 was old state    549
 New state    549 was old state    550
 New state    550 was old state    548
 New state    554 was old state    559
 New state    555 was old state    554
 New state    556 was old state    558
 New state    558 was old state    556
 New state    559 was old state    560
 New state    560 was old state    555
 New state    562 was old state    564
 New state    564 was old state    565
 New state    565 was old state    562
 New state    568 was old state    573
 New state    569 was old state    575
 New state    570 was old state    569
 New state    573 was old state    570
 New state    574 was old state    568
 New state    575 was old state    576
 New state    576 was old state    574
 New state    578 was old state    582
 New state    579 was old state    578
 New state    580 was old state    579
 New state    581 was old state    580
 New state    582 was old state    583
 New state    583 was old state    585
 New state    584 was old state    581
 New state    585 was old state    584
 New state    586 was old state    587
 New state    587 was old state    586
 New state    588 was old state    590
 New state    589 was old state    593
 New state    590 was old state    592
 New state    592 was old state    589
 New state    593 was old state    588
 New state    594 was old state    597
 New state    597 was old state    594
 New state    599 was old state    602
 New state    601 was old state    599
 New state    602 was old state    601
 New state    603 was old state    604
 New state    604 was old state    603
 New state    605 was old state    606
 New state    606 was old state    608
 New state    608 was old state    605
 New state    609 was old state    612
 New state    610 was old state    611
 New state    611 was old state    610
 New state    612 was old state    613
 New state    613 was old state    615
 New state    615 was old state    616
 New state    616 was old state    609
 New state    620 was old state    623
 New state    621 was old state    625
 New state    622 was old state    620
 New state    623 was old state    624
 New state    624 was old state    621
 New state    625 was old state    622
 New state    626 was old state    628
 New state    627 was old state    626
 New state    628 was old state    629
 New state    629 was old state    631
 New state    630 was old state    636
 New state    631 was old state    634
 New state    632 was old state    627
 New state    633 was old state    635
 New state    634 was old state    632
 New state    635 was old state    630
 New state    636 was old state    633
 New state    637 was old state    639
 New state    638 was old state    637
 New state    639 was old state    642
 New state    640 was old state    638
 New state    642 was old state    647
 New state    643 was old state    645
 New state    644 was old state    650
 New state    645 was old state    644
 New state    646 was old state    643
 New state    647 was old state    646
 New state    649 was old state    640
 New state    650 was old state    652
 New state    652 was old state    655
 New state    653 was old state    654
 New state    654 was old state    649
 New state    655 was old state    658
 New state    656 was old state    653
 New state    658 was old state    662
 New state    659 was old state    660
 New state    660 was old state    656
 New state    662 was old state    659
 New state    670 was old state    672
 New state    672 was old state    673
 New state    673 was old state    670
 New state    674 was old state    676
 New state    676 was old state    674
 New state    678 was old state    681
 New state    679 was old state    678
 New state    680 was old state    679
 New state    681 was old state    680
 New state    684 was old state    686
 New state    685 was old state    684
 New state    686 was old state    685
 New state    687 was old state    688
 New state    688 was old state    687
 New state    689 was old state    691
 New state    691 was old state    689
 New state    692 was old state    693
 New state    693 was old state    692
 New state    697 was old state    698
 New state    698 was old state    699
 New state    699 was old state    697
 New state    700 was old state    701
 New state    701 was old state    702
 New state    702 was old state    700
 New state    706 was old state    708
 New state    707 was old state    706
 New state    708 was old state    709
 New state    709 was old state    707
 New state    711 was old state    712
 New state    712 was old state    711
 New state    717 was old state    718
 New state    718 was old state    719
 New state    719 was old state    717
 New state    720 was old state    722
 New state    721 was old state    720
 New state    722 was old state    724
 New state    723 was old state    726
 New state    724 was old state    723
 New state    725 was old state    721
 New state    726 was old state    725
 New state    727 was old state    728
 New state    728 was old state    729
 New state    729 was old state    727
 New state    730 was old state    731
 New state    731 was old state    730
 New state    732 was old state    735
 New state    733 was old state    732
 New state    734 was old state    733
 New state    735 was old state    736
 New state    736 was old state    734
 New state    737 was old state    738
 New state    738 was old state    743
 New state    741 was old state    737
 New state    743 was old state    745
 New state    744 was old state    741
 New state    745 was old state    744
 New state    747 was old state    748
 New state    748 was old state    747
 New state    751 was old state    754
 New state    752 was old state    755
 New state    753 was old state    752
 New state    754 was old state    751
 New state    755 was old state    756
 New state    756 was old state    757
 New state    757 was old state    758
 New state    758 was old state    753
 New state    760 was old state    761
 New state    761 was old state    760
 New state    762 was old state    763
 New state    763 was old state    764
 New state    764 was old state    762
 New state    767 was old state    768
 New state    768 was old state    770
 New state    769 was old state    767
 New state    770 was old state    771
 New state    771 was old state    769
 New state    772 was old state    774
 New state    774 was old state    772
 New state    775 was old state    777
 New state    776 was old state    775
 New state    777 was old state    778
 New state    778 was old state    776
 New state    783 was old state    784
 New state    784 was old state    783
 New state    785 was old state    787
 New state    786 was old state    785
 New state    787 was old state    786
 New state    790 was old state    791
 New state    791 was old state    790
 New state    793 was old state    794
 New state    794 was old state    793
 New state    795 was old state    796
 New state    796 was old state    795
 New state    798 was old state    800
 New state    799 was old state    798
 New state    800 was old state    803
 New state    802 was old state    799
 New state    803 was old state    805
 New state    804 was old state    802
 New state    805 was old state    804
 New state    807 was old state    809
 New state    808 was old state    807
 New state    809 was old state    810
 New state    810 was old state    808
 New state    811 was old state    812
 New state    812 was old state    811
 New state    815 was old state    817
 New state    816 was old state    815
 New state    817 was old state    818
 New state    818 was old state    820
 New state    819 was old state    816
 New state    820 was old state    819
 New state    821 was old state    822
 New state    822 was old state    821
 New state    823 was old state    825
 New state    824 was old state    823
 New state    825 was old state    828
 New state    826 was old state    824
 New state    827 was old state    826
 New state    828 was old state    827
 New state    829 was old state    830
 New state    830 was old state    829
 New state    831 was old state    832
 New state    832 was old state    831
 New state    833 was old state    836
 New state    834 was old state    835
 New state    835 was old state    837
 New state    836 was old state    834
 New state    837 was old state    838
 New state    838 was old state    839
 New state    839 was old state    842
 New state    840 was old state    846
 New state    841 was old state    845
 New state    842 was old state    840
 New state    844 was old state    841
 New state    845 was old state    844
 New state    846 was old state    847
 No map to state    847
 New state    850 was old state    851
 New state    851 was old state    852
 New state    852 was old state    850
 New state    855 was old state    856
 New state    856 was old state    855
 New state    857 was old state    859
 New state    859 was old state    857
 Excitation Energies [eV] at current iteration:
 Root      1 :     7.248549760160270
 Root      2 :     7.583429088437105
 Root      3 :     7.987390931608418
 Root      4 :     8.134621340396542
 Root      5 :     8.331923490007629
 Root      6 :     9.230595607701813
 Root      7 :     9.297594176216199
 Root      8 :     9.685341681362569
 Root      9 :     9.704646659532731
 Root     10 :     9.735350392550851
 Root     11 :    10.229638077153240
 Root     12 :    10.245822709829080
 Root     13 :    10.495161232932300
 Root     14 :    10.524021411130340
 Root     15 :    10.525613693412570
 Root     16 :    10.644087718038460
 Root     17 :    10.740082425191610
 Root     18 :    11.064706673233730
 Root     19 :    11.237081383393020
 Root     20 :    11.312635881243360
 Root     21 :    11.387965736670520
 Root     22 :    11.408860202448400
 Root     23 :    11.524670980335700
 Root     24 :    11.811001522186410
 Root     25 :    11.847279412788740
 Root     26 :    11.882468984149800
 Root     27 :    12.031777618165980
 Root     28 :    12.053300944425260
 Root     29 :    12.145495861967070
 Root     30 :    12.353159881784130
 Root     31 :    12.397244738986200
 Root     32 :    12.463949124374100
 Root     33 :    12.513401151040090
 Root     34 :    12.696938718065270
 Root     35 :    12.746740446507660
 Root     36 :    12.811989367118710
 Root     37 :    12.822486093674390
 Root     38 :    12.860790765676830
 Root     39 :    12.969600246819890
 Root     40 :    12.993105239073100
 Root     41 :    13.157099927949940
 Root     42 :    13.222822285892950
 Root     43 :    13.293569412030440
 Root     44 :    13.313314053806080
 Root     45 :    13.374308337098680
 Root     46 :    13.529076961915000
 Root     47 :    13.618341040421270
 Root     48 :    13.644634150347030
 Root     49 :    13.733130387210560
 Root     50 :    13.926338298885850
 Root     51 :    14.033505183493560
 Root     52 :    14.100356429729830
 Root     53 :    14.130706694437780
 Root     54 :    14.169622126395980
 Root     55 :    14.234302558325460
 Root     56 :    14.266759073584940
 Root     57 :    14.291532960653680
 Root     58 :    14.327544470097640
 Root     59 :    14.415729516753670
 Root     60 :    14.528197778107470
 Root     61 :    14.543920971266760
 Root     62 :    14.588314417499160
 Root     63 :    14.618623578606280
 Root     64 :    14.756955415841170
 Root     65 :    14.767242884753410
 Root     66 :    14.914508030189950
 Root     67 :    15.047298065740490
 Root     68 :    15.059838173655970
 Root     69 :    15.173361947914510
 Root     70 :    15.288293729976380
 Root     71 :    15.319158977486020
 Root     72 :    15.412919151071980
 Root     73 :    15.431178187874440
 Root     74 :    15.520416772244830
 Root     75 :    15.525473853182990
 Root     76 :    15.610795999175800
 Root     77 :    15.694598580434220
 Root     78 :    15.711690143450440
 Root     79 :    15.740741532623250
 Root     80 :    15.742993909305100
 Root     81 :    15.776204054745080
 Root     82 :    15.858180508683080
 Root     83 :    15.918526166668560
 Root     84 :    15.963016930526500
 Root     85 :    16.073350241579660
 Root     86 :    16.094589803600990
 Root     87 :    16.184734708031990
 Root     88 :    16.186703904743360
 Root     89 :    16.259650304054220
 Root     90 :    16.268718796103530
 Root     91 :    16.403358671259360
 Root     92 :    16.508427373124310
 Root     93 :    16.524902191412000
 Root     94 :    16.589159364815400
 Root     95 :    16.610618684987060
 Root     96 :    16.627986563805240
 Root     97 :    16.670138879797330
 Root     98 :    16.721807138847790
 Root     99 :    16.837105747540790
 Root    100 :    16.849082091525400
 Root    101 :    16.885797502495450
 Root    102 :    16.937806103825270
 Root    103 :    16.943057940076050
 Root    104 :    17.093634925662780
 Root    105 :    17.190964449828840
 Root    106 :    17.263589314863990
 Root    107 :    17.305791684389230
 Root    108 :    17.399277764637420
 Root    109 :    17.456596350631780
 Root    110 :    17.497151750486160
 Root    111 :    17.589695306345020
 Root    112 :    17.594489409836780
 Root    113 :    17.625827946836090
 Root    114 :    17.668052489808050
 Root    115 :    17.694847594736860
 Root    116 :    17.817448767012530
 Root    117 :    17.871768018020010
 Root    118 :    17.877895392713630
 Root    119 :    17.917887669984890
 Root    120 :    18.026978770671040
 Root    121 :    18.049206876158010
 Root    122 :    18.067631680548830
 Root    123 :    18.180554206769400
 Root    124 :    18.204957037687500
 Root    125 :    18.306851260888920
 Root    126 :    18.308455787861510
 Root    127 :    18.429913697401360
 Root    128 :    18.498630381342820
 Root    129 :    18.544456758505180
 Root    130 :    18.549848522763570
 Root    131 :    18.576092979331770
 Root    132 :    18.634158295393960
 Root    133 :    18.637641920154650
 Root    134 :    18.734218335519170
 Root    135 :    18.746793107666090
 Root    136 :    18.778875453112670
 Root    137 :    18.807385662199090
 Root    138 :    18.916606366349000
 Root    139 :    18.929120700237200
 Root    140 :    19.003064173411980
 Root    141 :    19.004829877091430
 Root    142 :    19.036975061540300
 Root    143 :    19.050864101096580
 Root    144 :    19.066813002527540
 Root    145 :    19.149257867952680
 Root    146 :    19.175417564221720
 Root    147 :    19.193590478404810
 Root    148 :    19.235367998906140
 Root    149 :    19.309190477223490
 Root    150 :    19.385571525134830
 Root    151 :    19.399719895195140
 Root    152 :    19.424577860008540
 Root    153 :    19.464486289370550
 Root    154 :    19.487140009474170
 Root    155 :    19.541664263745600
 Root    156 :    19.548169317658240
 Root    157 :    19.708400838733930
 Root    158 :    19.749680894248420
 Root    159 :    19.808941121147770
 Root    160 :    19.891230399642140
 Root    161 :    19.912858556190580
 Root    162 :    19.930806071668750
 Root    163 :    19.980014928460100
 Root    164 :    20.037371617568610
 Root    165 :    20.096359291008220
 Root    166 :    20.118574805561220
 Root    167 :    20.148662364273140
 Root    168 :    20.170755356721490
 Root    169 :    20.217005937467320
 Root    170 :    20.244497375759390
 Root    171 :    20.317659380580100
 Root    172 :    20.361431629387340
 Root    173 :    20.395821094988800
 Root    174 :    20.465346372869460
 Root    175 :    20.491437683867630
 Root    176 :    20.505516513606310
 Root    177 :    20.535289273867300
 Root    178 :    20.564578537743710
 Root    179 :    20.637669851493220
 Root    180 :    20.663258740054170
 Root    181 :    20.775500064788640
 Root    182 :    20.890463426567850
 Root    183 :    20.951178189876400
 Root    184 :    20.952656050984520
 Root    185 :    21.038629710425870
 Root    186 :    21.059333797555670
 Root    187 :    21.059803977468070
 Root    188 :    21.130753531566280
 Root    189 :    21.156552501915820
 Root    190 :    21.178983293351880
 Root    191 :    21.260542974492800
 Root    192 :    21.296608506780030
 Root    193 :    21.299177667475940
 Root    194 :    21.342490355701140
 Root    195 :    21.388406908814840
 Root    196 :    21.392462222765480
 Root    197 :    21.435084445343820
 Root    198 :    21.492575633574580
 Root    199 :    21.510784446706520
 Root    200 :    21.514046684955980
 Root    201 :    21.538431431251400
 Root    202 :    21.589619161079150
 Root    203 :    21.683418975660540
 Root    204 :    21.687588993132120
 Root    205 :    21.708390023743120
 Root    206 :    21.738278607856980
 Root    207 :    21.786561025084070
 Root    208 :    21.903802825386150
 Root    209 :    22.044447424074880
 Root    210 :    22.066595146644580
 Root    211 :    22.068162879062340
 Root    212 :    22.114181667285490
 Root    213 :    22.156542076324260
 Root    214 :    22.175787763221460
 Root    215 :    22.188344637515270
 Root    216 :    22.258361383844560
 Root    217 :    22.361231204488350
 Root    218 :    22.390461968758090
 Root    219 :    22.433818896959800
 Root    220 :    22.457133625666910
 Root    221 :    22.489959313318440
 Root    222 :    22.514574530688290
 Root    223 :    22.536961454687630
 Root    224 :    22.613819657761050
 Root    225 :    22.643925322593300
 Root    226 :    22.664773970341400
 Root    227 :    22.696572762252480
 Root    228 :    22.753807316508500
 Root    229 :    22.818931477765970
 Root    230 :    22.848983588333640
 Root    231 :    22.859862983568580
 Root    232 :    22.872642722148620
 Root    233 :    22.943144499614370
 Root    234 :    22.974896666551680
 Root    235 :    22.977699504779060
 Root    236 :    23.020967354962990
 Root    237 :    23.038325502494080
 Root    238 :    23.063514979519460
 Root    239 :    23.077811988294190
 Root    240 :    23.087566005077850
 Root    241 :    23.104242709758150
 Root    242 :    23.214210415072430
 Root    243 :    23.278405755669130
 Root    244 :    23.331100257122440
 Root    245 :    23.345512422327980
 Root    246 :    23.434217675566270
 Root    247 :    23.450133972547420
 Root    248 :    23.474490278725930
 Root    249 :    23.585233016064410
 Root    250 :    23.616432283746390
 Root    251 :    23.678702442801340
 Root    252 :    23.757278451239280
 Root    253 :    23.795697722436590
 Root    254 :    23.852585589847450
 Root    255 :    23.882014419901880
 Root    256 :    23.896511556351640
 Root    257 :    23.915363933403300
 Root    258 :    23.951914005437130
 Root    259 :    23.986750440689550
 Root    260 :    24.040726174450010
 Root    261 :    24.090990567847790
 Root    262 :    24.122347048885450
 Root    263 :    24.172964869893200
 Root    264 :    24.242188376174660
 Root    265 :    24.273645797153500
 Root    266 :    24.310949029365340
 Root    267 :    24.364893336771870
 Root    268 :    24.471526243550470
 Root    269 :    24.475394823309340
 Root    270 :    24.508194815648700
 Root    271 :    24.567493834113090
 Root    272 :    24.599301681868230
 Root    273 :    24.611968012512970
 Root    274 :    24.622487538940490
 Root    275 :    24.673521259526310
 Root    276 :    24.741918829173830
 Root    277 :    24.788912878596380
 Root    278 :    24.901833702599870
 Root    279 :    24.932585209970340
 Root    280 :    24.939865185388320
 Root    281 :    24.967816865436780
 Root    282 :    25.001164950283260
 Root    283 :    25.023366646309650
 Root    284 :    25.074525264261350
 Root    285 :    25.139240491141870
 Root    286 :    25.194972445102030
 Root    287 :    25.244595950734670
 Root    288 :    25.272583268830420
 Root    289 :    25.300867064798960
 Root    290 :    25.304699531516370
 Root    291 :    25.359926493657260
 Root    292 :    25.457446231810140
 Root    293 :    25.498152448629190
 Root    294 :    25.506696430394630
 Root    295 :    25.584911527514240
 Root    296 :    25.625141996949770
 Root    297 :    25.787440184659140
 Root    298 :    25.833203471762260
 Root    299 :    25.846410801261290
 Root    300 :    25.921139354685810
 Root    301 :    25.974175667685240
 Root    302 :    25.994389288405910
 Root    303 :    26.032095897049840
 Root    304 :    26.069365306296540
 Root    305 :    26.127065929284440
 Root    306 :    26.159583227217980
 Root    307 :    26.276508812757190
 Root    308 :    26.312667295948720
 Root    309 :    26.335554073997650
 Root    310 :    26.382595938844130
 Root    311 :    26.444986158956830
 Root    312 :    26.464732297118690
 Root    313 :    26.528132452935240
 Root    314 :    26.575860204376760
 Root    315 :    26.698681541846370
 Root    316 :    26.782629943354300
 Root    317 :    26.865109216367770
 Root    318 :    26.883779830446980
 Root    319 :    26.932748833186700
 Root    320 :    26.950245827720490
 Root    321 :    27.208143571052180
 Root    322 :    27.259476120400460
 Root    323 :    27.354754313348420
 Root    324 :    27.371757509010490
 Root    325 :    27.421475727466800
 Root    326 :    27.496604330380170
 Root    327 :    27.586247994126290
 Root    328 :    27.633782970270510
 Root    329 :    27.714766310401190
 Root    330 :    27.732764940954660
 Root    331 :    27.744719265884340
 Root    332 :    27.807738320236180
 Root    333 :    27.847572327471990
 Root    334 :    27.864974030763160
 Root    335 :    27.932657651741780
 Root    336 :    27.951431211450500
 Root    337 :    28.069388604924040
 Root    338 :    28.142172945230130
 Root    339 :    28.212641429930530
 Root    340 :    28.356804808149550
 Root    341 :    28.370837062161940
 Root    342 :    28.445379789425310
 Root    343 :    28.573215421575430
 Root    344 :    28.591750196793410
 Root    345 :    28.636422325591790
 Root    346 :    28.733050805650650
 Root    347 :    28.738290461570520
 Root    348 :    28.774119046746280
 Root    349 :    28.829329966905010
 Root    350 :    28.967712114593300
 Root    351 :    28.983314062495180
 Root    352 :    29.066261959047540
 Root    353 :    29.080593186632070
 Root    354 :    29.181778062098400
 Root    355 :    29.224495019121420
 Root    356 :    29.338426205247900
 Root    357 :    29.370135327497910
 Root    358 :    29.487553397959260
 Root    359 :    29.629419481595260
 Root    360 :    29.664850325990200
 Root    361 :    29.748830785510450
 Root    362 :    29.976504036540710
 Root    363 :    30.064545027297910
 Root    364 :    30.346989307892400
 Root    365 :    30.438402840605910
 Root    366 :    30.489939688423130
 Root    367 :    30.507645079351520
 Root    368 :    30.536250632102340
 Root    369 :    30.570148618942190
 Root    370 :    30.826789189381900
 Root    371 :    30.852422483749640
 Root    372 :    31.013942293999590
 Root    373 :    31.142866827926350
 Root    374 :    31.225613023273300
 Root    375 :    31.237098237277480
 Root    376 :    31.307271065887420
 Root    377 :    31.307886218888220
 Root    378 :    31.328382788230340
 Root    379 :    31.432959561256290
 Root    380 :    31.437569196141610
 Root    381 :    31.495990618176490
 Root    382 :    31.536965294295560
 Root    383 :    31.636484005549940
 Root    384 :    31.685205901124020
 Root    385 :    31.737470648805510
 Root    386 :    31.788563010444930
 Root    387 :    31.908093106667360
 Root    388 :    32.018566176011780
 Root    389 :    32.113766289796770
 Root    390 :    32.201489293698420
 Root    391 :    32.318375543928490
 Root    392 :    32.481044451587260
 Root    393 :    32.506659342986560
 Root    394 :    32.581814256057360
 Root    395 :    32.660339258423240
 Root    396 :    32.756450944997580
 Root    397 :    32.820446153185070
 Root    398 :    32.933425985992900
 Root    399 :    32.983747821777470
 Root    400 :    33.085393992973810
 Root    401 :    33.127056490786890
 Root    402 :    33.215539356511370
 Root    403 :    33.325714141934010
 Root    404 :    33.350435604965620
 Root    405 :    33.388450397638740
 Root    406 :    33.423627977948910
 Root    407 :    33.526371480005190
 Root    408 :    33.618445914481160
 Root    409 :    33.629248762730350
 Root    410 :    33.977286495571120
 Root    411 :    33.992921443370150
 Root    412 :    34.035414222319050
 Root    413 :    34.143164962369190
 Root    414 :    34.146909778912130
 Root    415 :    34.269237312501230
 Root    416 :    34.348460095986970
 Root    417 :    34.513734227768570
 Root    418 :    34.589302695429060
 Root    419 :    34.616760259446560
 Root    420 :    34.690988628509040
 Root    421 :    34.789811676672800
 Root    422 :    34.860360274550210
 Root    423 :    34.954290438457020
 Root    424 :    35.006224291105690
 Root    425 :    35.054771775669320
 Root    426 :    35.109187766294260
 Root    427 :    35.124569006524690
 Root    428 :    35.237844647957970
 Root    429 :    35.271524074328720
 Root    430 :    35.381001274017270
 Root    431 :    35.387244023710980
 Root    432 :    35.527491787088940
 Root    433 :    35.549219599437780
 Root    434 :    35.664491424810170
 Root    435 :    35.699263501649950
 Root    436 :    35.943987977982910
 Root    437 :    36.006134649819740
 Root    438 :    36.038207825732240
 Root    439 :    36.095291543396510
 Root    440 :    36.166342467293440
 Root    441 :    36.250575485436720
 Root    442 :    36.285379119792010
 Root    443 :    36.338143167846130
 Root    444 :    36.452401960942860
 Root    445 :    36.544987797647980
 Root    446 :    36.549136324353040
 Root    447 :    36.613692377949360
 Root    448 :    36.841027130829210
 Root    449 :    36.965232493283860
 Root    450 :    37.040405934110030
 Root    451 :    37.093220657946990
 Root    452 :    37.153875365380440
 Root    453 :    37.343834774850660
 Root    454 :    37.344848819234000
 Root    455 :    37.468719073101100
 Root    456 :    37.502968242731400
 Root    457 :    37.590314719772240
 Root    458 :    37.717934732835680
 Root    459 :    37.744351761863950
 Root    460 :    37.754360820369310
 Root    461 :    37.790287571070720
 Root    462 :    37.828055838883520
 Root    463 :    37.911884113667630
 Root    464 :    37.959718379273430
 Root    465 :    38.067766473620990
 Root    466 :    38.177124381936980
 Root    467 :    38.345046641213020
 Root    468 :    38.438811199437570
 Root    469 :    38.504878007257830
 Root    470 :    38.863410816716040
 Root    471 :    39.027909856863990
 Root    472 :    39.073840740927120
 Root    473 :    39.189064040045760
 Root    474 :    39.263266134452290
 Root    475 :    39.474518238241410
 Root    476 :    39.512877918013120
 Root    477 :    39.540837879048140
 Root    478 :    39.541550542001350
 Root    479 :    39.774857688672470
 Root    480 :    39.795861130642810
 Root    481 :    39.883900785155330
 Root    482 :    39.913234664462020
 Root    483 :    39.913822082055960
 Root    484 :    40.011321079985550
 Root    485 :    40.061737987111540
 Root    486 :    40.200558182503660
 Root    487 :    40.344108219068880
 Root    488 :    40.423890311401980
 Root    489 :    40.611245631149670
 Root    490 :    40.795271058293490
 Root    491 :    41.043037420610030
 Root    492 :    41.140762649018000
 Root    493 :    41.223926333528070
 Root    494 :    41.301360538216490
 Root    495 :    41.326407478920710
 Root    496 :    41.432198591208580
 Root    497 :    41.464703754686600
 Root    498 :    41.490936753159770
 Root    499 :    41.517912613213670
 Root    500 :    41.891392931941470
 Root    501 :    42.038043415536290
 Root    502 :    42.182202223107040
 Root    503 :    42.336411498063650
 Root    504 :    42.370427840912420
 Root    505 :    42.551723521453500
 Root    506 :    42.553784259004300
 Root    507 :    42.813579301103380
 Root    508 :    43.018746466126360
 Root    509 :    43.148733775267670
 Root    510 :    43.276836590493100
 Root    511 :    43.339581574404160
 Root    512 :    43.460887783653600
 Root    513 :    43.495296007770510
 Root    514 :    43.523512959096810
 Root    515 :    43.568796564636410
 Root    516 :    43.675408539755400
 Root    517 :    43.697796720118670
 Root    518 :    43.844162029318010
 Root    519 :    43.973758635513740
 Root    520 :    44.106510172316630
 Root    521 :    44.350061369100520
 Root    522 :    44.415430462431300
 Root    523 :    44.441595647341000
 Root    524 :    44.647006887532040
 Root    525 :    44.691570432475170
 Root    526 :    44.892930049120990
 Root    527 :    44.994145987359950
 Root    528 :    45.061391530192660
 Root    529 :    45.355166741471860
 Root    530 :    45.696464153763830
 Root    531 :    45.833478259435180
 Root    532 :    46.012031136673780
 Root    533 :    46.052857696437420
 Root    534 :    46.138761890100840
 Root    535 :    46.207930387261140
 Root    536 :    46.347394350198730
 Root    537 :    46.647961115215490
 Root    538 :    46.851993488011530
 Root    539 :    47.077942762709720
 Root    540 :    47.108176749241610
 Root    541 :    47.159320354145250
 Root    542 :    47.309929343596250
 Root    543 :    47.487618650108950
 Root    544 :    47.544410545158420
 Root    545 :    47.581970945454110
 Root    546 :    47.759792753887280
 Root    547 :    47.929861080681530
 Root    548 :    48.173954340424710
 Root    549 :    48.317998687923950
 Root    550 :    48.513608559961330
 Root    551 :    48.632563930047470
 Root    552 :    48.717454448577070
 Root    553 :    49.213478168089080
 Root    554 :    49.372433826796200
 Root    555 :    49.389135739606640
 Root    556 :    49.741279690872150
 Root    557 :    49.762963981963350
 Root    558 :    49.783360535805410
 Root    559 :    49.883492353931470
 Root    560 :    50.013724329984690
 Root    561 :    50.139752868648240
 Root    562 :    50.231350071828210
 Root    563 :    50.530365614497120
 Root    564 :    50.603412301984290
 Root    565 :    50.760891508770780
 Root    566 :    51.325790074128270
 Root    567 :    51.404582873524120
 Root    568 :    51.567132296671940
 Root    569 :    51.801740636490630
 Root    570 :    51.829862860631340
 Root    571 :    51.937299244126710
 Root    572 :    52.164555086307410
 Root    573 :    52.195101809702010
 Root    574 :    52.220641152813340
 Root    575 :    52.408801725613780
 Root    576 :    52.840920976935320
 Root    577 :    52.850369712679510
 Root    578 :    53.083906495631910
 Root    579 :    53.086930829359400
 Root    580 :    53.224693737805850
 Root    581 :    53.340463572464320
 Root    582 :    53.602821764871770
 Root    583 :    53.678693561497050
 Root    584 :    53.684470526058550
 Root    585 :    53.987001155333690
 Root    586 :    54.593428041177920
 Root    587 :    54.670500100325870
 Root    588 :    54.760376050156000
 Root    589 :    54.955263911718350
 Root    590 :    55.079460169608570
 Root    591 :    55.145647501699320
 Root    592 :    55.257182921591510
 Root    593 :    55.277008775227600
 Root    594 :    55.412957214026700
 Root    595 :    55.573558386619270
 Root    596 :    55.632657706975380
 Root    597 :    55.674032773597600
 Root    598 :    55.876377047651580
 Root    599 :    56.054870798142820
 Root    600 :    56.165193895339460
 Root    601 :    56.190800270302230
 Root    602 :    56.493591671878880
 Root    603 :    56.683801009718810
 Root    604 :    57.167384761063520
 Root    605 :    57.304729416328880
 Root    606 :    57.458880317924130
 Root    607 :    57.488822998995960
 Root    608 :    57.609608481216710
 Root    609 :    57.969219620664520
 Root    610 :    58.151734070720700
 Root    611 :    58.329862171738600
 Root    612 :    58.368270116519040
 Root    613 :    58.663398771276330
 Root    614 :    58.679779431193460
 Root    615 :    58.747696009644940
 Root    616 :    58.830128493449100
 Root    617 :    59.199845694651400
 Root    618 :    59.248426765791640
 Root    619 :    59.275936850783950
 Root    620 :    59.372883496621350
 Root    621 :    59.427699063856010
 Root    622 :    59.537389242954210
 Root    623 :    59.620809898545860
 Root    624 :    59.750296218407480
 Root    625 :    59.774772776209590
 Root    626 :    60.101396228545690
 Root    627 :    60.469967535323330
 Root    628 :    60.473917397978950
 Root    629 :    60.672948636237710
 Root    630 :    60.752866551145230
 Root    631 :    60.866450589584100
 Root    632 :    60.965552460336820
 Root    633 :    61.003864317826530
 Root    634 :    61.015232303173580
 Root    635 :    61.105296862536680
 Root    636 :    61.208590921222310
 Root    637 :    61.440315547700880
 Root    638 :    61.606871586939770
 Root    639 :    61.617570254140970
 Root    640 :    61.691393068617310
 Root    641 :    61.769178464797850
 Root    642 :    61.896434655304130
 Root    643 :    62.043197377040680
 Root    644 :    62.045188752426810
 Root    645 :    62.112971075950610
 Root    646 :    62.161939588557160
 Root    647 :    62.406194352414660
 Root    648 :    62.570591191549600
 Root    649 :    62.630998897410560
 Root    650 :    62.657018791864590
 Root    651 :    62.749426759906020
 Root    652 :    63.014830322044960
 Root    653 :    63.199481255605100
 Root    654 :    63.246262303309420
 Root    655 :    63.246759212602970
 Root    656 :    63.653949816676710
 Root    657 :    63.736217198122110
 Root    658 :    63.787345016112570
 Root    659 :    63.830430008898470
 Root    660 :    63.909945442241930
 Root    661 :    64.023085270523740
 Root    662 :    64.116250473695120
 Root    663 :    64.218033091063030
 Root    664 :    64.231873430569210
 Root    665 :    64.398451251403370
 Root    666 :    64.452362682352590
 Root    667 :    64.579765360518460
 Root    668 :    64.672800849195280
 Root    669 :    64.802401572040920
 Root    670 :    65.107846854884980
 Root    671 :    65.182676108046180
 Root    672 :    65.362050997511900
 Root    673 :    65.564469905434140
 Root    674 :    65.610130155740730
 Root    675 :    65.710507359794160
 Root    676 :    65.855772711311530
 Root    677 :    65.942138580390250
 Root    678 :    66.175034333391390
 Root    679 :    66.242575194830340
 Root    680 :    66.288865705914690
 Root    681 :    66.481347084503010
 Root    682 :    66.719672787333760
 Root    683 :    66.922246150812240
 Root    684 :    67.006425188753670
 Root    685 :    67.089604049710470
 Root    686 :    67.252510054489330
 Root    687 :    67.306704190153500
 Root    688 :    67.434878408090300
 Root    689 :    67.676074537397940
 Root    690 :    67.866096005717840
 Root    691 :    67.958865797428440
 Root    692 :    68.208289524369310
[...]
     14  -0.297110D+00  0.000000D+00  0.000000D+00  0.434155D+00  0.000000D+00
     15   0.000000D+00 -0.982814D-01 -0.124645D+00  0.000000D+00 -0.809717D+00
     16   0.000000D+00  0.884518D-01 -0.158519D-02  0.000000D+00  0.165813D+00
               796           797           798           799           800 
      1  -0.114576D+03 -0.114572D+03 -0.114551D+03 -0.114545D+03 -0.114535D+03
      2  -0.521028D-01  0.754861D-02  0.160818D-01 -0.109864D+00  0.000000D+00
      3  -0.869883D-02 -0.243320D-01  0.866709D-02 -0.100320D-02  0.000000D+00
      4   0.000000D+00  0.000000D+00  0.000000D+00  0.000000D+00  0.721717D-02
      5   0.133271D+00  0.179158D-02 -0.552471D-01  0.317681D+00  0.000000D+00
      6   0.238577D-01  0.590539D-01 -0.243319D-01  0.296773D-01  0.000000D+00
      7   0.000000D+00  0.000000D+00  0.000000D+00  0.000000D+00 -0.172091D-01
      8   0.000000D+00  0.000000D+00  0.000000D+00  0.000000D+00  0.202552D-01
      9   0.000000D+00  0.000000D+00  0.000000D+00  0.000000D+00  0.142447D+00
     10   0.528055D-01 -0.415789D+00  0.174412D-01 -0.221253D+00  0.000000D+00
     11   0.497313D+00  0.317196D+00  0.291997D+00 -0.168368D+00  0.000000D+00
     12   0.116190D+00 -0.301975D+00 -0.112874D+00 -0.185804D+00  0.000000D+00
     13  -0.275206D-01 -0.112579D+00  0.165805D+00  0.755723D-01  0.000000D+00
     14   0.155160D+00 -0.402409D+00  0.191252D-01 -0.260192D+00  0.000000D+00
     15   0.000000D+00  0.000000D+00  0.000000D+00  0.000000D+00 -0.536525D-01
     16   0.000000D+00  0.000000D+00  0.000000D+00  0.000000D+00  0.120062D+00
               801           802           803           804           805 
      1  -0.114531D+03 -0.114523D+03 -0.114522D+03 -0.114508D+03 -0.114504D+03
      2   0.000000D+00  0.000000D+00  0.644251D-02  0.426711D-01  0.438324D-02
      3   0.000000D+00  0.000000D+00  0.121384D+00  0.413195D-01  0.584865D-01
      4   0.221870D-01 -0.399623D-02  0.000000D+00  0.000000D+00  0.000000D+00
      5   0.000000D+00  0.000000D+00 -0.309823D-01 -0.122095D+00 -0.862628D-02
      6   0.000000D+00  0.000000D+00 -0.326861D+00 -0.117181D+00 -0.146239D+00
      7  -0.477225D-01  0.124073D-01  0.000000D+00  0.000000D+00  0.000000D+00
      8   0.148888D+00  0.768376D-01  0.000000D+00  0.000000D+00  0.000000D+00
      9  -0.232201D+00 -0.270951D+00  0.000000D+00  0.000000D+00  0.000000D+00
     10   0.000000D+00  0.000000D+00  0.458951D-01 -0.283878D+00 -0.203430D+00
     11   0.000000D+00  0.000000D+00 -0.156879D+00 -0.499149D+00  0.146908D+00
     12   0.000000D+00  0.000000D+00  0.447059D-01 -0.114105D+00 -0.134618D+00
     13   0.000000D+00  0.000000D+00 -0.180554D-01 -0.504687D-01 -0.526226D-01
     14   0.000000D+00  0.000000D+00  0.208749D-01 -0.261788D+00 -0.183538D+00
     15   0.353330D+00  0.347742D+00  0.000000D+00  0.000000D+00  0.000000D+00
     16   0.311170D+00  0.872274D-02  0.000000D+00  0.000000D+00  0.000000D+00
               806           807           808           809           810 
      1  -0.114491D+03 -0.114469D+03 -0.114462D+03 -0.114456D+03 -0.114450D+03
      2   0.214652D-01 -0.237573D-02  0.000000D+00 -0.315375D-01  0.442067D-01
      3  -0.253786D-01  0.267126D-02  0.000000D+00 -0.142884D+00  0.526049D-02
      4   0.000000D+00  0.000000D+00 -0.654609D-01  0.000000D+00  0.000000D+00
      5  -0.603799D-01  0.110361D-01  0.000000D+00  0.923535D-01 -0.144067D+00
      6   0.823697D-01  0.487096D-02  0.000000D+00  0.394443D+00 -0.164291D-01
      7   0.000000D+00  0.000000D+00  0.172548D+00  0.000000D+00  0.000000D+00
      8   0.000000D+00  0.000000D+00 -0.696691D-01  0.000000D+00  0.000000D+00
      9   0.000000D+00  0.000000D+00  0.389511D+00  0.000000D+00  0.000000D+00
     10   0.123030D+00  0.103254D+00  0.000000D+00  0.543130D-01 -0.248020D+00
     11   0.121927D+00 -0.616677D+00  0.000000D+00 -0.510101D+00  0.669539D+00
     12   0.212654D+00  0.938141D-02  0.000000D+00 -0.608990D-01 -0.402051D-01
     13  -0.706955D-02 -0.108220D+00  0.000000D+00  0.684866D-01  0.718583D-01
     14   0.129990D-01 -0.127252D+00  0.000000D+00  0.791632D-02  0.856701D-01
     15   0.000000D+00  0.000000D+00 -0.390817D+00  0.000000D+00  0.000000D+00
     16   0.000000D+00  0.000000D+00 -0.199355D+00  0.000000D+00  0.000000D+00
               811           812           813           814           815 
      1  -0.114445D+03 -0.114442D+03 -0.114425D+03 -0.114424D+03 -0.114413D+03
      2  -0.269264D-01 -0.653407D-01  0.000000D+00 -0.239320D-01  0.439334D-01
      3   0.428860D-01  0.417296D-01  0.000000D+00  0.729588D-02 -0.399181D-01
      4   0.000000D+00  0.000000D+00 -0.135069D-01  0.000000D+00  0.000000D+00
      5   0.646556D-01  0.177811D+00  0.000000D+00  0.656404D-01 -0.112593D+00
      6  -0.122193D+00 -0.107904D+00  0.000000D+00 -0.236921D-01  0.101586D+00
      7   0.000000D+00  0.000000D+00  0.519615D-01  0.000000D+00  0.000000D+00
      8   0.000000D+00  0.000000D+00  0.280603D-01  0.000000D+00  0.000000D+00
      9   0.000000D+00  0.000000D+00  0.414031D+00  0.000000D+00  0.000000D+00
     10  -0.641821D-01 -0.214258D+00  0.000000D+00 -0.249856D-02 -0.135606D+00
     11   0.121407D+00  0.649916D+00  0.000000D+00  0.244785D-01 -0.664008D-01
     12  -0.264964D+00 -0.169535D+00  0.000000D+00  0.108954D+00 -0.147890D+00
     13  -0.568983D-01  0.580591D-01  0.000000D+00 -0.119387D+00 -0.980724D-01
     14  -0.101585D+00 -0.278722D-01  0.000000D+00  0.104611D+00 -0.348358D+00
     15   0.000000D+00  0.000000D+00 -0.420809D+00  0.000000D+00  0.000000D+00
     16   0.000000D+00  0.000000D+00  0.421071D-01  0.000000D+00  0.000000D+00
               816           817           818           819           820 
      1  -0.114403D+03 -0.114401D+03 -0.114391D+03 -0.114388D+03 -0.114381D+03
      2  -0.509264D-01  0.000000D+00  0.000000D+00  0.000000D+00  0.240282D-01
      3   0.569908D-01  0.000000D+00  0.000000D+00  0.000000D+00  0.198508D-01
      4   0.000000D+00 -0.342509D-01 -0.352687D-01 -0.313044D-01  0.000000D+00
      5   0.144606D+00  0.000000D+00  0.000000D+00  0.000000D+00 -0.705063D-01
      6  -0.144705D+00  0.000000D+00  0.000000D+00  0.000000D+00 -0.555869D-01
      7   0.000000D+00  0.853114D-01  0.101118D+00  0.970767D-01  0.000000D+00
      8   0.000000D+00  0.872662D-01 -0.723314D-01 -0.264059D-01  0.000000D+00
      9   0.000000D+00 -0.299990D-01  0.179766D+00  0.665456D-01  0.000000D+00
     10  -0.962049D-01  0.000000D+00  0.000000D+00  0.000000D+00  0.139230D+00
     11  -0.399026D+00  0.000000D+00  0.000000D+00  0.000000D+00 -0.649625D+00
     12  -0.216696D+00  0.000000D+00  0.000000D+00  0.000000D+00  0.481871D-01
     13  -0.114325D+00  0.000000D+00  0.000000D+00  0.000000D+00  0.890272D-01
     14  -0.994915D-01  0.000000D+00  0.000000D+00  0.000000D+00 -0.279473D-01
     15   0.000000D+00  0.364456D-01 -0.104986D+00 -0.132466D+00  0.000000D+00
     16   0.000000D+00  0.224632D+00  0.789127D-01  0.162095D+00  0.000000D+00
               821           822           823           824           825 
      1  -0.114379D+03 -0.114363D+03 -0.114351D+03 -0.114349D+03 -0.114342D+03
      2   0.000000D+00 -0.357961D-01  0.000000D+00  0.209352D-01 -0.914909D-01
      3   0.000000D+00 -0.958538D-02  0.000000D+00 -0.276673D-01  0.322888D-01
      4  -0.105686D+00  0.000000D+00 -0.282709D-01  0.000000D+00  0.000000D+00
      5   0.000000D+00  0.964857D-01  0.000000D+00 -0.651964D-01  0.258388D+00
      6   0.000000D+00  0.216062D-01  0.000000D+00  0.658634D-01 -0.955247D-01
      7   0.306513D+00  0.000000D+00  0.860223D-01  0.000000D+00  0.000000D+00
      8  -0.294058D+00  0.000000D+00 -0.703412D-01  0.000000D+00  0.000000D+00
      9   0.664997D+00  0.000000D+00 -0.575833D-01  0.000000D+00  0.000000D+00
     10   0.000000D+00  0.186477D+00  0.000000D+00  0.229256D+00  0.452171D+00
     11   0.000000D+00  0.792109D+00  0.000000D+00  0.174362D+00 -0.118228D+01
     12   0.000000D+00  0.396909D+00  0.000000D+00  0.208441D+00  0.892275D-01
     13   0.000000D+00 -0.550887D-01  0.000000D+00 -0.135111D+00 -0.764314D-01
     14   0.000000D+00  0.282889D+00  0.000000D+00  0.190444D+00 -0.101338D+00
     15  -0.729370D+00  0.000000D+00  0.855834D-01  0.000000D+00  0.000000D+00
     16  -0.384295D+00  0.000000D+00  0.705326D-01  0.000000D+00  0.000000D+00
               826           827           828           829           830 
      1  -0.114340D+03 -0.114326D+03 -0.114317D+03 -0.114305D+03 -0.114289D+03
      2  -0.305582D-01  0.132406D-01  0.512802D-01  0.000000D+00  0.000000D+00
      3   0.819405D-01 -0.363881D-01  0.543600D-01  0.000000D+00  0.000000D+00
      4   0.000000D+00  0.000000D+00  0.000000D+00  0.215997D-01  0.746721D-02
      5   0.854212D-01 -0.387405D-01 -0.155420D+00  0.000000D+00  0.000000D+00
      6  -0.246103D+00  0.103270D+00 -0.161980D+00  0.000000D+00  0.000000D+00
      7   0.000000D+00  0.000000D+00  0.000000D+00 -0.563131D-01 -0.280733D-01
      8   0.000000D+00  0.000000D+00  0.000000D+00  0.294778D-03  0.348646D-01
      9   0.000000D+00  0.000000D+00  0.000000D+00 -0.687825D-01 -0.649099D-01
     10   0.383626D+00 -0.920679D-02  0.133565D+00  0.000000D+00  0.000000D+00
     11  -0.468773D-01  0.887271D-01  0.413581D+00  0.000000D+00  0.000000D+00
     12   0.400989D+00  0.925041D-01  0.119820D+00  0.000000D+00  0.000000D+00
     13   0.553696D-01 -0.812815D-01 -0.660552D-02  0.000000D+00  0.000000D+00
     14   0.411211D+00  0.379630D+00  0.452082D+00  0.000000D+00  0.000000D+00
     15   0.000000D+00  0.000000D+00  0.000000D+00  0.558967D-01  0.830369D-01
     16   0.000000D+00  0.000000D+00  0.000000D+00  0.240226D-01  0.115630D+00
               831           832           833           834           835 
      1  -0.114284D+03 -0.114283D+03 -0.114266D+03 -0.114252D+03 -0.114241D+03
      2   0.000000D+00 -0.374648D-01 -0.156845D-01  0.359928D-01  0.370049D-01
      3   0.000000D+00 -0.421955D-01  0.161865D-01  0.939743D-02  0.734742D-01
      4   0.557666D-01  0.000000D+00  0.000000D+00  0.000000D+00  0.000000D+00
      5   0.000000D+00  0.118919D+00  0.412492D-01 -0.978698D-01 -0.969324D-01
      6   0.000000D+00  0.126383D+00 -0.592263D-01 -0.715964D-02 -0.220161D+00
      7  -0.156741D+00  0.000000D+00  0.000000D+00  0.000000D+00  0.000000D+00
      8   0.228007D+00  0.000000D+00  0.000000D+00  0.000000D+00  0.000000D+00
      9  -0.427494D+00  0.000000D+00  0.000000D+00  0.000000D+00  0.000000D+00
     10   0.000000D+00  0.368760D+00 -0.626623D+00  0.803059D-01  0.101996D+00
     11   0.000000D+00 -0.458123D+00 -0.510169D-01 -0.576002D+00  0.299704D+00
     12   0.000000D+00  0.268810D+00 -0.469825D+00  0.576805D-01  0.137210D+00
     13   0.000000D+00  0.189393D+00  0.134185D+00  0.236026D-01 -0.598177D-01
     14   0.000000D+00  0.423826D+00 -0.431903D+00  0.114379D+00  0.297487D+00
     15   0.363587D+00  0.000000D+00  0.000000D+00  0.000000D+00  0.000000D+00
     16   0.137398D+00  0.000000D+00  0.000000D+00  0.000000D+00  0.000000D+00
               836           837           838           839           840 
      1  -0.114226D+03 -0.114222D+03 -0.114202D+03 -0.114189D+03 -0.114173D+03
      2   0.000000D+00 -0.339370D-01 -0.122551D-02 -0.801010D-02  0.326599D-01
      3   0.000000D+00 -0.199084D-02  0.469361D-01 -0.106023D-01  0.457624D-01
      4   0.793715D-02  0.000000D+00  0.000000D+00  0.000000D+00  0.000000D+00
      5   0.000000D+00  0.117614D+00 -0.100366D-01  0.196080D-01 -0.106225D+00
      6   0.000000D+00 -0.776071D-03 -0.140555D+00  0.217183D-01 -0.150167D+00
      7  -0.303736D-01  0.000000D+00  0.000000D+00  0.000000D+00  0.000000D+00
      8   0.533628D-01  0.000000D+00  0.000000D+00  0.000000D+00  0.000000D+00
      9  -0.557266D-01  0.000000D+00  0.000000D+00  0.000000D+00  0.000000D+00
     10   0.000000D+00  0.760296D-01 -0.177133D+00 -0.123739D+00 -0.112654D+00
     11   0.000000D+00  0.218949D+00 -0.874435D+00  0.982147D-01 -0.358762D+00
     12   0.000000D+00  0.193826D+00 -0.351257D+00 -0.328446D+00  0.127092D+00
     13   0.000000D+00  0.465279D-01  0.500690D-01 -0.107421D-01 -0.181358D-01
     14   0.000000D+00  0.552742D-01 -0.545129D+00  0.107446D+00 -0.342723D+00
     15   0.101975D+00  0.000000D+00  0.000000D+00  0.000000D+00  0.000000D+00
     16   0.485382D-01  0.000000D+00  0.000000D+00  0.000000D+00  0.000000D+00
               841           842           843           844           845 
      1  -0.114163D+03 -0.114158D+03 -0.114149D+03 -0.114148D+03 -0.114130D+03
      2   0.000000D+00  0.000000D+00 -0.199213D-01  0.000000D+00  0.175054D-01
      3   0.000000D+00  0.000000D+00  0.179783D-01  0.000000D+00  0.143240D-01
      4   0.301874D-02  0.623774D-02  0.000000D+00  0.386222D-01  0.000000D+00
      5   0.000000D+00  0.000000D+00  0.576992D-01  0.000000D+00 -0.504221D-01
      6   0.000000D+00  0.000000D+00 -0.500027D-01  0.000000D+00 -0.392812D-01
      7  -0.990505D-02 -0.199248D-01  0.000000D+00 -0.109877D+00  0.000000D+00
      8  -0.235835D-01 -0.390679D-02  0.000000D+00  0.117802D+00  0.000000D+00
      9  -0.439793D-01 -0.805879D-01  0.000000D+00 -0.267934D+00  0.000000D+00
     10   0.000000D+00  0.000000D+00  0.278462D+00  0.000000D+00  0.315841D+00
     11   0.000000D+00  0.000000D+00 -0.282484D+00  0.000000D+00 -0.293148D+00
     12   0.000000D+00  0.000000D+00  0.248900D-01  0.000000D+00  0.423388D-01
     13   0.000000D+00  0.000000D+00  0.260665D+00  0.000000D+00  0.434060D-01
     14   0.000000D+00  0.000000D+00  0.157361D+00  0.000000D+00  0.308501D+00
     15   0.223611D-01 -0.165055D-01  0.000000D+00  0.197128D+00  0.000000D+00
     16  -0.788653D-01 -0.584549D-01  0.000000D+00  0.104705D+00  0.000000D+00
               846           847           848           849           850 
      1  -0.114120D+03 -0.114109D+03 -0.114096D+03 -0.114053D+03 -0.114049D+03
      2  -0.208321D-01 -0.810348D-02 -0.646824D-01 -0.124332D-01  0.000000D+00
      3  -0.157765D-01 -0.354128D-02 -0.719141D-01  0.302728D-01  0.000000D+00
      4   0.000000D+00  0.000000D+00  0.000000D+00  0.000000D+00 -0.851996D-01
      5   0.757612D-01  0.136863D-01  0.173469D+00  0.386987D-01  0.000000D+00
      6   0.467616D-01  0.104910D-01  0.198398D+00 -0.854383D-01  0.000000D+00
      7   0.000000D+00  0.000000D+00  0.000000D+00  0.000000D+00  0.249951D+00
      8   0.000000D+00  0.000000D+00  0.000000D+00  0.000000D+00 -0.227460D+00
      9   0.000000D+00  0.000000D+00  0.000000D+00  0.000000D+00  0.502798D+00
     10  -0.233096D+00  0.147835D+00  0.321088D+00  0.673876D-02  0.000000D+00
     11  -0.243789D-01 -0.114914D+00 -0.147148D+00  0.111294D+00  0.000000D+00
     12   0.394073D-01 -0.186503D-01  0.257691D+00  0.156285D+00  0.000000D+00
     13   0.475875D-01  0.384675D-01  0.683107D-01  0.844448D-01  0.000000D+00
     14  -0.365439D+00  0.282868D-01  0.303982D+00  0.322576D-01  0.000000D+00
     15   0.000000D+00  0.000000D+00  0.000000D+00  0.000000D+00 -0.339198D+00
     16   0.000000D+00  0.000000D+00  0.000000D+00  0.000000D+00 -0.282888D+00
               851           852           853           854           855 
      1  -0.114048D+03 -0.114030D+03 -0.114015D+03 -0.113992D+03 -0.113970D+03
      2   0.273208D-01  0.268275D-01  0.184127D-01  0.316683D-01  0.734945D-01
      3  -0.592291D-01 -0.390003D-01 -0.636238D-02 -0.226943D-01 -0.130788D-01
      4   0.000000D+00  0.000000D+00  0.000000D+00  0.000000D+00  0.000000D+00
      5  -0.777652D-01 -0.773187D-01 -0.717657D-01 -0.928947D-01 -0.261968D+00
      6   0.168171D+00  0.112670D+00  0.220991D-01  0.690338D-01  0.412541D-01
      7   0.000000D+00  0.000000D+00  0.000000D+00  0.000000D+00  0.000000D+00
      8   0.000000D+00  0.000000D+00  0.000000D+00  0.000000D+00  0.000000D+00
      9   0.000000D+00  0.000000D+00  0.000000D+00  0.000000D+00  0.000000D+00
     10  -0.626631D-01  0.700828D-01 -0.615791D+00 -0.541254D+00  0.393258D+00
     11   0.810844D+00 -0.333926D+00 -0.339693D+00  0.388899D+00 -0.147116D+00
     12   0.122324D+00 -0.731094D-01  0.135227D+00 -0.196534D+00 -0.683866D-01
     13   0.510384D-01  0.292954D-01 -0.525372D-04 -0.536990D-01 -0.704929D-01
     14  -0.742290D-01  0.279261D-01 -0.683721D+00 -0.231009D+00  0.263915D+00
     15   0.000000D+00  0.000000D+00  0.000000D+00  0.000000D+00  0.000000D+00
     16   0.000000D+00  0.000000D+00  0.000000D+00  0.000000D+00  0.000000D+00
               856           857           858           859           860 
      1  -0.113946D+03 -0.113925D+03 -0.113919D+03 -0.113919D+03 -0.113870D+03
      2   0.000000D+00  0.664136D-01  0.549536D-02  0.000000D+00  0.902923D-02
      3   0.000000D+00 -0.624105D-01  0.428420D-01  0.000000D+00 -0.162385D-01
      4   0.647224D-02  0.000000D+00  0.000000D+00 -0.353433D-01  0.000000D+00
      5   0.000000D+00 -0.203985D+00 -0.262523D-01  0.000000D+00 -0.222413D-01
      6   0.000000D+00  0.184782D+00 -0.127105D+00  0.000000D+00  0.533992D-01
      7  -0.164708D-01  0.000000D+00  0.000000D+00  0.103532D+00  0.000000D+00
      8  -0.483922D-02  0.000000D+00  0.000000D+00 -0.115516D+00  0.000000D+00
      9  -0.339157D-01  0.000000D+00  0.000000D+00  0.245527D+00  0.000000D+00
     10   0.000000D+00  0.479488D-01  0.281509D-01  0.000000D+00 -0.104978D+00
     11   0.000000D+00 -0.528958D+00 -0.472184D+00  0.000000D+00  0.572703D+00
     12   0.000000D+00  0.168448D+00  0.247935D+00  0.000000D+00  0.697403D-01
     13   0.000000D+00 -0.756744D-01  0.419715D-01  0.000000D+00 -0.960797D-03
     14   0.000000D+00 -0.102356D+00 -0.189926D+00  0.000000D+00  0.838913D-02
     15  -0.215773D-01  0.000000D+00  0.000000D+00 -0.172165D+00  0.000000D+00
     16   0.577937D-01  0.000000D+00  0.000000D+00 -0.123664D+00  0.000000D+00
               861           862           863           864 
      1  -0.113841D+03 -0.113807D+03 -0.113702D+03 -0.113605D+03
      2  -0.135387D-02 -0.386174D-01  0.120117D-01 -0.854798D-02
      3  -0.189350D-01  0.167453D-01  0.291556D-01  0.148698D-01
      4   0.000000D+00  0.000000D+00  0.000000D+00  0.000000D+00
      5   0.733109D-02  0.107225D+00 -0.273008D-01  0.400300D-01
      6   0.845109D-01 -0.574455D-01 -0.834984D-01 -0.330713D-01
      7   0.000000D+00  0.000000D+00  0.000000D+00  0.000000D+00
      8   0.000000D+00  0.000000D+00  0.000000D+00  0.000000D+00
      9   0.000000D+00  0.000000D+00  0.000000D+00  0.000000D+00
     10  -0.579319D-03 -0.319327D+00 -0.216440D+00  0.213027D+00
     11  -0.276647D+00  0.405872D+00 -0.665011D-01  0.279995D+00
     12   0.786668D-02 -0.247931D+00  0.189963D+00  0.346611D-01
     13   0.741865D-02 -0.242719D-01 -0.232096D-01 -0.307302D-01
     14  -0.538617D-01 -0.177881D+00 -0.156548D+00  0.381537D+00
     15   0.000000D+00  0.000000D+00  0.000000D+00  0.000000D+00
     16   0.000000D+00  0.000000D+00  0.000000D+00  0.000000D+00
 Unable to Open any file for archive entry.
 1\1\GINC-HEL24\SP\RCAM-B3LYP TD-FC\Gen\C3H6\SABYASACHI\21-Mar-2022\0\\
 #P TD(Nstates=10000) cam-b3lyp/Gen SCF(maxcycles=100) Int(Grid=ultrafi
 ne)\\xGDB7_00001_tier4.com\\0,1\C,0,-1.131573,-0.504386,0.\C,0,0.,0.47
 2223,0.\C,0,1.284136,0.150792,0.\H,0,-1.767446,-0.362775,0.877699\H,0,
 -0.770123,-1.533458,0.\H,0,-1.767446,-0.362775,-0.877699\H,0,-0.276551
 ,1.523465,0.\H,0,1.608435,-0.884556,0.\H,0,2.057749,0.908326,0.\\Versi
 on=EM64L-G16RevC.01\State=1-A'\HF=-117.7490315\RMSD=8.414e-09\PG=CS [S
 G(C3H4),X(H2)]\\@
 The archive entry for this job was punched.


 IT WAS AN ACT OF DESPARATION. FOR SIX YEARS I HAD STRUGGLED WITH THE
 BLACKBODY THEORY. I KNEW THE PROBLEM WAS FUNDAMENTAL, AND I KNEW
 THE ANSWER. I HAD TO FIND A THEORETICAL EXPLANATION AT ANY COST,
 EXCEPT FOR THE INVIOLABLITY OF THE TWO LAWS OF THERMODYNAMICS.
   -- MAX PLANCK, 1931
 Job cpu time:       0 days  0 hours 10 minutes 38.4 seconds.
 Elapsed time:       0 days  0 hours  1 minutes 20.1 seconds.
 File lengths (MBytes):  RWF=    968 Int=      0 D2E=      0 Chk=    240 Scr=      1
 Normal termination of Gaussian 16 at Mon Mar 21 20:19:47 2022.
