 Entering Gaussian System, Link 0=g16
 Input=000006.com
 Output=000006.log
 Initial command:
 /home/sabyasachi/g16/l1.exe "/scratch/sabyasachi/PBS_7976272.helios/Gau-157937.inp" -scrdir="/scratch/sabyasachi/PBS_7976272.helios/"
 Entering Link 1 = /home/sabyasachi/g16/l1.exe PID=    157938.
  
 Copyright (c) 1988-2019, Gaussian, Inc.  All Rights Reserved.
  
 This is part of the Gaussian(R) 16 program.  It is based on
 the Gaussian(R) 09 system (copyright 2009, Gaussian, Inc.),
 the Gaussian(R) 03 system (copyright 2003, Gaussian, Inc.),
 the Gaussian(R) 98 system (copyright 1998, Gaussian, Inc.),
 the Gaussian(R) 94 system (copyright 1995, Gaussian, Inc.),
 the Gaussian 92(TM) system (copyright 1992, Gaussian, Inc.),
 the Gaussian 90(TM) system (copyright 1990, Gaussian, Inc.),
 the Gaussian 88(TM) system (copyright 1988, Gaussian, Inc.),
 the Gaussian 86(TM) system (copyright 1986, Carnegie Mellon
 University), and the Gaussian 82(TM) system (copyright 1983,
 Carnegie Mellon University). Gaussian is a federally registered
 trademark of Gaussian, Inc.
  
 This software contains proprietary and confidential information,
 including trade secrets, belonging to Gaussian, Inc.
  
 This software is provided under written license and may be
 used, copied, transmitted, or stored only in accord with that
 written license.
  
 The following legend is applicable only to US Government
 contracts under FAR:
  
                    RESTRICTED RIGHTS LEGEND
  
 Use, reproduction and disclosure by the US Government is
 subject to restrictions as set forth in subparagraphs (a)
 and (c) of the Commercial Computer Software - Restricted
 Rights clause in FAR 52.227-19.
  
 Gaussian, Inc.
 340 Quinnipiac St., Bldg. 40, Wallingford CT 06492
  
  
 ---------------------------------------------------------------
 Warning -- This program may not be used in any manner that
 competes with the business of Gaussian, Inc. or will provide
 assistance to any competitor of Gaussian, Inc.  The licensee
 of this program is prohibited from giving any competitor of
 Gaussian, Inc. access to this program.  By using this program,
 the user acknowledges that Gaussian, Inc. is engaged in the
 business of creating and licensing software in the field of
 computational chemistry and represents and warrants to the
 licensee that it is not a competitor of Gaussian, Inc. and that
 it will not use this program in any manner prohibited above.
 ---------------------------------------------------------------
  

 Cite this work as:
 Gaussian 16, Revision C.01,
 M. J. Frisch, G. W. Trucks, H. B. Schlegel, G. E. Scuseria, 
 M. A. Robb, J. R. Cheeseman, G. Scalmani, V. Barone, 
 G. A. Petersson, H. Nakatsuji, X. Li, M. Caricato, A. V. Marenich, 
 J. Bloino, B. G. Janesko, R. Gomperts, B. Mennucci, H. P. Hratchian, 
 J. V. Ortiz, A. F. Izmaylov, J. L. Sonnenberg, D. Williams-Young, 
 F. Ding, F. Lipparini, F. Egidi, J. Goings, B. Peng, A. Petrone, 
 T. Henderson, D. Ranasinghe, V. G. Zakrzewski, J. Gao, N. Rega, 
 G. Zheng, W. Liang, M. Hada, M. Ehara, K. Toyota, R. Fukuda, 
 J. Hasegawa, M. Ishida, T. Nakajima, Y. Honda, O. Kitao, H. Nakai, 
 T. Vreven, K. Throssell, J. A. Montgomery, Jr., J. E. Peralta, 
 F. Ogliaro, M. J. Bearpark, J. J. Heyd, E. N. Brothers, K. N. Kudin, 
 V. N. Staroverov, T. A. Keith, R. Kobayashi, J. Normand, 
 K. Raghavachari, A. P. Rendell, J. C. Burant, S. S. Iyengar, 
 J. Tomasi, M. Cossi, J. M. Millam, M. Klene, C. Adamo, R. Cammi, 
 J. W. Ochterski, R. L. Martin, K. Morokuma, O. Farkas, 
 J. B. Foresman, and D. J. Fox, Gaussian, Inc., Wallingford CT, 2019.
 
 ******************************************
 Gaussian 16:  EM64L-G16RevC.01  3-Jul-2019
                21-Mar-2022 
 ******************************************
 %mem=64gb
 %nproc=8
 Will use up to    8 processors via shared memory.
 ----------------------------------------------------------------------
 #P TD(Nstates=10000) cam-b3lyp/Gen SCF(maxcycles=100) Int(Grid=ultrafi
 ne)
 ----------------------------------------------------------------------
 1/38=1,172=1/1;
 2/12=2,17=6,18=5,40=1/2;
 3/5=7,11=9,25=1,30=1,74=-40,75=-5/1,2,3,8;
 4//1;
 5/5=2,7=100,38=5/2;
 8/6=1,10=1,108=10000/1;
 9/41=10000,42=1,70=2/14;
 6/7=2,8=2,9=2,10=2/1;
 99/5=1,9=1/99;
 Leave Link    1 at Mon Mar 21 20:21:08 2022, MaxMem=  8589934592 cpu:               0.4 elap:               0.1
 (Enter /home/sabyasachi/g16/l101.exe)
 ---------------------
 xGDB7_00001_tier4.com
 ---------------------
 Symbolic Z-matrix:
 Charge =  0 Multiplicity = 1
 6                    -0.04908   0.70204   0. 
 7                    -0.04908  -0.75424   0. 
 1                     0.94611   1.1666    0. 
 1                    -0.58757   1.0626    0.87777 
 1                    -0.58757   1.0626   -0.87777 
 1                     0.43353  -1.11218   0.8125 
 1                     0.43353  -1.11218  -0.8125 
 
 ITRead=  0  0  0  0  0  0  0
 MicOpt= -1 -1 -1 -1 -1 -1 -1
 NAtoms=      7 NQM=        7 NQMF=       0 NMMI=      0 NMMIF=      0
                NMic=       0 NMicF=      0.
                    Isotopes and Nuclear Properties:
 (Nuclear quadrupole moments (NQMom) in fm**2, nuclear magnetic moments (NMagM)
  in nuclear magnetons)

  Atom         1           2           3           4           5           6           7
 IAtWgt=          12          14           1           1           1           1           1
 AtmWgt=  12.0000000  14.0030740   1.0078250   1.0078250   1.0078250   1.0078250   1.0078250
 NucSpn=           0           2           1           1           1           1           1
 AtZEff=  -0.0000000  -0.0000000  -0.0000000  -0.0000000  -0.0000000  -0.0000000  -0.0000000
 NQMom=    0.0000000   2.0440000   0.0000000   0.0000000   0.0000000   0.0000000   0.0000000
 NMagM=    0.0000000   0.4037610   2.7928460   2.7928460   2.7928460   2.7928460   2.7928460
 AtZNuc=   6.0000000   7.0000000   1.0000000   1.0000000   1.0000000   1.0000000   1.0000000
 Leave Link  101 at Mon Mar 21 20:21:08 2022, MaxMem=  8589934592 cpu:               0.6 elap:               0.1
 (Enter /home/sabyasachi/g16/l202.exe)
                          Input orientation:                          
 ---------------------------------------------------------------------
 Center     Atomic      Atomic             Coordinates (Angstroms)
 Number     Number       Type             X           Y           Z
 ---------------------------------------------------------------------
      1          6           0       -0.049078    0.702042    0.000000
      2          7           0       -0.049078   -0.754243    0.000000
      3          1           0        0.946109    1.166603    0.000000
      4          1           0       -0.587574    1.062597    0.877770
      5          1           0       -0.587574    1.062597   -0.877770
      6          1           0        0.433525   -1.112175    0.812504
      7          1           0        0.433525   -1.112175   -0.812504
 ---------------------------------------------------------------------
                    Distance matrix (angstroms):
                    1          2          3          4          5
     1  C    0.000000
     2  N    1.456285   0.000000
     3  H    1.098278   2.163342   0.000000
     4  H    1.091081   2.088388   1.770164   0.000000
     5  H    1.091081   2.088388   1.770164   1.755540   0.000000
     6  H    2.045593   1.010536   2.473001   2.403443   2.937567
     7  H    2.045593   1.010536   2.473001   2.937567   2.403443
                    6          7
     6  H    0.000000
     7  H    1.625008   0.000000
 Stoichiometry    CH5N
 Framework group  CS[SG(CHN),X(H4)]
 Deg. of freedom     9
 Full point group                 CS      NOp   2
 Largest Abelian subgroup         CS      NOp   2
 Largest concise Abelian subgroup CS      NOp   2
                         Standard orientation:                         
 ---------------------------------------------------------------------
 Center     Atomic      Atomic             Coordinates (Angstroms)
 Number     Number       Type             X           Y           Z
 ---------------------------------------------------------------------
      1          6           0       -0.049078    0.702042   -0.000000
      2          7           0       -0.049078   -0.754243    0.000000
      3          1           0        0.946109    1.166603   -0.000000
      4          1           0       -0.587574    1.062597    0.877770
      5          1           0       -0.587574    1.062597   -0.877770
      6          1           0        0.433525   -1.112175    0.812504
      7          1           0        0.433525   -1.112175   -0.812504
 ---------------------------------------------------------------------
 Rotational constants (GHZ):         104.1843361          22.9598117          22.0420045
 Leave Link  202 at Mon Mar 21 20:21:08 2022, MaxMem=  8589934592 cpu:               0.1 elap:               0.0
 (Enter /home/sabyasachi/g16/l301.exe)
 General basis read from cards:  (5D, 7F)
 Centers:       3      4      5      6      7
 S 3 1.00
     Exponent=  1.3010701000D+01 Coefficients=  1.9682158000D-02
     Exponent=  1.9622572000D+00 Coefficients=  1.3796524000D-01
     Exponent=  4.4453796000D-01 Coefficients=  4.7831935000D-01
 S 1 1.00
     Exponent=  1.2194962000D-01 Coefficients=  1.0000000000D+00
 P 1 1.00
     Exponent=  8.0000000000D-01 Coefficients=  1.0000000000D+00
 P 1 1.00
     Exponent=  1.1704099050D-01 Coefficients=  1.0000000000D+00
 ****
 Centers:       1
 S 5 1.00
     Exponent=  1.2384016938D+03 Coefficients=  5.4568832082D-03
     Exponent=  1.8629004992D+02 Coefficients=  4.0638409211D-02
     Exponent=  4.2251176346D+01 Coefficients=  1.8025593888D-01
     Exponent=  1.1676557932D+01 Coefficients=  4.6315121755D-01
     Exponent=  3.5930506482D+00 Coefficients=  4.4087173314D-01
 S 1 1.00
     Exponent=  4.0245147363D-01 Coefficients=  1.0000000000D+00
 S 1 1.00
     Exponent=  1.3090182668D-01 Coefficients=  1.0000000000D+00
 S 1 1.00
     Exponent=  6.7053540256D-02 Coefficients=  1.0000000000D+00
 P 3 1.00
     Exponent=  9.4680970621D+00 Coefficients=  3.8387871728D-02
     Exponent=  2.0103545142D+00 Coefficients=  2.1117025112D-01
     Exponent=  5.4771004707D-01 Coefficients=  5.1328172114D-01
 P 1 1.00
     Exponent=  1.5268613795D-01 Coefficients=  1.0000000000D+00
 D 1 1.00
     Exponent=  8.0000000000D-01 Coefficients=  1.0000000000D+00
 D 1 1.00
     Exponent=  1.1713185140D-01 Coefficients=  1.0000000000D+00
 ****
 Centers:       2
 S 5 1.00
     Exponent=  1.7128415853D+03 Coefficients= -5.3934125305D-03
     Exponent=  2.5764812677D+02 Coefficients= -4.0221581118D-02
     Exponent=  5.8458245853D+01 Coefficients= -1.7931144990D-01
     Exponent=  1.6198367905D+01 Coefficients= -4.6376317823D-01
     Exponent=  5.0052600809D+00 Coefficients= -4.4171422662D-01
 S 1 1.00
     Exponent=  5.8731856571D-01 Coefficients=  1.0000000000D+00
 S 1 1.00
     Exponent=  1.8764592253D-01 Coefficients=  1.0000000000D+00
 S 1 1.00
     Exponent=  9.6171241529D-02 Coefficients=  1.0000000000D+00
 P 3 1.00
     Exponent=  1.3571470233D+01 Coefficients= -4.0072398852D-02
     Exponent=  2.9257372874D+00 Coefficients= -2.1807045028D-01
     Exponent=  7.9927750754D-01 Coefficients= -5.1294466049D-01
 P 1 1.00
     Exponent=  2.1954348034D-01 Coefficients=  1.0000000000D+00
 D 1 1.00
     Exponent=  1.0000000000D+00 Coefficients=  1.0000000000D+00
 D 1 1.00
     Exponent=  1.6697708112D-01 Coefficients=  1.0000000000D+00
 ****
 Ernie: Thresh=  0.10000D-02 Tol=  0.10000D-05 Strict=F.
 There are    54 symmetry adapted cartesian basis functions of A'  symmetry.
 There are    30 symmetry adapted cartesian basis functions of A"  symmetry.
 There are    50 symmetry adapted basis functions of A'  symmetry.
 There are    30 symmetry adapted basis functions of A"  symmetry.
    80 basis functions,   114 primitive gaussians,    84 cartesian basis functions
     9 alpha electrons        9 beta electrons
       nuclear repulsion energy        42.1215507304 Hartrees.
 IExCor=20419 DFT=T Ex+Corr=CAM-B3LYP ExCW=0 ScaHFX=  1.000000
 ScaDFX=  1.000000  1.000000  1.000000  0.810000 ScalE2=  1.000000  1.000000
 IRadAn=      5 IRanWt=     -1 IRanGd=            0 ICorTp=0 IEmpDi=  4
 HFx  wShort=  0.000000 wLong=  0.330000 cFull=  0.190000 cShort=  0.000000 cLong=  0.460000
 DFx  wShort=  0.000000 wLong=  0.330000 cFull=  0.190000 cShort=  0.000000 cLong=  0.460000
 NAtoms=    7 NActive=    7 NUniq=    5 SFac= 1.96D+00 NAtFMM=   60 NAOKFM=F Big=F
 Integral buffers will be    131072 words long.
 Raffenetti 1 integral format.
 Two-electron integral symmetry is turned on.
 Leave Link  301 at Mon Mar 21 20:21:08 2022, MaxMem=  8589934592 cpu:               0.6 elap:               0.1
 (Enter /home/sabyasachi/g16/l302.exe)
 NPDir=0 NMtPBC=     1 NCelOv=     1 NCel=       1 NClECP=     1 NCelD=      1
         NCelK=      1 NCelE2=     1 NClLst=     1 CellRange=     0.0.
 One-electron integrals computed using PRISM.
 One-electron integral symmetry used in STVInt
 NBasis=    80 RedAO= T EigKep=  5.26D-04  NBF=    50    30
 NBsUse=    80 1.00D-06 EigRej= -1.00D+00 NBFU=    50    30
 Precomputing XC quadrature grid using
 IXCGrd= 4 IRadAn=           5 IRanWt=          -1 IRanGd=           0 AccXCQ= 0.00D+00.
 Generated NRdTot=       0 NPtTot=           0 NUsed=           0 NTot=          32
 NSgBfM=    84    84    84    84    84 MxSgAt=     7 MxSgA2=     7.
 Leave Link  302 at Mon Mar 21 20:21:09 2022, MaxMem=  8589934592 cpu:               1.0 elap:               0.1
 (Enter /home/sabyasachi/g16/l303.exe)
 DipDrv:  MaxL=1.
 Leave Link  303 at Mon Mar 21 20:21:09 2022, MaxMem=  8589934592 cpu:               0.2 elap:               0.0
 (Enter /home/sabyasachi/g16/l308.exe)
 Leave Link  308 at Mon Mar 21 20:21:09 2022, MaxMem=  8589934592 cpu:               0.2 elap:               0.0
 (Enter /home/sabyasachi/g16/l401.exe)
 ExpMin= 6.71D-02 ExpMax= 1.71D+03 ExpMxC= 2.58D+02 IAcc=3 IRadAn=         5 AccDes= 0.00D+00
 Harris functional with IExCor=20419 and IRadAn=       5 diagonalized for initial guess.
 HarFok:  IExCor=20419 AccDes= 0.00D+00 IRadAn=         5 IDoV= 1 UseB2=F ITyADJ=14
 ICtDFT=  3500011 ScaDFX=  1.000000  1.000000  1.000000  1.000000
 FoFCou: FMM=F IPFlag=           0 FMFlag=      100000 FMFlg1=           0
         NFxFlg=           0 DoJE=T BraDBF=F KetDBF=T FulRan=T
         wScrn=  0.000000 ICntrl=       500 IOpCl=  0 I1Cent=   200000004 NGrid=           0
         NMat0=    1 NMatS0=      1 NMatT0=    0 NMatD0=    1 NMtDS0=    0 NMtDT0=    0
 Petite list used in FoFCou.
 Harris En= -91.7347705541608    
 JPrj=0 DoOrth=F DoCkMO=F.
 Initial guess orbital symmetries:
       Occupied  (A') (A') (A') (A') (A") (A') (A') (A") (A')
       Virtual   (A') (A') (A") (A') (A") (A') (A') (A") (A') (A')
                 (A") (A') (A") (A') (A') (A') (A") (A") (A') (A")
                 (A') (A') (A") (A') (A') (A") (A') (A") (A') (A")
                 (A') (A") (A') (A') (A') (A") (A') (A') (A') (A")
                 (A') (A") (A') (A") (A') (A') (A') (A") (A") (A")
                 (A') (A") (A') (A') (A") (A') (A") (A') (A") (A')
                 (A') (A") (A') (A') (A') (A") (A') (A") (A') (A')
                 (A")
 The electronic state of the initial guess is 1-A'.
 Leave Link  401 at Mon Mar 21 20:21:09 2022, MaxMem=  8589934592 cpu:               1.8 elap:               0.2
 (Enter /home/sabyasachi/g16/l502.exe)
 Keep R1 ints in memory in symmetry-blocked form, NReq=18054812.
 FoFCou: FMM=F IPFlag=           0 FMFlag=           0 FMFlg1=           0
         NFxFlg=           0 DoJE=F BraDBF=F KetDBF=F FulRan=T
         wScrn=  0.000000 ICntrl=       600 IOpCl=  0 I1Cent=           0 NGrid=           0
         NMat0=    1 NMatS0=   3240 NMatT0=    0 NMatD0=    1 NMtDS0=    0 NMtDT0=    0
 Petite list used in FoFCou.
 Closed shell SCF:
 Using DIIS extrapolation, IDIIS=  1040.
 NGot=  8589934592 LenX=  8587270692 LenY=  8587263195
 Requested convergence on RMS density matrix=1.00D-08 within 100 cycles.
 Requested convergence on MAX density matrix=1.00D-06.
 Requested convergence on             energy=1.00D-06.
 No special actions if energy rises.
 Integral accuracy reduced to 1.0D-05 until final iterations.

 Cycle   1  Pass 0  IDiag  1:
 E= -95.7277963476263    
 DIIS: error= 2.51D-02 at cycle   1 NSaved=   1.
 NSaved= 1 IEnMin= 1 EnMin= -95.7277963476263     IErMin= 1 ErrMin= 2.51D-02
 ErrMax= 2.51D-02  0.00D+00 EMaxC= 1.00D-01 BMatC= 3.31D-02 BMatP= 3.31D-02
 IDIUse=3 WtCom= 7.49D-01 WtEn= 2.51D-01
 Coeff-Com:  0.100D+01
 Coeff-En:   0.100D+01
 Coeff:      0.100D+01
 Gap=     0.354 Goal=   None    Shift=    0.000
 GapD=    0.354 DampG=1.000 DampE=0.500 DampFc=0.5000 IDamp=-1.
 Damping current iteration by 5.00D-01
 RMSDP=3.21D-03 MaxDP=7.58D-02              OVMax= 4.69D-02

 Cycle   2  Pass 0  IDiag  1:
 E= -95.7352328553192     Delta-E=       -0.007436507693 Rises=F Damp=T
 DIIS: error= 1.42D-02 at cycle   2 NSaved=   2.
 NSaved= 2 IEnMin= 2 EnMin= -95.7352328553192     IErMin= 2 ErrMin= 1.42D-02
 ErrMax= 1.42D-02  0.00D+00 EMaxC= 1.00D-01 BMatC= 7.44D-03 BMatP= 3.31D-02
 IDIUse=3 WtCom= 8.58D-01 WtEn= 1.42D-01
 Coeff-Com: -0.644D+00 0.164D+01
 Coeff-En:   0.000D+00 0.100D+01
 Coeff:     -0.553D+00 0.155D+01
 Gap=     0.363 Goal=   None    Shift=    0.000
 RMSDP=2.41D-03 MaxDP=8.41D-02 DE=-7.44D-03 OVMax= 2.43D-02

 Cycle   3  Pass 0  IDiag  1:
 E= -95.7416229818211     Delta-E=       -0.006390126502 Rises=F Damp=F
 DIIS: error= 2.83D-03 at cycle   3 NSaved=   3.
 NSaved= 3 IEnMin= 3 EnMin= -95.7416229818211     IErMin= 3 ErrMin= 2.83D-03
 ErrMax= 2.83D-03  0.00D+00 EMaxC= 1.00D-01 BMatC= 8.53D-04 BMatP= 7.44D-03
 IDIUse=3 WtCom= 9.72D-01 WtEn= 2.83D-02
 Coeff-Com: -0.304D+00 0.615D+00 0.689D+00
 Coeff-En:   0.000D+00 0.000D+00 0.100D+01
 Coeff:     -0.296D+00 0.598D+00 0.698D+00
 Gap=     0.360 Goal=   None    Shift=    0.000
 RMSDP=5.04D-04 MaxDP=1.43D-02 DE=-6.39D-03 OVMax= 8.38D-03

 Cycle   4  Pass 0  IDiag  1:
 E= -95.7424542250335     Delta-E=       -0.000831243212 Rises=F Damp=F
 DIIS: error= 2.31D-04 at cycle   4 NSaved=   4.
 NSaved= 4 IEnMin= 4 EnMin= -95.7424542250335     IErMin= 4 ErrMin= 2.31D-04
 ErrMax= 2.31D-04  0.00D+00 EMaxC= 1.00D-01 BMatC= 7.54D-06 BMatP= 8.53D-04
 IDIUse=3 WtCom= 9.98D-01 WtEn= 2.31D-03
 Coeff-Com: -0.519D-01 0.101D+00 0.162D+00 0.789D+00
 Coeff-En:   0.000D+00 0.000D+00 0.000D+00 0.100D+01
 Coeff:     -0.518D-01 0.101D+00 0.161D+00 0.790D+00
 Gap=     0.360 Goal=   None    Shift=    0.000
 RMSDP=7.51D-05 MaxDP=2.89D-03 DE=-8.31D-04 OVMax= 7.46D-04

 Cycle   5  Pass 0  IDiag  1:
 E= -95.7424615591151     Delta-E=       -0.000007334082 Rises=F Damp=F
 DIIS: error= 5.08D-05 at cycle   5 NSaved=   5.
 NSaved= 5 IEnMin= 5 EnMin= -95.7424615591151     IErMin= 5 ErrMin= 5.08D-05
 ErrMax= 5.08D-05  0.00D+00 EMaxC= 1.00D-01 BMatC= 1.93D-07 BMatP= 7.54D-06
 IDIUse=1 WtCom= 1.00D+00 WtEn= 0.00D+00
 Coeff-Com:  0.117D-01-0.240D-01-0.226D-01 0.219D-01 0.101D+01
 Coeff:      0.117D-01-0.240D-01-0.226D-01 0.219D-01 0.101D+01
 Gap=     0.360 Goal=   None    Shift=    0.000
 RMSDP=7.87D-05 MaxDP=3.88D-03 DE=-7.33D-06 OVMax= 5.10D-04

 Cycle   6  Pass 0  IDiag  1:
 E= -95.7424619086964     Delta-E=       -0.000000349581 Rises=F Damp=F
 DIIS: error= 3.60D-05 at cycle   6 NSaved=   6.
 NSaved= 6 IEnMin= 6 EnMin= -95.7424619086964     IErMin= 6 ErrMin= 3.60D-05
 ErrMax= 3.60D-05  0.00D+00 EMaxC= 1.00D-01 BMatC= 1.10D-07 BMatP= 1.93D-07
 IDIUse=1 WtCom= 1.00D+00 WtEn= 0.00D+00
 Coeff-Com:  0.969D-02-0.193D-01-0.229D-01-0.479D-01 0.508D+00 0.573D+00
 Coeff:      0.969D-02-0.193D-01-0.229D-01-0.479D-01 0.508D+00 0.573D+00
 Gap=     0.360 Goal=   None    Shift=    0.000
 RMSDP=6.38D-06 MaxDP=2.20D-04 DE=-3.50D-07 OVMax= 1.18D-04

 Initial convergence to 1.0D-05 achieved.  Increase integral accuracy.
 Cycle   7  Pass 1  IDiag  1:
 E= -95.7424599013947     Delta-E=        0.000002007302 Rises=F Damp=F
 DIIS: error= 4.61D-06 at cycle   1 NSaved=   1.
 NSaved= 1 IEnMin= 1 EnMin= -95.7424599013947     IErMin= 1 ErrMin= 4.61D-06
 ErrMax= 4.61D-06  0.00D+00 EMaxC= 1.00D-01 BMatC= 2.02D-09 BMatP= 2.02D-09
 IDIUse=1 WtCom= 1.00D+00 WtEn= 0.00D+00
 Coeff-Com:  0.100D+01
 Coeff:      0.100D+01
 Gap=     0.360 Goal=   None    Shift=    0.000
 RMSDP=6.38D-06 MaxDP=2.20D-04 DE= 2.01D-06 OVMax= 5.44D-05

 Cycle   8  Pass 1  IDiag  1:
 E= -95.7424599045759     Delta-E=       -0.000000003181 Rises=F Damp=F
 DIIS: error= 3.50D-06 at cycle   2 NSaved=   2.
 NSaved= 2 IEnMin= 2 EnMin= -95.7424599045759     IErMin= 2 ErrMin= 3.50D-06
 ErrMax= 3.50D-06  0.00D+00 EMaxC= 1.00D-01 BMatC= 1.37D-09 BMatP= 2.02D-09
 IDIUse=1 WtCom= 1.00D+00 WtEn= 0.00D+00
 Coeff-Com:  0.440D+00 0.560D+00
 Coeff:      0.440D+00 0.560D+00
 Gap=     0.360 Goal=   None    Shift=    0.000
 RMSDP=6.15D-07 MaxDP=1.67D-05 DE=-3.18D-09 OVMax= 1.56D-05

 Cycle   9  Pass 1  IDiag  1:
 E= -95.7424599059018     Delta-E=       -0.000000001326 Rises=F Damp=F
 DIIS: error= 9.07D-07 at cycle   3 NSaved=   3.
 NSaved= 3 IEnMin= 3 EnMin= -95.7424599059018     IErMin= 3 ErrMin= 9.07D-07
 ErrMax= 9.07D-07  0.00D+00 EMaxC= 1.00D-01 BMatC= 8.55D-11 BMatP= 1.37D-09
 IDIUse=1 WtCom= 1.00D+00 WtEn= 0.00D+00
 Coeff-Com: -0.108D+00 0.974D-01 0.101D+01
 Coeff:     -0.108D+00 0.974D-01 0.101D+01
 Gap=     0.360 Goal=   None    Shift=    0.000
 RMSDP=1.01D-06 MaxDP=4.49D-05 DE=-1.33D-09 OVMax= 1.43D-05

 Cycle  10  Pass 1  IDiag  1:
 E= -95.7424599061265     Delta-E=       -0.000000000225 Rises=F Damp=F
 DIIS: error= 2.88D-07 at cycle   4 NSaved=   4.
 NSaved= 4 IEnMin= 4 EnMin= -95.7424599061265     IErMin= 4 ErrMin= 2.88D-07
 ErrMax= 2.88D-07  0.00D+00 EMaxC= 1.00D-01 BMatC= 6.15D-12 BMatP= 8.55D-11
 IDIUse=1 WtCom= 1.00D+00 WtEn= 0.00D+00
 Coeff-Com: -0.778D-01-0.389D-01 0.224D+00 0.893D+00
 Coeff:     -0.778D-01-0.389D-01 0.224D+00 0.893D+00
 Gap=     0.360 Goal=   None    Shift=    0.000
 RMSDP=2.66D-07 MaxDP=1.09D-05 DE=-2.25D-10 OVMax= 4.51D-06

 Cycle  11  Pass 1  IDiag  1:
 E= -95.7424599061439     Delta-E=       -0.000000000017 Rises=F Damp=F
 DIIS: error= 5.76D-08 at cycle   5 NSaved=   5.
 NSaved= 5 IEnMin= 5 EnMin= -95.7424599061439     IErMin= 5 ErrMin= 5.76D-08
 ErrMax= 5.76D-08  0.00D+00 EMaxC= 1.00D-01 BMatC= 3.44D-13 BMatP= 6.15D-12
 IDIUse=1 WtCom= 1.00D+00 WtEn= 0.00D+00
 Coeff-Com: -0.184D-01-0.133D-01 0.304D-01 0.264D+00 0.738D+00
 Coeff:     -0.184D-01-0.133D-01 0.304D-01 0.264D+00 0.738D+00
 Gap=     0.360 Goal=   None    Shift=    0.000
 RMSDP=3.82D-08 MaxDP=1.64D-06 DE=-1.73D-11 OVMax= 4.24D-07

 Cycle  12  Pass 1  IDiag  1:
 E= -95.7424599061438     Delta-E=        0.000000000000 Rises=F Damp=F
 DIIS: error= 2.09D-08 at cycle   6 NSaved=   6.
 NSaved= 6 IEnMin= 5 EnMin= -95.7424599061439     IErMin= 6 ErrMin= 2.09D-08
 ErrMax= 2.09D-08  0.00D+00 EMaxC= 1.00D-01 BMatC= 3.75D-14 BMatP= 3.44D-13
 IDIUse=1 WtCom= 1.00D+00 WtEn= 0.00D+00
 Coeff-Com:  0.848D-02 0.358D-02-0.313D-01-0.773D-01 0.179D+00 0.917D+00
 Coeff:      0.848D-02 0.358D-02-0.313D-01-0.773D-01 0.179D+00 0.917D+00
 Gap=     0.360 Goal=   None    Shift=    0.000
 RMSDP=1.80D-08 MaxDP=7.95D-07 DE= 8.53D-14 OVMax= 1.99D-07

 Cycle  13  Pass 1  IDiag  1:
 E= -95.7424599061425     Delta-E=        0.000000000001 Rises=F Damp=F
 DIIS: error= 2.66D-09 at cycle   7 NSaved=   7.
 NSaved= 7 IEnMin= 5 EnMin= -95.7424599061439     IErMin= 7 ErrMin= 2.66D-09
 ErrMax= 2.66D-09  0.00D+00 EMaxC= 1.00D-01 BMatC= 5.65D-16 BMatP= 3.75D-14
 IDIUse=1 WtCom= 1.00D+00 WtEn= 0.00D+00
 Coeff-Com:  0.751D-03 0.525D-03-0.235D-02-0.982D-02-0.251D-01 0.233D-01
 Coeff-Com:  0.101D+01
 Coeff:      0.751D-03 0.525D-03-0.235D-02-0.982D-02-0.251D-01 0.233D-01
 Coeff:      0.101D+01
 Gap=     0.360 Goal=   None    Shift=    0.000
 RMSDP=1.18D-09 MaxDP=2.18D-08 DE= 1.25D-12 OVMax= 3.63D-08

 SCF Done:  E(RCAM-B3LYP) =  -95.7424599061     A.U. after   13 cycles
            NFock= 13  Conv=0.12D-08     -V/T= 2.0115
 KE= 9.465451661460D+01 PE=-3.062194086972D+02 EE= 7.370088144604D+01
 Leave Link  502 at Mon Mar 21 20:21:10 2022, MaxMem=  8589934592 cpu:               9.8 elap:               1.3
 (Enter /home/sabyasachi/g16/l801.exe)
 DoSCS=F DFT=T ScalE2(SS,OS)=  1.000000  1.000000
 ExpMin= 6.71D-02 ExpMax= 1.71D+03 ExpMxC= 2.58D+02 IAcc=3 IRadAn=         5 AccDes= 0.00D+00
 HarFok:  IExCor=  205 AccDes= 0.00D+00 IRadAn=         5 IDoV=-2 UseB2=F ITyADJ=14
 ICtDFT= 12500011 ScaDFX=  1.000000  1.000000  1.000000  1.000000
 Largest valence mixing into a core orbital is  6.79D-05
 Largest core mixing into a valence orbital is  1.42D-05
 Range of M.O.s used for correlation:     3    80
 NBasis=    80 NAE=     9 NBE=     9 NFC=     2 NFV=     0
 NROrb=     78 NOA=     7 NOB=     7 NVA=    71 NVB=    71

 **** Warning!!: The largest alpha MO coefficient is  0.21912208D+02

 Leave Link  801 at Mon Mar 21 20:21:10 2022, MaxMem=  8589934592 cpu:               0.4 elap:               0.1
 (Enter /home/sabyasachi/g16/l914.exe)
 RHF ground state
 Keep R1, R2, and R3 ints in memory in symmetry-blocked form, NReq=316935880.
 FoFCou: FMM=F IPFlag=           0 FMFlag=           0 FMFlg1=           0
         NFxFlg=           0 DoJE=F BraDBF=F KetDBF=F FulRan=T
         wScrn=  0.000000 ICntrl=       600 IOpCl=  0 I1Cent=           0 NGrid=           0
         NMat0=    1 NMatS0=   3240 NMatT0=    0 NMatD0=    1 NMtDS0=    0 NMtDT0=    0
 Petite list used in FoFCou.
 MDV=  8589934592 DFT=T DoStab=F Mixed=T DoRPA=T DoScal=F NonHer=T
 Making orbital integer symmetry assigments:
 Orbital symmetries:
       Occupied  (A') (A') (A') (A') (A") (A') (A') (A") (A')
       Virtual   (A') (A') (A") (A') (A") (A') (A') (A") (A') (A')
                 (A") (A') (A") (A') (A') (A') (A") (A") (A") (A')
                 (A') (A") (A') (A') (A') (A") (A') (A") (A') (A")
                 (A') (A") (A') (A') (A') (A") (A') (A') (A') (A")
                 (A') (A") (A') (A") (A') (A') (A') (A") (A") (A")
                 (A') (A") (A') (A') (A") (A') (A") (A') (A") (A')
                 (A') (A") (A') (A') (A') (A") (A') (A") (A') (A')
                 (A")
   497 initial guesses have been made.
 Convergence on wavefunction:    0.001000000000000
 Davidson Disk Diagonalization:  ConvIn= 1.00D-03 SkipCon=T Conv= 1.00D-03.
 Max sub-space:  2982 roots to seek:   994 dimension of matrix:          994
 *** WARNING: Number of orthogonal guesses is          497
 Iteration     1 Dimension   497 NMult     0 NNew    497
 CISAX will form   497 AO SS matrices at one time.
 NMat=   497 NSing=   497 JSym2X=-1.
 New state     13 was old state     15
 New state     15 was old state     13
 New state     17 was old state     18
 New state     18 was old state     17
 New state     21 was old state     22
 New state     22 was old state     23
 New state     23 was old state     21
 New state     24 was old state     27
 New state     25 was old state     24
 New state     26 was old state     25
 New state     27 was old state     26
 New state     28 was old state     29
 New state     29 was old state     28
 New state     30 was old state     31
 New state     31 was old state     30
 New state     34 was old state     36
 New state     35 was old state     37
 New state     36 was old state     34
 New state     37 was old state     35
 New state     39 was old state     40
 New state     40 was old state     39
 New state     41 was old state     44
 New state     42 was old state     45
 New state     43 was old state     42
 New state     44 was old state     41
 New state     45 was old state     46
 New state     46 was old state     47
 New state     47 was old state     51
 New state     49 was old state     43
 New state     50 was old state     49
 New state     51 was old state     52
 New state     52 was old state     50
 New state     53 was old state     55
 New state     54 was old state     56
 New state     55 was old state     53
 New state     56 was old state     54
 New state     58 was old state     60
 New state     59 was old state     62
 New state     60 was old state     58
 New state     61 was old state     59
 New state     62 was old state     61
 New state     63 was old state     64
 New state     64 was old state     66
 New state     65 was old state     63
 New state     66 was old state     67
 New state     67 was old state     68
 New state     68 was old state     65
 New state     71 was old state     72
 New state     72 was old state     74
 New state     74 was old state     71
 New state     75 was old state     76
 New state     76 was old state     75
 New state     77 was old state     81
 New state     79 was old state     77
 New state     81 was old state     79
 New state     83 was old state     84
 New state     84 was old state     85
 New state     85 was old state     83
 New state     86 was old state     87
 New state     87 was old state     89
 New state     88 was old state     91
 New state     89 was old state     92
 New state     90 was old state     88
 New state     91 was old state     94
 New state     92 was old state     90
 New state     94 was old state     96
 New state     95 was old state     97
 New state     96 was old state     95
 New state     97 was old state     98
 New state     98 was old state    101
 New state     99 was old state    102
 New state    100 was old state    109
 New state    101 was old state    100
 New state    102 was old state    103
 New state    103 was old state     99
 New state    105 was old state    108
 New state    107 was old state    105
 New state    108 was old state    107
 New state    109 was old state    119
 New state    111 was old state    112
 New state    112 was old state    115
 New state    113 was old state    111
 New state    114 was old state    113
 New state    115 was old state    116
 New state    116 was old state    120
 New state    117 was old state    118
 New state    118 was old state    114
 New state    119 was old state    117
 New state    120 was old state    121
 New state    121 was old state    125
 New state    122 was old state    123
 New state    123 was old state    122
 New state    124 was old state    126
 New state    125 was old state    124
 New state    126 was old state    128
 New state    127 was old state    134
 New state    128 was old state    130
 New state    129 was old state    131
 New state    130 was old state    127
 New state    131 was old state    129
 New state    133 was old state    142
 New state    134 was old state    133
 New state    135 was old state    137
 New state    136 was old state    138
 New state    137 was old state    136
 New state    138 was old state    143
 New state    139 was old state    140
 New state    140 was old state    141
 New state    141 was old state    139
 New state    142 was old state    145
 New state    143 was old state    144
 New state    144 was old state    146
 New state    145 was old state    147
 New state    146 was old state    148
 New state    147 was old state    149
 New state    148 was old state    162
 New state    149 was old state    155
 New state    150 was old state    151
 New state    151 was old state    150
 New state    152 was old state    154
 New state    154 was old state    152
 New state    155 was old state    157
 New state    156 was old state    158
 New state    157 was old state    156
 New state    158 was old state    159
 New state    159 was old state    161
 New state    161 was old state    163
 New state    162 was old state    169
 New state    163 was old state    165
 New state    165 was old state    166
 New state    166 was old state    171
 New state    168 was old state    170
 New state    169 was old state    168
 New state    170 was old state    174
 New state    171 was old state    173
 New state    172 was old state    193
 New state    173 was old state    172
 New state    174 was old state    177
 New state    175 was old state    176
 New state    176 was old state    175
 New state    177 was old state    180
 New state    180 was old state    182
 New state    181 was old state    185
 New state    182 was old state    184
 New state    183 was old state    181
 New state    184 was old state    183
 New state    185 was old state    187
 New state    186 was old state    189
 New state    187 was old state    186
 New state    188 was old state    191
 New state    189 was old state    192
 New state    191 was old state    188
 New state    192 was old state    194
 New state    193 was old state    198
 New state    194 was old state    195
 No map to state    195
 New state    198 was old state    200
 New state    200 was old state    201
 New state    201 was old state    203
 New state    202 was old state    204
 New state    203 was old state    206
 New state    204 was old state    202
 New state    205 was old state    210
 New state    206 was old state    207
 No map to state    207
 New state    208 was old state    205
 New state    210 was old state    208
 New state    212 was old state    213
 New state    213 was old state    212
 New state    214 was old state    217
 New state    216 was old state    214
 New state    217 was old state    219
 New state    218 was old state    216
 New state    219 was old state    218
 New state    220 was old state    221
 New state    221 was old state    222
 New state    222 was old state    227
 New state    224 was old state    220
 New state    225 was old state    224
 New state    226 was old state    225
 New state    227 was old state    226
 New state    228 was old state    229
 New state    229 was old state    233
 New state    231 was old state    228
 New state    233 was old state    231
 New state    235 was old state    238
 New state    236 was old state    235
 New state    237 was old state    241
 New state    238 was old state    239
 New state    239 was old state    237
 New state    240 was old state    244
 New state    241 was old state    242
 New state    242 was old state    236
 New state    243 was old state    240
 New state    244 was old state    246
 New state    245 was old state    243
 New state    246 was old state    250
 New state    247 was old state    245
 New state    248 was old state    249
 New state    249 was old state    247
 New state    250 was old state    252
 New state    251 was old state    248
 New state    252 was old state    253
 New state    253 was old state    256
 New state    255 was old state    258
 New state    256 was old state    257
 New state    257 was old state    255
 New state    258 was old state    261
 New state    260 was old state    262
 New state    261 was old state    260
 New state    262 was old state    265
 New state    265 was old state    266
 New state    266 was old state    267
 New state    267 was old state    268
 New state    268 was old state    269
 New state    269 was old state    272
 New state    270 was old state    274
 New state    271 was old state    270
 New state    272 was old state    271
 New state    274 was old state    283
 New state    277 was old state    278
 New state    278 was old state    277
 New state    279 was old state    281
 New state    280 was old state    279
 New state    281 was old state    284
 New state    282 was old state    280
 New state    283 was old state    282
 New state    284 was old state    285
 New state    285 was old state    286
 New state    286 was old state    288
 New state    288 was old state    290
 New state    290 was old state    292
 New state    291 was old state    294
 New state    292 was old state    293
 New state    293 was old state    296
 New state    294 was old state    295
 New state    295 was old state    291
 New state    296 was old state    300
 New state    297 was old state    298
 New state    298 was old state    297
 New state    299 was old state    301
 New state    300 was old state    299
 New state    301 was old state    302
 New state    302 was old state    306
 New state    306 was old state    309
 New state    307 was old state    308
 New state    308 was old state    307
 New state    309 was old state    310
 New state    310 was old state    312
 New state    312 was old state    319
 New state    313 was old state    314
 New state    314 was old state    315
 New state    315 was old state    313
 New state    318 was old state    320
 New state    319 was old state    318
 New state    320 was old state    321
 New state    321 was old state    322
 New state    322 was old state    324
 New state    323 was old state    329
 New state    324 was old state    323
 New state    326 was old state    328
 New state    327 was old state    326
 New state    328 was old state    327
 New state    329 was old state    330
 New state    330 was old state    331
 New state    331 was old state    332
 No map to state    332
 New state    333 was old state    335
 New state    334 was old state    333
 New state    335 was old state    334
 New state    337 was old state    340
 New state    340 was old state    337
 New state    346 was old state    347
 New state    347 was old state    346
 New state    348 was old state    349
 New state    349 was old state    348
 New state    354 was old state    356
 New state    355 was old state    354
 New state    356 was old state    355
 New state    359 was old state    360
 New state    360 was old state    361
 New state    361 was old state    359
 New state    362 was old state    363
 New state    363 was old state    362
 New state    365 was old state    369
 New state    367 was old state    365
 New state    368 was old state    367
 New state    369 was old state    368
 New state    370 was old state    372
 New state    371 was old state    370
 New state    372 was old state    371
 New state    378 was old state    379
 New state    379 was old state    378
 New state    382 was old state    385
 New state    383 was old state    384
 New state    384 was old state    382
 New state    385 was old state    383
 New state    386 was old state    387
 New state    387 was old state    386
 New state    388 was old state    389
 New state    389 was old state    391
 New state    390 was old state    388
 New state    391 was old state    392
 New state    392 was old state    390
 New state    395 was old state    398
 New state    396 was old state    395
 New state    397 was old state    396
 New state    398 was old state    397
 New state    400 was old state    401
 New state    401 was old state    400
 New state    408 was old state    409
 New state    409 was old state    408
 New state    411 was old state    413
 New state    413 was old state    411
 New state    415 was old state    416
 New state    416 was old state    415
 New state    420 was old state    422
 New state    421 was old state    420
 New state    422 was old state    421
 New state    426 was old state    427
 New state    427 was old state    426
 New state    428 was old state    429
 New state    429 was old state    428
 New state    431 was old state    432
 New state    432 was old state    431
 New state    435 was old state    436
 New state    436 was old state    435
 New state    448 was old state    449
 New state    449 was old state    448
 New state    450 was old state    451
 New state    451 was old state    450
 New state    455 was old state    456
 New state    456 was old state    455
 New state    457 was old state    459
 New state    458 was old state    457
 New state    459 was old state    458
 New state    463 was old state    465
 New state    465 was old state    463
 New state    467 was old state    468
 New state    468 was old state    467
 New state    472 was old state    473
 New state    473 was old state    472
 New state    478 was old state    479
 New state    479 was old state    478
 New state    480 was old state    481
 New state    481 was old state    480
 New state    483 was old state    484
 New state    484 was old state    483
 New state    491 was old state    492
 New state    492 was old state    491
 Excitation Energies [eV] at current iteration:
 Root      1 :     6.217750446130600
 Root      2 :     7.497745302725101
 Root      3 :     7.963165912793836
 Root      4 :     8.806422987056909
 Root      5 :     9.175143910594770
 Root      6 :     9.653380880793874
 Root      7 :     9.798099522521671
 Root      8 :     9.821329039900167
 Root      9 :    10.373400529012960
 Root     10 :    10.869739296652260
 Root     11 :    10.874210216449400
 Root     12 :    11.269955578229960
 Root     13 :    11.486930697983270
 Root     14 :    11.491605017675300
 Root     15 :    11.852298706899070
 Root     16 :    11.863386056412280
 Root     17 :    12.057627712930990
 Root     18 :    12.129956529807100
 Root     19 :    12.665826383233710
 Root     20 :    12.681520274996870
 Root     21 :    12.898237822131760
 Root     22 :    12.979977849399190
 Root     23 :    13.005026654798740
 Root     24 :    13.068611505383640
 Root     25 :    13.127017839023460
 Root     26 :    13.296961474878080
 Root     27 :    13.441934720813940
 Root     28 :    13.500320795581880
 Root     29 :    13.552201521033110
 Root     30 :    13.786554049130740
 Root     31 :    13.901335839833350
 Root     32 :    14.152979042156480
 Root     33 :    14.247906260043100
 Root     34 :    14.443450907057530
 Root     35 :    14.463112976353730
 Root     36 :    14.509486233292250
 Root     37 :    14.553835386603370
 Root     38 :    14.586461761415410
 Root     39 :    14.869915455448470
 Root     40 :    14.875976170705690
 Root     41 :    15.188574501123850
 Root     42 :    15.229040900828260
 Root     43 :    15.230534484870180
 Root     44 :    15.273676844914290
 Root     45 :    15.440356995084550
 Root     46 :    15.616710011816490
 Root     47 :    15.662399850409560
 Root     48 :    15.763576181816310
 Root     49 :    15.844048392130820
 Root     50 :    15.864484608756880
 Root     51 :    15.967404458404820
 Root     52 :    15.981086374831360
 Root     53 :    16.142600438894790
 Root     54 :    16.184671620840560
 Root     55 :    16.239789424622430
 Root     56 :    16.317780566010120
 Root     57 :    16.420349470185360
 Root     58 :    16.638735714504530
 Root     59 :    16.662978948434870
 Root     60 :    16.800047285956580
 Root     61 :    16.866947123633730
 Root     62 :    16.973099411754590
 Root     63 :    17.026297274203300
 Root     64 :    17.099890864931170
 Root     65 :    17.111038349519660
 Root     66 :    17.288284438226860
 Root     67 :    17.511369346927000
 Root     68 :    17.553969262992260
 Root     69 :    17.706347676035160
 Root     70 :    17.715912861778460
 Root     71 :    17.923434126608290
 Root     72 :    17.972327891854220
 Root     73 :    17.988528888205720
 Root     74 :    18.154434589319690
 Root     75 :    18.170844296932180
 Root     76 :    18.321165920765700
 Root     77 :    18.417958754798870
 Root     78 :    18.548710940289660
 Root     79 :    18.567564862073870
 Root     80 :    18.602051905458830
 Root     81 :    18.673003202260950
 Root     82 :    18.839368618598470
 Root     83 :    18.903379066456730
 Root     84 :    18.944719612245560
 Root     85 :    19.065982984118110
 Root     86 :    19.126845191753770
 Root     87 :    19.215785383080920
 Root     88 :    19.325479724720050
 Root     89 :    19.412946228542830
 Root     90 :    19.644420936805750
 Root     91 :    19.649370982120590
 Root     92 :    19.664509624582570
 Root     93 :    19.691845019560700
 Root     94 :    19.753626615856800
 Root     95 :    19.860667270174210
 Root     96 :    19.892357604809900
 Root     97 :    20.160133147410860
 Root     98 :    20.307572201795650
 Root     99 :    20.338169808642860
 Root    100 :    20.377663120702110
 Root    101 :    20.380975182677550
 Root    102 :    20.451716009141440
 Root    103 :    20.524501099718770
 Root    104 :    20.524690603027760
 Root    105 :    20.562417398510470
 Root    106 :    20.654810469898520
 Root    107 :    20.693699479300940
 Root    108 :    20.812460845149770
 Root    109 :    20.846873811206890
 Root    110 :    21.168949528427570
 Root    111 :    21.209328765665000
 Root    112 :    21.269578128521920
 Root    113 :    21.345545712670970
 Root    114 :    21.476468080584530
 Root    115 :    21.493474576319660
 Root    116 :    21.548617584051260
 Root    117 :    21.601047011888570
 Root    118 :    21.606542005182050
 Root    119 :    21.733239640516920
 Root    120 :    21.764809358678570
 Root    121 :    21.778580508366160
 Root    122 :    22.013590938891590
 Root    123 :    22.080695171508630
 Root    124 :    22.245976601025550
 Root    125 :    22.295054894559910
 Root    126 :    22.306768543613820
 Root    127 :    22.416865872591090
 Root    128 :    22.512702752986650
 Root    129 :    22.588626042240060
 Root    130 :    22.662301979726100
 Root    131 :    22.842186471254400
 Root    132 :    22.884358487078900
 Root    133 :    22.943345760698780
 Root    134 :    23.026216720013060
 Root    135 :    23.086197262831930
 Root    136 :    23.149263034983140
 Root    137 :    23.157564960924770
 Root    138 :    23.208818494167650
 Root    139 :    23.367507334510100
 Root    140 :    23.379294619328550
 Root    141 :    23.432613537710050
 Root    142 :    23.535951174493430
 Root    143 :    23.585919213138500
 Root    144 :    23.766460077799570
 Root    145 :    23.778461111385900
 Root    146 :    23.916031241806240
 Root    147 :    24.041773420911110
 Root    148 :    24.062262810371330
 Root    149 :    24.173787648216830
 Root    150 :    24.200190130994940
 Root    151 :    24.336421109163720
 Root    152 :    24.602299092162900
 Root    153 :    24.762961256285820
 Root    154 :    24.784650520459980
 Root    155 :    24.896466656477920
 Root    156 :    25.028926711860140
 Root    157 :    25.093894949169200
 Root    158 :    25.105514916470390
 Root    159 :    25.303501052424390
 Root    160 :    25.303931930952980
 Root    161 :    25.646943383774500
 Root    162 :    25.669750563330280
 Root    163 :    25.882876178776170
 Root    164 :    25.940048650049610
 Root    165 :    26.113842035762320
 Root    166 :    26.121797546135860
 Root    167 :    26.278662747316730
 Root    168 :    26.383176740470860
 Root    169 :    26.471993845697900
 Root    170 :    26.535083929792330
 Root    171 :    26.623392697505160
 Root    172 :    26.685427987362050
 Root    173 :    26.700465593423260
 Root    174 :    26.923466266072470
 Root    175 :    27.068120476585350
 Root    176 :    27.128360240684020
 Root    177 :    27.210331452831580
 Root    178 :    27.358733605866770
 Root    179 :    27.446527474047390
 Root    180 :    27.531133993241940
 Root    181 :    27.574871799465580
 Root    182 :    27.614480844436540
 Root    183 :    27.672443745923140
 Root    184 :    27.960041445522150
 Root    185 :    27.973932244981890
 Root    186 :    28.049667527030690
 Root    187 :    28.064024952509970
 Root    188 :    28.302731693291410
 Root    189 :    28.417664974075490
 Root    190 :    28.479409066480560
 Root    191 :    28.579999265597240
 Root    192 :    28.688140622300570
 Root    193 :    28.749445401683260
 Root    194 :    28.870721229491970
 Root    195 :    29.014328618650630
 Root    196 :    29.164160916690480
 Root    197 :    29.298896014012790
 Root    198 :    29.409617079272300
 Root    199 :    29.607990354341010
 Root    200 :    29.639921105408640
 Root    201 :    29.791024742108160
 Root    202 :    30.258209894158330
 Root    203 :    30.347022570824410
 Root    204 :    30.393549018746320
 Root    205 :    30.495849929878510
 Root    206 :    30.528731383702210
 Root    207 :    30.578566581951540
 Root    208 :    30.600504518148840
 Root    209 :    30.953648953085150
 Root    210 :    31.011509025181910
 Root    211 :    31.404657134145870
 Root    212 :    31.450506851159000
 Root    213 :    31.700230996668240
 Root    214 :    32.075355236916020
 Root    215 :    32.268034934459460
 Root    216 :    32.576714731413180
 Root    217 :    32.706530848826970
 Root    218 :    32.821150432404360
 Root    219 :    32.990843035476670
 Root    220 :    33.075751476651730
 Root    221 :    33.265601577411910
 Root    222 :    33.323286577978790
 Root    223 :    33.387290603552810
 Root    224 :    33.522941123156110
 Root    225 :    33.537926865284700
 Root    226 :    33.569862819490310
 Root    227 :    33.687672446502170
 Root    228 :    33.988892100786690
 Root    229 :    34.135263907311160
 Root    230 :    34.417729748586400
 Root    231 :    34.552027076515070
 Root    232 :    34.620268285908580
 Root    233 :    34.783498858785760
 Root    234 :    34.815153218546830
 Root    235 :    34.914479833730530
 Root    236 :    34.989554502816870
 Root    237 :    35.038051560946180
 Root    238 :    35.156561724161210
 Root    239 :    35.245949604793760
 Root    240 :    35.417179706714670
 Root    241 :    35.470620660409170
 Root    242 :    35.529132578985520
 Root    243 :    35.801077358217650
 Root    244 :    35.841118300221020
 Root    245 :    36.374207346696750
 Root    246 :    36.493694091484660
 Root    247 :    36.514404503972340
 Root    248 :    36.604439320747560
 Root    249 :    36.695417477820980
 Root    250 :    36.780852639092980
 Root    251 :    36.852259811132270
 Root    252 :    37.573283658066630
 Root    253 :    37.616269505177880
 Root    254 :    37.776399287382900
 Root    255 :    37.910639244505910
 Root    256 :    38.004036836528780
 Root    257 :    38.117577506410730
 Root    258 :    38.209673739548400
 Root    259 :    38.580905927803570
 Root    260 :    38.644692357865970
 Root    261 :    38.839433969002880
 Root    262 :    38.999583089655460
 Root    263 :    39.030061458524330
 Root    264 :    39.189392322707010
 Root    265 :    39.281482611579880
 Root    266 :    39.603235740701490
 Root    267 :    39.883206836684220
 Root    268 :    39.890561734313280
 Root    269 :    39.973948335713530
 Root    270 :    40.455564699764970
 Root    271 :    40.551196357555860
 Root    272 :    40.877955533673600
 Root    273 :    41.566800726944240
 Root    274 :    41.783207318056260
 Root    275 :    42.075881053613320
 Root    276 :    42.252099622335780
 Root    277 :    42.553105425349350
 Root    278 :    42.889303503632540
 Root    279 :    43.087536238780220
 Root    280 :    43.151594657616980
 Root    281 :    43.444895170662780
 Root    282 :    43.533282344862340
 Root    283 :    43.690550985378150
 Root    284 :    44.352662977576680
 Root    285 :    44.414089163117050
 Root    286 :    44.889749160285610
 Root    287 :    45.200836398731760
 Root    288 :    45.245813915181810
 Root    289 :    45.560377030316370
 Root    290 :    46.115050614305020
 Root    291 :    46.537553168424100
 Root    292 :    46.750809955633680
 Root    293 :    46.957946947818190
 Root    294 :    47.294234698391900
 Root    295 :    47.315215959556870
 Root    296 :    47.578988911243370
 Root    297 :    47.940686716495770
 Root    298 :    47.986979592349050
 Root    299 :    48.188435679001650
 Root    300 :    48.418609199330910
 Root    301 :    48.722527477166780
 Root    302 :    48.764491442352130
 Root    303 :    49.141830307775450
 Root    304 :    49.343866872720490
 Root    305 :    49.580513177565460
 Root    306 :    50.287773518415630
 Root    307 :    50.339134846018650
 Root    308 :    50.522632803812290
 Root    309 :    50.832169869121560
 Root    310 :    50.927187268587960
 Root    311 :    51.005491772338180
 Root    312 :    51.407910105634160
 Root    313 :    51.609507260347170
 Root    314 :    51.785780866414650
 Root    315 :    51.859997057414650
 Root    316 :    52.274818279844870
 Root    317 :    52.592432305972570
 Root    318 :    52.726914614561340
 Root    319 :    52.805964654147610
 Root    320 :    53.164866348327650
 Root    321 :    53.536866523050120
 Root    322 :    53.890250640206750
 Root    323 :    54.156974513978770
 Root    324 :    54.269156475247260
 Root    325 :    54.668486704045140
 Root    326 :    55.145249918486300
 Root    327 :    55.372472869409900
 Root    328 :    55.613134754590730
 Root    329 :    55.657304404686630
 Root    330 :    55.891638600521730
 Root    331 :    56.233620210634440
 Root    332 :    56.309733316268150
 Root    333 :    56.476321724642640
 Root    334 :    56.713692956237950
 Root    335 :    56.796234600191550
 Root    336 :    57.703335607558640
 Root    337 :    58.371214502398130
 Root    338 :    58.465676824252610
 Root    339 :    58.778424356470970
 Root    340 :    58.840250763872290
 Root    341 :    58.895935237101730
 Root    342 :    59.420300323775410
 Root    343 :    59.656893981727170
 Root    344 :    59.732138884881000
 Root    345 :    60.127704322466670
 Root    346 :    60.308291457085860
 Root    347 :    60.334913060582860
 Root    348 :    60.653429397913970
 Root    349 :    60.693459058097740
 Root    350 :    60.932554938432200
 Root    351 :    60.987992523066370
 Root    352 :    61.521032303783130
 Root    353 :    61.552544808820160
 Root    354 :    61.620407854969100
 Root    355 :    61.735909047947490
 Root    356 :    61.804747840051280
 Root    357 :    62.308144467268870
 Root    358 :    62.587062633109200
 Root    359 :    62.702285936262160
 Root    360 :    62.863101893186670
 Root    361 :    62.997745173694970
 Root    362 :    63.009128785856440
 Root    363 :    63.447652827563590
 Root    364 :    63.560153854156730
 Root    365 :    64.157953346837120
 Root    366 :    64.165536342990260
 Root    367 :    64.532878240292630
 Root    368 :    64.913725536561970
 Root    369 :    65.024373830765440
 Root    370 :    65.288457839150720
 Root    371 :    65.426523515798020
 Root    372 :    65.494954458466980
 Root    373 :    65.542351418652230
 Root    374 :    65.658334530055580
 Root    375 :    65.681106508595960
 Root    376 :    66.104545322342020
 Root    377 :    66.134758384712190
 Root    378 :    66.577993083531990
 Root    379 :    66.847287788946970
 Root    380 :    66.908772445548320
 Root    381 :    67.108435990146520
 Root    382 :    67.588087467170810
 Root    383 :    67.723146880357120
 Root    384 :    67.748855847935760
 Root    385 :    68.067633392672060
 Root    386 :    68.250319389489760
 Root    387 :    68.298761290856390
 Root    388 :    68.566674688882000
 Root    389 :    68.717598518586130
 Root    390 :    68.849132335153000
 Root    391 :    68.890468170904550
 Root    392 :    69.185641064975060
 Root    393 :    69.598116193870840
 Root    394 :    69.811572490792320
 Root    395 :    69.838029197853960
 Root    396 :    69.944422218421350
 Root    397 :    70.177552399782020
 Root    398 :    70.726188705089560
 Root    399 :    70.750422175537420
 Root    400 :    70.934022386451250
 Root    401 :    71.225871268359270
 Root    402 :    71.926857423033310
 Root    403 :    72.141766371783450
 Root    404 :    72.568647401657670
 Root    405 :    72.828683419689090
 Root    406 :    72.881362226219620
 Root    407 :    73.279524675240910
 Root    408 :    73.301095324671250
 Root    409 :    73.703843430886550
 Root    410 :    74.057173231335070
 Root    411 :    74.618461523502380
 Root    412 :    74.756374387096870
 Root    413 :    74.840505266027520
 Root    414 :    74.950145471971480
 Root    415 :    75.509496464215520
 Root    416 :    75.812923627249750
 Root    417 :    75.917674141490710
 Root    418 :    76.047146863815030
 Root    419 :    76.082759931629610
 Root    420 :    76.563014985178500
 Root    421 :    77.008824934517660
 Root    422 :    77.166061115207540
 Root    423 :    77.878401477006800
 Root    424 :    78.620279504989820
 Root    425 :    78.846453909855670
 Root    426 :    78.992844550443860
 Root    427 :    79.105491377276310
 Root    428 :    79.686535160368620
 Root    429 :    79.983549287647110
 Root    430 :    80.183441952745540
 Root    431 :    80.307839472654880
 Root    432 :    80.502199886062570
 Root    433 :    80.940756790440290
 Root    434 :    81.563361139712110
 Root    435 :    81.818150196763450
 Root    436 :    82.045288022006390
 Root    437 :    82.574072705217260
 Root    438 :    82.780720625542590
 Root    439 :    83.008482223580780
 Root    440 :    83.713799634128140
 Root    441 :    83.827256864790580
 Root    442 :    84.854515633932790
 Root    443 :    85.065512465428990
 Root    444 :    85.579617196953950
 Root    445 :    86.112574468242510
 Root    446 :    86.634894482971630
 Root    447 :    86.718502388461470
 Root    448 :    86.972432069553410
 Root    449 :    87.147062515470170
 Root    450 :    87.430375616989180
 Root    451 :    87.723049496772280
 Root    452 :    88.027902303898140
 Root    453 :    88.318582386522920
 Root    454 :    89.010487069756150
 Root    455 :    89.685473010481300
 Root    456 :    89.867895537205130
 Root    457 :    89.898364941839280
 Root    458 :    90.047740716151820
 Root    459 :    90.181744046646130
 Root    460 :    90.756773063904590
 Root    461 :    91.025168744884680
 Root    462 :    91.696988357050150
 Root    463 :    92.650958882068540
 Root    464 :    92.794739085669310
 Root    465 :    93.035850843273640
 Root    466 :    93.312411592583700
 Root    467 :    93.548196136060000
 Root    468 :    93.771619063690010
 Root    469 :    94.337674934667220
 Root    470 :    94.420282928431480
 Root    471 :    94.926724583971290
 Root    472 :    95.153108055418230
 Root    473 :    95.430003356326520
 Root    474 :    96.873582804396930
 Root    475 :    96.960183399148390
 Root    476 :    97.021415846432350
 Root    477 :    97.914486952688040
 Root    478 :    99.220125129825280
 Root    479 :    99.456317038332530
 Root    480 :    99.967920706952210
 Root    481 :   100.582872934535200
 Root    482 :   100.743510842203400
 Root    483 :   101.284347422764700
 Root    484 :   101.389561083969900
 Root    485 :   101.483197473342300
 Root    486 :   102.527873355975100
 Root    487 :   103.252359539408400
 Root    488 :   106.228951309837300
 Root    489 :   106.780344371877100
 Root    490 :   107.083550032858700
 Root    491 :   107.291904743327900
 Root    492 :   107.664819822662000
 Root    493 :   108.234137551060500
 Root    494 :   109.163817558147400
 Root    495 :   112.510792179359800
 Root    496 :   114.211099907469900
 Root    497 :   118.957985160588100
 Convergence achieved for final wavefunctions.
 ***********************************************************************
 Excited states from <AA,BB:AA,BB> singles matrix:
 ***********************************************************************
 
 1PDM for each excited state written to RWF  633
 Ground to excited state transition densities written to RWF  633
 Ground to excited state transition electric dipole moments (Au):
       state          X           Y           Z        Dip. S.      Osc.
         1         0.2401     -0.0142     -0.0000      0.0579      0.0088
         2         0.4271      0.1626      0.0000      0.2089      0.0384
         3        -0.0000      0.0000     -0.1952      0.0381      0.0074
         4         0.2234      0.5621     -0.0000      0.3659      0.0789
         5        -0.0000     -0.0000      0.0031      0.0000      0.0000
         6         0.1237      0.1443      0.0000      0.0361      0.0085
         7         0.0000     -0.0000     -0.2500      0.0625      0.0150
         8        -0.1067     -0.2756     -0.0000      0.0873      0.0210
         9        -0.0000      0.0000     -0.0183      0.0003      0.0001
        10        -0.0000     -0.0000      0.6009      0.3611      0.0962
        11        -0.4444     -0.0738     -0.0000      0.2029      0.0541
        12        -0.0911      0.1120      0.0000      0.0208      0.0058
        13         0.0000     -0.0000      0.2046      0.0419      0.0118
        14        -0.1625      0.2932      0.0000      0.1123      0.0316
        15        -0.2962      0.5581     -0.0000      0.3992      0.1159
        16         0.5458     -0.4278      0.0000      0.4809      0.1398
        17        -0.0000     -0.0000     -0.3388      0.1148      0.0339
        18        -0.1605     -0.3355      0.0000      0.1383      0.0411
        19         0.0785      0.2990      0.0000      0.0956      0.0297
        20         0.0000      0.0000     -0.2664      0.0710      0.0221
        21         0.6556      0.5476      0.0000      0.7296      0.2306
        22         0.0000      0.0000     -0.0307      0.0009      0.0003
        23        -0.3841      0.3816     -0.0000      0.2931      0.0934
        24        -0.0000     -0.0000      0.1667      0.0278      0.0089
        25        -0.0000     -0.0000      0.6565      0.4310      0.1386
        26        -0.1136      0.0134     -0.0000      0.0131      0.0043
        27        -0.0000     -0.0000      0.3739      0.1398      0.0461
        28         0.0000     -0.0000     -0.3438      0.1182      0.0391
        29        -0.1735      0.8523     -0.0000      0.7565      0.2512
        30        -0.0000     -0.0000      0.6750      0.4556      0.1539
        31        -0.1091     -0.1930      0.0000      0.0492      0.0167
        32         0.1053     -0.0801      0.0000      0.0175      0.0061
        33        -0.3830     -0.0293      0.0000      0.1475      0.0515
        34         0.4679      0.0653     -0.0000      0.2232      0.0790
        35        -0.0000     -0.0000     -0.0575      0.0033      0.0012
        36        -0.0000     -0.0000      0.0273      0.0007      0.0003
        37         0.5615      0.4297     -0.0000      0.4999      0.1783
        38        -0.0000      0.0000     -0.3080      0.0949      0.0339
        39        -0.0774      0.1011      0.0000      0.0162      0.0059
        40         0.0000     -0.0000     -0.2387      0.0570      0.0208
        41         0.1146     -0.4298      0.0000      0.1979      0.0736
        42         0.2124     -0.1229      0.0000      0.0602      0.0225
        43         0.0000      0.0000     -0.8211      0.6742      0.2516
        44         0.0000      0.0000      0.2779      0.0773      0.0289
        45         0.5449     -0.5818      0.0000      0.6354      0.2404
        46         0.0911     -0.6046      0.0000      0.3739      0.1430
        47        -0.0000      0.0000      0.2176      0.0473      0.0182
        48        -0.0000      0.0000      0.3361      0.1130      0.0436
        49        -0.0828     -0.0259     -0.0000      0.0075      0.0029
        50        -0.0000     -0.0000      0.0492      0.0024      0.0009
        51         0.0685     -0.0211     -0.0000      0.0051      0.0020
        52        -0.0000      0.0000      0.1107      0.0122      0.0048
        53         0.5600     -0.3336     -0.0000      0.4249      0.1680
        54         0.0000     -0.0000      0.2542      0.0646      0.0256
        55         0.2991     -0.2503      0.0000      0.1521      0.0605
        56         0.5698      0.2757      0.0000      0.4008      0.1602
        57        -0.0000     -0.0000     -0.5082      0.2583      0.1039
        58         0.1298      0.2522     -0.0000      0.0805      0.0328
        59         0.0000     -0.0000      0.3954      0.1563      0.0638
        60         0.3122      0.2725      0.0000      0.1717      0.0707
        61         0.0000      0.0000     -0.0325      0.0011      0.0004
        62         0.0000      0.0000     -0.0535      0.0029      0.0012
        63         0.0616     -0.2769     -0.0000      0.0805      0.0336
        64         0.2931      0.4153     -0.0000      0.2584      0.1082
        65        -0.0000     -0.0000     -0.4174      0.1742      0.0730
        66         0.0000      0.0000     -0.4456      0.1986      0.0841
        67         0.0000      0.0000      0.4291      0.1841      0.0790
        68        -0.1198     -0.5505      0.0000      0.3174      0.1365
        69         0.0456      0.2639      0.0000      0.0717      0.0311
        70         0.0000     -0.0000     -0.2013      0.0405      0.0176
        71         0.1847     -0.1186     -0.0000      0.0482      0.0212
        72        -0.0000     -0.0000      0.0273      0.0007      0.0003
        73        -0.2027      0.1140      0.0000      0.0541      0.0238
        74         0.1294      0.0195     -0.0000      0.0171      0.0076
        75         0.0000     -0.0000      0.2001      0.0400      0.0178
        76         0.0149      0.0488      0.0000      0.0026      0.0012
        77        -0.0000      0.0000     -0.2452      0.0601      0.0271
        78         0.0991     -0.0201     -0.0000      0.0102      0.0046
        79         0.1968     -0.2814     -0.0000      0.1179      0.0536
        80         0.2598     -0.0614      0.0000      0.0713      0.0325
        81        -0.0000      0.0000      0.0881      0.0078      0.0036
        82         0.3266     -0.2772      0.0000      0.1835      0.0847
        83        -0.0000      0.0000      0.0669      0.0045      0.0021
        84         0.1659      0.0404      0.0000      0.0292      0.0135
        85         0.1999     -0.1076      0.0000      0.0516      0.0241
        86         0.0000     -0.0000      0.1400      0.0196      0.0092
        87        -0.2102     -0.1766     -0.0000      0.0754      0.0355
        88         0.0000     -0.0000      0.1840      0.0339      0.0160
        89         0.1419      0.3163      0.0000      0.1202      0.0572
        90         0.3891     -0.3187      0.0000      0.2530      0.1217
        91         0.0000      0.0000     -0.2957      0.0874      0.0421
        92        -0.3650     -0.5858     -0.0000      0.4764      0.2295
        93         0.0000     -0.0000      0.2853      0.0814      0.0393
        94        -0.0000     -0.0000     -0.1856      0.0344      0.0167
        95        -0.1187      0.3381      0.0000      0.1284      0.0625
        96         0.0000      0.0000     -0.1207      0.0146      0.0071
        97        -0.0090      0.2378      0.0000      0.0566      0.0280
        98         0.1264      0.0077      0.0000      0.0160      0.0080
        99        -0.0000      0.0000      0.2822      0.0796      0.0397
       100         0.1654     -0.3694      0.0000      0.1638      0.0818
       101        -0.0000     -0.0000     -0.1332      0.0177      0.0089
       102        -0.0000      0.0000     -0.1796      0.0323      0.0162
       103        -0.1528     -0.0485      0.0000      0.0257      0.0129
       104         0.0000      0.0000      0.3185      0.1015      0.0510
       105        -0.0840      0.3091     -0.0000      0.1026      0.0517
       106         0.0000      0.0000     -0.0163      0.0003      0.0001
       107        -0.0580      0.2996     -0.0000      0.0931      0.0472
       108         0.0000      0.0000     -0.0758      0.0057      0.0029
       109         0.1496      0.1275      0.0000      0.0386      0.0197
       110         0.0000      0.0000     -0.1018      0.0104      0.0054
       111         0.0000     -0.0000     -0.1099      0.0121      0.0063
       112         0.0000     -0.0000     -0.0067      0.0000      0.0000
       113         0.1700     -0.1266      0.0000      0.0449      0.0235
       114         0.0463     -0.2130      0.0000      0.0475      0.0250
       115         0.0000      0.0000     -0.0794      0.0063      0.0033
       116         0.0000     -0.0000      0.2354      0.0554      0.0292
       117        -0.2347     -0.1106      0.0000      0.0673      0.0356
       118         0.0000      0.0000      0.1973      0.0389      0.0206
       119        -0.0000      0.0000     -0.5887      0.3465      0.1845
       120        -0.0597     -0.1413      0.0000      0.0235      0.0125
       121         0.0812      0.0579     -0.0000      0.0100      0.0053
       122         0.0000      0.0000     -0.3798      0.1443      0.0778
       123         0.0000     -0.0000      0.0098      0.0001      0.0001
       124         0.0294     -0.0579      0.0000      0.0042      0.0023
       125         0.1587     -0.1766      0.0000      0.0564      0.0308
       126         0.0000     -0.0000     -0.1819      0.0331      0.0181
       127        -0.1279      0.1987      0.0000      0.0558      0.0307
       128        -0.0935      0.1313     -0.0000      0.0260      0.0143
       129         0.2308      0.0736      0.0000      0.0587      0.0325
       130        -0.0000      0.0000     -0.0570      0.0033      0.0018
       131        -0.0643     -0.1710     -0.0000      0.0334      0.0187
       132         0.0945      0.0837     -0.0000      0.0159      0.0089
       133         0.0000     -0.0000      0.0492      0.0024      0.0014
       134        -0.1195      0.3023      0.0000      0.1057      0.0596
       135         0.0000      0.0000      0.1793      0.0321      0.0182
       136         0.0474      0.2278      0.0000      0.0542      0.0307
       137         0.0000      0.0000     -0.1638      0.0268      0.0152
       138         0.0611     -0.1653     -0.0000      0.0310      0.0177
       139        -0.0000     -0.0000     -0.4952      0.2452      0.1404
       140         0.2352     -0.1180      0.0000      0.0692      0.0397
       141        -0.0000     -0.0000      0.1163      0.0135      0.0078
       142         0.2341     -0.1815     -0.0000      0.0878      0.0506
       143         0.1868     -0.6280      0.0000      0.4293      0.2481
       144        -0.2834     -0.2018     -0.0000      0.1210      0.0705
       145        -0.0000      0.0000      0.2245      0.0504      0.0294
       146         0.5585     -0.0302      0.0000      0.3129      0.1833
       147         0.0000      0.0000     -0.1067      0.0114      0.0067
       148         0.3680     -0.0046     -0.0000      0.1354      0.0798
       149         0.0649      0.3361      0.0000      0.1172      0.0694
       150        -0.0000     -0.0000      0.0737      0.0054      0.0032
       151         0.0000      0.0000      0.0132      0.0002      0.0001
       152         0.0981      0.0989     -0.0000      0.0194      0.0117
       153        -0.0000      0.0000      0.2245      0.0504      0.0306
       154         0.0433     -0.1193      0.0000      0.0161      0.0098
       155        -0.0000     -0.0000     -0.1981      0.0392      0.0239
       156         0.0375      0.1664      0.0000      0.0291      0.0178
       157        -0.0000     -0.0000      0.2600      0.0676      0.0416
       158        -0.4394     -0.3320     -0.0000      0.3033      0.1866
       159        -0.0479     -0.1730      0.0000      0.0322      0.0200
       160        -0.0000     -0.0000      0.0381      0.0015      0.0009
       161         0.0000     -0.0000      0.2139      0.0458      0.0288
       162        -0.5201      0.0752      0.0000      0.2762      0.1737
       163        -0.0000     -0.0000      0.0121      0.0001      0.0001
       164        -0.1751      0.1205      0.0000      0.0452      0.0287
       165         0.0000      0.0000      0.4128      0.1704      0.1090
       166         0.1758      0.1244      0.0000      0.0464      0.0297
       167        -0.0306     -0.0078      0.0000      0.0010      0.0006
       168         0.0000     -0.0000      0.3768      0.1420      0.0918
       169         0.2066      0.1078     -0.0000      0.0543      0.0352
       170        -0.0521      0.0926     -0.0000      0.0113      0.0073
       171         0.0000      0.0000      0.0236      0.0006      0.0004
       172         0.1789      0.0330      0.0000      0.0331      0.0216
       173         0.0000      0.0000     -0.0598      0.0036      0.0023
       174         0.0000     -0.0000     -0.1170      0.0137      0.0090
       175         0.0000     -0.0000      0.1964      0.0386      0.0256
       176         0.0728      0.4593      0.0000      0.2163      0.1437
       177        -0.2640      0.1199     -0.0000      0.0841      0.0561
       178        -0.1839     -0.0874      0.0000      0.0415      0.0278
       179        -0.0000     -0.0000     -0.0852      0.0073      0.0049
       180        -0.0350     -0.0744     -0.0000      0.0068      0.0046
       181         0.0000      0.0000      0.0937      0.0088      0.0059
       182         0.0430      0.0383     -0.0000      0.0033      0.0022
       183         0.0000      0.0000      0.0868      0.0075      0.0051
       184         0.0000     -0.0000     -0.1927      0.0371      0.0254
       185         0.0133     -0.1373      0.0000      0.0190      0.0130
       186         0.1256     -0.0583      0.0000      0.0192      0.0132
       187        -0.0000     -0.0000     -0.5024      0.2524      0.1735
       188         0.2483      0.1103     -0.0000      0.0738      0.0512
       189        -0.0978      0.2200      0.0000      0.0580      0.0404
       190         0.1658     -0.0548      0.0000      0.0305      0.0213
       191        -0.0000      0.0000      0.1979      0.0392      0.0274
       192        -0.0000     -0.0000      0.2029      0.0412      0.0289
       193        -0.2008      0.0856     -0.0000      0.0476      0.0336
       194        -0.2693     -0.0896     -0.0000      0.0806      0.0570
       195         0.0954     -0.0393      0.0000      0.0106      0.0076
       196        -0.0000     -0.0000      0.0374      0.0014      0.0010
       197        -0.2424      0.0330      0.0000      0.0598      0.0430
       198         0.3677     -0.0158     -0.0000      0.1355      0.0976
       199        -0.0524      0.0738     -0.0000      0.0082      0.0059
       200        -0.0000      0.0000      0.4555      0.2074      0.1506
       201        -0.1252     -0.0405     -0.0000      0.0173      0.0126
       202         0.0544      0.1936     -0.0000      0.0404      0.0300
       203        -0.0000     -0.0000      0.0928      0.0086      0.0064
       204        -0.0000     -0.0000     -0.2533      0.0641      0.0478
       205        -0.0000     -0.0000     -0.0969      0.0094      0.0070
       206        -0.1423     -0.0735     -0.0000      0.0256      0.0192
       207        -0.2094     -0.1116      0.0000      0.0563      0.0422
       208        -0.0000     -0.0000      0.0558      0.0031      0.0023
       209        -0.0594     -0.0636     -0.0000      0.0076      0.0057
       210         0.0000      0.0000      0.1307      0.0171      0.0130
       211        -0.0573     -0.1645     -0.0000      0.0303      0.0233
       212        -0.0000     -0.0000      0.1933      0.0374      0.0288
       213         0.0260      0.0068     -0.0000      0.0007      0.0006
       214        -0.0468     -0.3079      0.0000      0.0970      0.0762
       215        -0.0347      0.1863     -0.0000      0.0359      0.0284
       216         0.0964      0.0831     -0.0000      0.0162      0.0129
       217         0.1935     -0.0728     -0.0000      0.0427      0.0342
       218         0.0000     -0.0000      0.0016      0.0000      0.0000
       219         0.0000      0.0000     -0.1233      0.0152      0.0123
       220         0.1380     -0.0594      0.0000      0.0226      0.0183
       221         0.0000     -0.0000     -0.0980      0.0096      0.0078
       222         0.0000      0.0000      0.2610      0.0681      0.0556
       223         0.0000      0.0000     -0.0017      0.0000      0.0000
       224         0.0000     -0.0000      0.0058      0.0000      0.0000
       225        -0.0083      0.1237      0.0000      0.0154      0.0126
       226         0.0503      0.0844      0.0000      0.0097      0.0079
       227        -0.0838     -0.0680      0.0000      0.0116      0.0096
       228        -0.0333      0.1049     -0.0000      0.0121      0.0101
       229         0.0000     -0.0000      0.0126      0.0002      0.0001
       230        -0.1056      0.0188     -0.0000      0.0115      0.0097
       231        -0.0000      0.0000     -0.0069      0.0000      0.0000
       232         0.0731     -0.0869      0.0000      0.0129      0.0109
       233        -0.1502     -0.1016     -0.0000      0.0329      0.0280
       234         0.0000      0.0000      0.0292      0.0009      0.0007
       235         0.0000      0.0000     -0.1190      0.0142      0.0121
       236         0.1240     -0.0147     -0.0000      0.0156      0.0134
       237         0.0000      0.0000      0.0223      0.0005      0.0004
       238        -0.0198     -0.0878     -0.0000      0.0081      0.0070
       239        -0.0435     -0.1271      0.0000      0.0181      0.0156
       240         0.0000      0.0000     -0.0017      0.0000      0.0000
       241         0.1310      0.0407      0.0000      0.0188      0.0164
       242        -0.0319      0.0445     -0.0000      0.0030      0.0026
       243         0.0107     -0.0138     -0.0000      0.0003      0.0003
       244        -0.0000     -0.0000     -0.0247      0.0006      0.0005
       245        -0.0000     -0.0000     -0.0609      0.0037      0.0033
       246         0.0558      0.0939     -0.0000      0.0119      0.0107
       247         0.1217      0.0187     -0.0000      0.0152      0.0136
       248         0.0000      0.0000      0.3050      0.0930      0.0834
       249        -0.0000      0.0000      0.0869      0.0075      0.0068
       250         0.0843     -0.0045      0.0000      0.0071      0.0064
       251         0.0000      0.0000      0.0431      0.0019      0.0017
       252         0.0541     -0.0854      0.0000      0.0102      0.0094
       253        -0.0790     -0.0758      0.0000      0.0120      0.0110
       254         0.1083     -0.1576      0.0000      0.0366      0.0339
       255         0.0000     -0.0000      0.0379      0.0014      0.0013
       256         0.0000     -0.0000      0.0725      0.0053      0.0049
       257        -0.0620     -0.0081     -0.0000      0.0039      0.0036
       258        -0.0000     -0.0000      0.0248      0.0006      0.0006
       259        -0.1854     -0.0111     -0.0000      0.0345      0.0326
       260         0.0000     -0.0000      0.1329      0.0177      0.0167
       261         0.0000     -0.0000      0.0700      0.0049      0.0047
       262        -0.0560     -0.0278     -0.0000      0.0039      0.0037
       263        -0.0000     -0.0000      0.0995      0.0099      0.0095
       264        -0.0000      0.0000     -0.0711      0.0051      0.0049
       265        -0.0787      0.0925      0.0000      0.0148      0.0142
       266         0.0232     -0.2004     -0.0000      0.0407      0.0395
       267        -0.0000     -0.0000      0.0418      0.0017      0.0017
       268         0.0605      0.0059      0.0000      0.0037      0.0036
       269         0.0711     -0.0122     -0.0000      0.0052      0.0051
       270        -0.0674     -0.0205     -0.0000      0.0050      0.0049
       271         0.0000      0.0000     -0.0739      0.0055      0.0054
       272         0.0222     -0.0065     -0.0000      0.0005      0.0005
       273         0.0442      0.1451      0.0000      0.0230      0.0234
       274         0.1026     -0.1263     -0.0000      0.0265      0.0271
       275        -0.0000     -0.0000      0.2582      0.0667      0.0687
       276         0.0000      0.0000      0.0363      0.0013      0.0014
       277         0.1692      0.0888     -0.0000      0.0365      0.0380
       278         0.2181      0.0109     -0.0000      0.0477      0.0501
       279        -0.0000      0.0000     -0.1191      0.0142      0.0150
       280         0.0000     -0.0000     -0.0228      0.0005      0.0005
       281        -0.0138      0.1287     -0.0000      0.0168      0.0178
       282        -0.0000      0.0000      0.0278      0.0008      0.0008
[...]
      5   0.557138D-01  0.000000D+00  0.819357D-01 -0.219739D+00  0.124965D+00
      6  -0.536412D-01  0.000000D+00 -0.966848D-01  0.190934D-01 -0.208730D+00
      7   0.000000D+00 -0.147997D+00  0.000000D+00  0.000000D+00  0.000000D+00
      8   0.000000D+00 -0.451959D-01  0.000000D+00  0.000000D+00  0.000000D+00
      9   0.000000D+00  0.589713D-01  0.000000D+00  0.000000D+00  0.000000D+00
     10   0.263940D-01  0.000000D+00  0.228557D+00 -0.379750D+00 -0.212443D+00
     11   0.139079D+00  0.000000D+00  0.202577D+00  0.247974D+00  0.105725D+00
     12  -0.323210D+00  0.000000D+00  0.482869D+00  0.906768D-01 -0.232470D-01
     13   0.841152D-01  0.000000D+00  0.123089D+00  0.128101D-01 -0.227982D+00
     14  -0.894164D-01  0.000000D+00 -0.170250D+00  0.548564D+00  0.128387D+00
     15   0.000000D+00  0.226089D-01  0.000000D+00  0.000000D+00  0.000000D+00
     16   0.000000D+00 -0.210346D+00  0.000000D+00  0.000000D+00  0.000000D+00
               431           432           433           434           435 
      1  -0.927912D+02 -0.927841D+02 -0.927679D+02 -0.927451D+02 -0.927357D+02
      2  -0.669940D-01  0.000000D+00 -0.150665D-01 -0.250182D-01  0.000000D+00
      3  -0.187325D-01  0.000000D+00 -0.217062D-01 -0.475649D-02  0.000000D+00
      4   0.000000D+00  0.213336D-01  0.000000D+00  0.000000D+00 -0.323096D-01
      5   0.163819D+00  0.000000D+00  0.393345D-01  0.549731D-01  0.000000D+00
      6  -0.723931D-02  0.000000D+00  0.291386D-01  0.208624D-01  0.000000D+00
      7   0.000000D+00 -0.553939D-01  0.000000D+00  0.000000D+00  0.139600D+00
      8   0.000000D+00  0.600814D-01  0.000000D+00  0.000000D+00 -0.241539D+00
      9   0.000000D+00  0.887335D-01  0.000000D+00  0.000000D+00  0.194373D-01
     10   0.299015D+00  0.000000D+00  0.187304D+00 -0.177446D+00  0.000000D+00
     11  -0.262303D+00  0.000000D+00 -0.112721D+00 -0.834367D-01  0.000000D+00
     12  -0.293106D-01  0.000000D+00 -0.819118D-02  0.167155D+00  0.000000D+00
     13  -0.126565D+00  0.000000D+00 -0.144589D+00 -0.485255D-01  0.000000D+00
     14  -0.217796D+00  0.000000D+00 -0.220036D+00  0.565934D-01  0.000000D+00
     15   0.000000D+00 -0.345391D-01  0.000000D+00  0.000000D+00 -0.634043D-01
     16   0.000000D+00 -0.188693D-01  0.000000D+00  0.000000D+00 -0.312086D+00
               436           437           438           439           440 
      1  -0.927274D+02 -0.927079D+02 -0.927003D+02 -0.926920D+02 -0.926660D+02
      2  -0.583338D-01  0.000000D+00  0.000000D+00  0.000000D+00 -0.584253D-01
      3   0.944025D-01  0.000000D+00  0.000000D+00  0.000000D+00 -0.283268D-02
      4   0.000000D+00 -0.285335D-01 -0.760451D-01  0.861378D-01  0.000000D+00
      5   0.166376D+00  0.000000D+00  0.000000D+00  0.000000D+00  0.117441D+00
      6  -0.271512D+00  0.000000D+00  0.000000D+00  0.000000D+00  0.163071D-01
      7   0.000000D+00  0.790770D-01  0.178789D+00 -0.254863D+00  0.000000D+00
      8   0.000000D+00 -0.144361D+00 -0.347531D-01  0.453777D+00  0.000000D+00
      9   0.000000D+00 -0.111149D+00 -0.520810D-01 -0.226781D-01  0.000000D+00
     10   0.200994D+00  0.000000D+00  0.000000D+00  0.000000D+00  0.112991D+00
     11  -0.223635D+00  0.000000D+00  0.000000D+00  0.000000D+00  0.701285D-02
     12   0.643211D+00  0.000000D+00  0.000000D+00  0.000000D+00  0.529366D+00
     13   0.128927D+00  0.000000D+00  0.000000D+00  0.000000D+00 -0.175441D+00
     14   0.391272D-01  0.000000D+00  0.000000D+00  0.000000D+00 -0.630255D-01
     15   0.000000D+00 -0.550755D-01 -0.425669D-01  0.210915D+00  0.000000D+00
     16   0.000000D+00 -0.365978D+00  0.134719D+00  0.596478D+00  0.000000D+00
               441           442           443           444           445 
      1  -0.926619D+02 -0.926241D+02 -0.926164D+02 -0.925975D+02 -0.925779D+02
      2   0.000000D+00 -0.738278D-01 -0.823623D-02  0.000000D+00 -0.132253D+00
      3   0.000000D+00 -0.222142D-01 -0.176730D-01  0.000000D+00 -0.247401D-01
      4  -0.604985D-01  0.000000D+00  0.000000D+00  0.677927D-02  0.000000D+00
      5   0.000000D+00  0.178870D+00  0.226911D-02  0.000000D+00  0.381038D+00
      6   0.000000D+00  0.492092D-01  0.732365D-01  0.000000D+00  0.732937D-01
      7   0.148527D+00  0.000000D+00  0.000000D+00 -0.537245D-01  0.000000D+00
      8  -0.720985D-01  0.000000D+00  0.000000D+00  0.316272D+00  0.000000D+00
      9   0.210141D-01  0.000000D+00  0.000000D+00 -0.900011D-01  0.000000D+00
     10   0.000000D+00  0.194256D-01 -0.922412D-01  0.000000D+00  0.246266D+00
     11   0.000000D+00 -0.623896D-01  0.158922D-01  0.000000D+00  0.176887D-01
     12   0.000000D+00 -0.426788D+00 -0.606540D+00  0.000000D+00 -0.333175D+00
     13   0.000000D+00  0.205073D+00  0.215791D+00  0.000000D+00 -0.192082D+00
     14   0.000000D+00  0.393961D-01  0.281658D+00  0.000000D+00 -0.234409D+00
     15   0.195355D+00  0.000000D+00  0.000000D+00 -0.794820D-01  0.000000D+00
     16   0.104522D+00  0.000000D+00  0.000000D+00  0.473065D+00  0.000000D+00
               446           447           448           449           450 
      1  -0.925587D+02 -0.925556D+02 -0.925463D+02 -0.925399D+02 -0.925295D+02
      2   0.000000D+00 -0.123942D-01 -0.811988D-01  0.717600D-01  0.000000D+00
      3   0.000000D+00  0.502547D-01 -0.303741D-01  0.162456D-01  0.000000D+00
      4  -0.274136D-01  0.000000D+00  0.000000D+00  0.000000D+00 -0.864676D-01
      5   0.000000D+00  0.396630D-01  0.238804D+00 -0.216452D+00  0.000000D+00
      6   0.000000D+00 -0.138494D+00  0.836396D-01 -0.410595D-01  0.000000D+00
      7   0.911357D-01  0.000000D+00  0.000000D+00  0.000000D+00  0.256836D+00
      8  -0.369714D-01  0.000000D+00  0.000000D+00  0.000000D+00 -0.421548D+00
      9   0.595742D-01  0.000000D+00  0.000000D+00  0.000000D+00  0.221868D-01
     10   0.000000D+00 -0.139539D-01  0.467972D+00 -0.455857D+00  0.000000D+00
     11   0.000000D+00 -0.671704D-01 -0.392291D+00  0.106480D+00  0.000000D+00
     12   0.000000D+00  0.313350D+00 -0.735351D-01  0.533870D+00  0.000000D+00
     13   0.000000D+00  0.589443D-01  0.220226D+00  0.912468D-01  0.000000D+00
     14   0.000000D+00  0.258005D+00 -0.384893D+00  0.564209D+00  0.000000D+00
     15   0.321496D-01  0.000000D+00  0.000000D+00  0.000000D+00 -0.114097D-01
     16   0.881686D-01  0.000000D+00  0.000000D+00  0.000000D+00 -0.233340D+00
               451           452           453           454           455 
      1  -0.925187D+02 -0.925075D+02 -0.924968D+02 -0.924714D+02 -0.924466D+02
      2  -0.512890D-02  0.164207D+00  0.000000D+00  0.000000D+00  0.000000D+00
      3  -0.395212D-02  0.885531D-02  0.000000D+00  0.000000D+00  0.000000D+00
      4   0.000000D+00  0.000000D+00 -0.468077D-01  0.130824D+00 -0.113861D-01
      5  -0.349305D-02 -0.478308D+00  0.000000D+00  0.000000D+00  0.000000D+00
      6   0.122572D-01  0.223792D-02  0.000000D+00  0.000000D+00  0.000000D+00
      7   0.000000D+00  0.000000D+00  0.129659D+00 -0.379024D+00  0.283238D-01
      8   0.000000D+00  0.000000D+00  0.340987D+00  0.177250D+00  0.463551D-01
      9   0.000000D+00  0.000000D+00  0.169688D-01 -0.119841D+00  0.895565D-03
     10  -0.748379D-01 -0.382397D+00  0.000000D+00  0.000000D+00  0.000000D+00
     11   0.130207D+00  0.280484D+00  0.000000D+00  0.000000D+00  0.000000D+00
     12   0.108737D+00 -0.628180D+00  0.000000D+00  0.000000D+00  0.000000D+00
     13  -0.141133D+00 -0.223301D+00  0.000000D+00  0.000000D+00  0.000000D+00
     14   0.106770D+00  0.232154D+00  0.000000D+00  0.000000D+00  0.000000D+00
     15   0.000000D+00  0.000000D+00 -0.185710D+00  0.576947D-01 -0.419920D-02
     16   0.000000D+00  0.000000D+00  0.195740D+00  0.249411D+00 -0.611360D-01
               456           457           458           459           460 
      1  -0.924399D+02 -0.924388D+02 -0.924333D+02 -0.924283D+02 -0.924072D+02
      2   0.000000D+00  0.134162D+00  0.000000D+00 -0.715876D-01 -0.127015D-01
      3   0.000000D+00  0.337367D-01  0.000000D+00  0.496508D-02 -0.113864D+00
      4  -0.422275D-01  0.000000D+00 -0.816059D-01  0.000000D+00  0.000000D+00
      5   0.000000D+00 -0.390476D+00  0.000000D+00  0.201236D+00  0.285861D-01
      6   0.000000D+00 -0.105794D+00  0.000000D+00  0.870390D-02  0.349086D+00
      7   0.136774D+00  0.000000D+00  0.236978D+00  0.000000D+00  0.000000D+00
      8  -0.109104D+00  0.000000D+00 -0.164130D+00  0.000000D+00  0.000000D+00
      9  -0.652932D-02  0.000000D+00  0.164294D-01  0.000000D+00  0.000000D+00
     10   0.000000D+00 -0.635269D-01  0.000000D+00  0.493307D+00 -0.210642D+00
     11   0.000000D+00  0.229434D+00  0.000000D+00 -0.598962D-01 -0.609441D-01
     12   0.000000D+00 -0.326360D-02  0.000000D+00 -0.728049D+00 -0.508483D+00
     13   0.000000D+00 -0.126987D-01  0.000000D+00 -0.786352D-01 -0.121647D-01
     14   0.000000D+00  0.131548D+00  0.000000D+00 -0.559112D+00  0.176753D+00
     15  -0.136584D+00  0.000000D+00  0.296050D-01  0.000000D+00  0.000000D+00
     16  -0.339125D+00  0.000000D+00 -0.462051D-01  0.000000D+00  0.000000D+00
               461           462           463           464           465 
      1  -0.923973D+02 -0.923727D+02 -0.923376D+02 -0.923323D+02 -0.923235D+02
      2   0.312102D-01 -0.997600D-02  0.000000D+00 -0.676948D-01 -0.298186D-01
      3   0.200390D-01  0.854405D-01  0.000000D+00  0.399049D-01  0.120773D-01
      4   0.000000D+00  0.000000D+00  0.112117D-01  0.000000D+00  0.000000D+00
      5  -0.931745D-01  0.233281D-01  0.000000D+00  0.195182D+00  0.798807D-01
      6  -0.665108D-01 -0.269096D+00  0.000000D+00 -0.113270D+00 -0.566050D-01
      7   0.000000D+00  0.000000D+00 -0.925732D-02  0.000000D+00  0.000000D+00
      8   0.000000D+00  0.000000D+00  0.202797D+00  0.000000D+00  0.000000D+00
      9   0.000000D+00  0.000000D+00 -0.170237D-01  0.000000D+00  0.000000D+00
     10  -0.236512D+00 -0.229316D+00  0.000000D+00 -0.253127D+00  0.629456D-01
     11   0.186876D+00  0.595313D-01  0.000000D+00 -0.232990D-01  0.542416D-01
     12  -0.816486D-01  0.471621D+00  0.000000D+00 -0.690492D+00  0.182902D+00
     13   0.618001D-01 -0.328912D-01  0.000000D+00 -0.984977D-01 -0.948941D-01
     14   0.276917D+00  0.431451D+00  0.000000D+00  0.525592D-01  0.299599D-01
     15   0.000000D+00  0.000000D+00 -0.130897D+00  0.000000D+00  0.000000D+00
     16   0.000000D+00  0.000000D+00 -0.853808D-01  0.000000D+00  0.000000D+00
               466           467           468           469           470 
      1  -0.923133D+02 -0.923046D+02 -0.922964D+02 -0.922756D+02 -0.922726D+02
      2   0.000000D+00  0.000000D+00 -0.131684D+00 -0.316439D-02  0.000000D+00
      3   0.000000D+00  0.000000D+00  0.189048D-01  0.839640D-01  0.000000D+00
      4  -0.736046D-01 -0.330667D-01  0.000000D+00  0.000000D+00 -0.932161D-01
      5   0.000000D+00  0.000000D+00  0.386883D+00  0.240082D-02  0.000000D+00
      6   0.000000D+00  0.000000D+00 -0.736726D-01 -0.261657D+00  0.000000D+00
      7   0.212192D+00  0.819329D-01  0.000000D+00  0.000000D+00  0.255614D+00
      8   0.240130D+00  0.477955D+00  0.000000D+00  0.000000D+00  0.103096D+00
      9   0.668904D-01 -0.162688D-01  0.000000D+00  0.000000D+00  0.126359D-01
     10   0.000000D+00  0.000000D+00  0.262011D+00 -0.172824D+00  0.000000D+00
     11   0.000000D+00  0.000000D+00 -0.132422D+00 -0.109258D+00  0.000000D+00
     12   0.000000D+00  0.000000D+00  0.927033D-02 -0.256606D+00  0.000000D+00
     13   0.000000D+00  0.000000D+00  0.164055D+00  0.113707D+00  0.000000D+00
     14   0.000000D+00  0.000000D+00 -0.410274D+00  0.367693D+00  0.000000D+00
     15   0.490563D-01  0.730571D-01  0.000000D+00  0.000000D+00 -0.397872D-01
     16   0.155021D+00  0.523923D+00  0.000000D+00  0.000000D+00 -0.572992D-01
               471           472           473           474           475 
      1  -0.922540D+02 -0.922456D+02 -0.922355D+02 -0.921824D+02 -0.921792D+02
      2   0.000000D+00 -0.265615D-01  0.239803D-01  0.314520D-01 -0.479997D-03
      3   0.000000D+00  0.769623D-01  0.135385D+00 -0.553060D-01  0.671520D-01
      4   0.387003D-01  0.000000D+00  0.000000D+00  0.000000D+00  0.000000D+00
      5   0.000000D+00  0.632907D-01 -0.726685D-01 -0.743155D-01  0.703927D-02
      6   0.000000D+00 -0.231765D+00 -0.426218D+00  0.177807D+00 -0.220163D+00
      7  -0.101494D+00  0.000000D+00  0.000000D+00  0.000000D+00  0.000000D+00
      8  -0.268581D+00  0.000000D+00  0.000000D+00  0.000000D+00  0.000000D+00
      9  -0.229692D-01  0.000000D+00  0.000000D+00  0.000000D+00  0.000000D+00
     10   0.000000D+00 -0.305851D+00  0.420026D+00  0.185267D+00  0.118581D+00
     11   0.000000D+00  0.148792D+00  0.588765D-01  0.182967D-01  0.211395D+00
     12   0.000000D+00  0.114565D+01  0.809332D+00 -0.258169D+00 -0.752766D-01
     13   0.000000D+00 -0.134547D+00 -0.984776D-01  0.496545D-01 -0.465991D-01
     14   0.000000D+00  0.271240D+00 -0.438247D+00 -0.260717D+00  0.177670D-01
     15  -0.503807D-01  0.000000D+00  0.000000D+00  0.000000D+00  0.000000D+00
     16  -0.277693D+00  0.000000D+00  0.000000D+00  0.000000D+00  0.000000D+00
               476           477           478           479           480 
      1  -0.921770D+02 -0.921442D+02 -0.920962D+02 -0.920875D+02 -0.920687D+02
      2   0.000000D+00  0.237309D-01 -0.373339D-01  0.000000D+00  0.000000D+00
      3   0.000000D+00  0.261215D-01 -0.348930D-02  0.000000D+00  0.000000D+00
      4   0.249141D-01  0.000000D+00  0.000000D+00 -0.893026D-01 -0.444721D-01
      5   0.000000D+00 -0.534892D-01  0.956985D-01  0.000000D+00  0.000000D+00
      6   0.000000D+00 -0.619685D-01  0.256089D-01  0.000000D+00  0.000000D+00
      7  -0.539435D-01  0.000000D+00  0.000000D+00  0.281957D+00  0.132063D+00
      8  -0.143381D+00  0.000000D+00  0.000000D+00 -0.199614D+00  0.146494D+00
      9   0.256354D-01  0.000000D+00  0.000000D+00  0.123687D-01  0.176971D-01
     10   0.000000D+00  0.206038D+00 -0.172574D+00  0.000000D+00  0.000000D+00
     11   0.000000D+00  0.763890D-01 -0.817106D-01  0.000000D+00  0.000000D+00
     12   0.000000D+00 -0.917110D+00 -0.211870D+00  0.000000D+00  0.000000D+00
     13   0.000000D+00  0.863469D-01  0.811041D-01  0.000000D+00  0.000000D+00
     14   0.000000D+00 -0.889623D-01  0.144960D+00  0.000000D+00  0.000000D+00
     15   0.239863D-01  0.000000D+00  0.000000D+00 -0.104831D+00  0.114868D+00
     16  -0.260825D+00  0.000000D+00  0.000000D+00 -0.172410D+00  0.775561D-01
               481           482           483           484           485 
      1  -0.920461D+02 -0.920402D+02 -0.920203D+02 -0.920165D+02 -0.920130D+02
      2  -0.638978D-01  0.000000D+00 -0.500135D-01  0.273886D-01  0.000000D+00
      3  -0.139237D+00  0.000000D+00 -0.330286D-01  0.559849D-01  0.000000D+00
      4   0.000000D+00 -0.506676D-01  0.000000D+00  0.000000D+00  0.119159D+00
      5   0.197512D+00  0.000000D+00  0.142844D+00 -0.783218D-01  0.000000D+00
      6   0.491146D+00  0.000000D+00  0.110755D+00 -0.206562D+00  0.000000D+00
      7   0.000000D+00  0.139760D+00  0.000000D+00  0.000000D+00 -0.381266D+00
      8   0.000000D+00  0.250809D+00  0.000000D+00  0.000000D+00  0.439780D+00
      9   0.000000D+00  0.116206D-01  0.000000D+00  0.000000D+00 -0.522099D-02
     10   0.251709D+00  0.000000D+00 -0.259386D+00 -0.174322D+00  0.000000D+00
     11  -0.742896D-01  0.000000D+00 -0.628156D-01 -0.125744D+00  0.000000D+00
     12  -0.104185D+01  0.000000D+00 -0.349257D+00  0.297397D+00  0.000000D+00
     13  -0.215681D-01  0.000000D+00  0.840577D-01  0.177595D+00  0.000000D+00
     14  -0.378169D+00  0.000000D+00  0.209952D+00  0.318478D+00  0.000000D+00
     15   0.000000D+00  0.112182D+00  0.000000D+00  0.000000D+00  0.231680D-01
     16   0.000000D+00  0.180694D+00  0.000000D+00  0.000000D+00  0.227965D+00
               486           487           488           489           490 
      1  -0.919746D+02 -0.919480D+02 -0.918386D+02 -0.918184D+02 -0.918072D+02
      2   0.000000D+00  0.627130D-01  0.863113D-01  0.000000D+00  0.000000D+00
      3   0.000000D+00  0.335691D-01 -0.582456D-01  0.000000D+00  0.000000D+00
      4  -0.103255D+00  0.000000D+00  0.000000D+00  0.106408D+00 -0.154407D-01
      5   0.000000D+00 -0.206997D+00 -0.306432D+00  0.000000D+00  0.000000D+00
      6   0.000000D+00 -0.759704D-01  0.197611D+00  0.000000D+00  0.000000D+00
      7   0.330770D+00  0.000000D+00  0.000000D+00 -0.366637D+00  0.316517D-01
      8  -0.623751D+00  0.000000D+00  0.000000D+00  0.366723D+00  0.305426D+00
      9   0.158347D-01  0.000000D+00  0.000000D+00 -0.301126D-01  0.202025D-02
     10   0.000000D+00 -0.225792D+00 -0.383200D+00  0.000000D+00  0.000000D+00
     11   0.000000D+00 -0.119823D+00  0.102436D+00  0.000000D+00  0.000000D+00
     12   0.000000D+00 -0.251291D-01 -0.535164D+00  0.000000D+00  0.000000D+00
     13   0.000000D+00  0.778151D-01  0.810453D-01  0.000000D+00  0.000000D+00
     14   0.000000D+00  0.189750D+00  0.216527D+00  0.000000D+00  0.000000D+00
     15  -0.201912D+00  0.000000D+00  0.000000D+00  0.181165D+00  0.136182D+00
     16  -0.667619D+00  0.000000D+00  0.000000D+00  0.392445D+00  0.293540D+00
               491           492           493           494           495 
      1  -0.917996D+02 -0.917859D+02 -0.917649D+02 -0.917308D+02 -0.916078D+02
      2  -0.351122D-01  0.304641D-02  0.000000D+00  0.848080D-01 -0.492437D-01
      3   0.722497D-02 -0.256621D-02  0.000000D+00 -0.536776D-01  0.421991D-01
      4   0.000000D+00  0.000000D+00 -0.762921D-01  0.000000D+00  0.000000D+00
      5   0.105177D+00 -0.185303D-01  0.000000D+00 -0.295156D+00  0.165036D+00
      6  -0.207052D-01  0.318920D-01  0.000000D+00  0.202499D+00 -0.947035D-01
      7   0.000000D+00  0.000000D+00  0.258992D+00  0.000000D+00  0.000000D+00
      8   0.000000D+00  0.000000D+00 -0.431391D+00  0.000000D+00  0.000000D+00
      9   0.000000D+00  0.000000D+00 -0.455024D-02  0.000000D+00  0.000000D+00
     10  -0.203850D+00  0.230152D-01  0.000000D+00 -0.464551D+00  0.187010D+00
     11  -0.123126D+00  0.906676D-01  0.000000D+00  0.167201D+00 -0.153986D-02
     12  -0.220971D+00 -0.103215D+01  0.000000D+00 -0.699839D+00  0.148960D+00
     13   0.130831D+00  0.159759D-01  0.000000D+00  0.463258D-01 -0.852611D-01
     14   0.132774D+00 -0.950467D-01  0.000000D+00  0.380048D+00 -0.802550D-01
     15   0.000000D+00  0.000000D+00 -0.932016D-01  0.000000D+00  0.000000D+00
     16   0.000000D+00  0.000000D+00 -0.452339D+00  0.000000D+00  0.000000D+00
               496           497 
      1  -0.915453D+02 -0.913708D+02
      2   0.000000D+00  0.000000D+00
      3   0.000000D+00  0.000000D+00
      4  -0.542102D-03  0.679640D-01
      5   0.000000D+00  0.000000D+00
      6   0.000000D+00  0.000000D+00
      7  -0.848050D-03 -0.227895D+00
      8  -0.602592D-01  0.266444D+00
      9  -0.355067D-02 -0.861058D-02
     10   0.000000D+00  0.000000D+00
     11   0.000000D+00  0.000000D+00
     12   0.000000D+00  0.000000D+00
     13   0.000000D+00  0.000000D+00
     14   0.000000D+00  0.000000D+00
     15  -0.446215D-01  0.167382D+00
     16   0.767441D-02  0.212726D+00
 Unable to Open any file for archive entry.
 1\1\GINC-HEL10\SP\RCAM-B3LYP TD-FC\Gen\C1H5N1\SABYASACHI\21-Mar-2022\0
 \\#P TD(Nstates=10000) cam-b3lyp/Gen SCF(maxcycles=100) Int(Grid=ultra
 fine)\\xGDB7_00001_tier4.com\\0,1\C,0,-0.049078,0.702042,0.\N,0,-0.049
 078,-0.754243,0.\H,0,0.946109,1.166603,0.\H,0,-0.587574,1.062597,0.877
 77\H,0,-0.587574,1.062597,-0.87777\H,0,0.433525,-1.112175,0.812504\H,0
 ,0.433525,-1.112175,-0.812504\\Version=EM64L-G16RevC.01\State=1-A'\HF=
 -95.7424599\RMSD=1.177e-09\PG=CS [SG(C1H1N1),X(H4)]\\@
 The archive entry for this job was punched.


 HERE WE GO......
 SLIDING DOWN THE RAZOR BLADE OF LIFE......
                                 TOM LEHRER
 Job cpu time:       0 days  0 hours  3 minutes 11.7 seconds.
 Elapsed time:       0 days  0 hours  0 minutes 24.2 seconds.
 File lengths (MBytes):  RWF=    322 Int=      0 D2E=      0 Chk=     78 Scr=      1
 Normal termination of Gaussian 16 at Mon Mar 21 20:21:32 2022.
