 Entering Gaussian System, Link 0=g16
 Input=000019.com
 Output=000019.log
 Initial command:
 /home/sabyasachi/g16/l1.exe "/scratch/sabyasachi/PBS_7976285.helios/Gau-158066.inp" -scrdir="/scratch/sabyasachi/PBS_7976285.helios/"
 Entering Link 1 = /home/sabyasachi/g16/l1.exe PID=    158067.
  
 Copyright (c) 1988-2019, Gaussian, Inc.  All Rights Reserved.
  
 This is part of the Gaussian(R) 16 program.  It is based on
 the Gaussian(R) 09 system (copyright 2009, Gaussian, Inc.),
 the Gaussian(R) 03 system (copyright 2003, Gaussian, Inc.),
 the Gaussian(R) 98 system (copyright 1998, Gaussian, Inc.),
 the Gaussian(R) 94 system (copyright 1995, Gaussian, Inc.),
 the Gaussian 92(TM) system (copyright 1992, Gaussian, Inc.),
 the Gaussian 90(TM) system (copyright 1990, Gaussian, Inc.),
 the Gaussian 88(TM) system (copyright 1988, Gaussian, Inc.),
 the Gaussian 86(TM) system (copyright 1986, Carnegie Mellon
 University), and the Gaussian 82(TM) system (copyright 1983,
 Carnegie Mellon University). Gaussian is a federally registered
 trademark of Gaussian, Inc.
  
 This software contains proprietary and confidential information,
 including trade secrets, belonging to Gaussian, Inc.
  
 This software is provided under written license and may be
 used, copied, transmitted, or stored only in accord with that
 written license.
  
 The following legend is applicable only to US Government
 contracts under FAR:
  
                    RESTRICTED RIGHTS LEGEND
  
 Use, reproduction and disclosure by the US Government is
 subject to restrictions as set forth in subparagraphs (a)
 and (c) of the Commercial Computer Software - Restricted
 Rights clause in FAR 52.227-19.
  
 Gaussian, Inc.
 340 Quinnipiac St., Bldg. 40, Wallingford CT 06492
  
  
 ---------------------------------------------------------------
 Warning -- This program may not be used in any manner that
 competes with the business of Gaussian, Inc. or will provide
 assistance to any competitor of Gaussian, Inc.  The licensee
 of this program is prohibited from giving any competitor of
 Gaussian, Inc. access to this program.  By using this program,
 the user acknowledges that Gaussian, Inc. is engaged in the
 business of creating and licensing software in the field of
 computational chemistry and represents and warrants to the
 licensee that it is not a competitor of Gaussian, Inc. and that
 it will not use this program in any manner prohibited above.
 ---------------------------------------------------------------
  

 Cite this work as:
 Gaussian 16, Revision C.01,
 M. J. Frisch, G. W. Trucks, H. B. Schlegel, G. E. Scuseria, 
 M. A. Robb, J. R. Cheeseman, G. Scalmani, V. Barone, 
 G. A. Petersson, H. Nakatsuji, X. Li, M. Caricato, A. V. Marenich, 
 J. Bloino, B. G. Janesko, R. Gomperts, B. Mennucci, H. P. Hratchian, 
 J. V. Ortiz, A. F. Izmaylov, J. L. Sonnenberg, D. Williams-Young, 
 F. Ding, F. Lipparini, F. Egidi, J. Goings, B. Peng, A. Petrone, 
 T. Henderson, D. Ranasinghe, V. G. Zakrzewski, J. Gao, N. Rega, 
 G. Zheng, W. Liang, M. Hada, M. Ehara, K. Toyota, R. Fukuda, 
 J. Hasegawa, M. Ishida, T. Nakajima, Y. Honda, O. Kitao, H. Nakai, 
 T. Vreven, K. Throssell, J. A. Montgomery, Jr., J. E. Peralta, 
 F. Ogliaro, M. J. Bearpark, J. J. Heyd, E. N. Brothers, K. N. Kudin, 
 V. N. Staroverov, T. A. Keith, R. Kobayashi, J. Normand, 
 K. Raghavachari, A. P. Rendell, J. C. Burant, S. S. Iyengar, 
 J. Tomasi, M. Cossi, J. M. Millam, M. Klene, C. Adamo, R. Cammi, 
 J. W. Ochterski, R. L. Martin, K. Morokuma, O. Farkas, 
 J. B. Foresman, and D. J. Fox, Gaussian, Inc., Wallingford CT, 2019.
 
 ******************************************
 Gaussian 16:  EM64L-G16RevC.01  3-Jul-2019
                21-Mar-2022 
 ******************************************
 %mem=64gb
 %nproc=8
 Will use up to    8 processors via shared memory.
 ----------------------------------------------------------------------
 #P TD(Nstates=10000) cam-b3lyp/Gen SCF(maxcycles=100) Int(Grid=ultrafi
 ne)
 ----------------------------------------------------------------------
 1/38=1,172=1/1;
 2/12=2,17=6,18=5,40=1/2;
 3/5=7,11=9,25=1,30=1,74=-40,75=-5/1,2,3,8;
 4//1;
 5/5=2,7=100,38=5/2;
 8/6=1,10=1,108=10000/1;
 9/41=10000,42=1,70=2/14;
 6/7=2,8=2,9=2,10=2/1;
 99/5=1,9=1/99;
 Leave Link    1 at Mon Mar 21 20:21:30 2022, MaxMem=  8589934592 cpu:               0.4 elap:               0.1
 (Enter /home/sabyasachi/g16/l101.exe)
 ---------------------
 xGDB7_00001_tier4.com
 ---------------------
 Symbolic Z-matrix:
 Charge =  0 Multiplicity = 1
 6                    -0.02666  -0.22092   1.20692 
 7                    -0.02666   0.57968   0. 
 6                    -0.02666  -0.22092  -1.20692 
 1                     0.02893   0.4272    2.08233 
 1                     0.80084  -0.94738   1.25857 
 1                    -0.96172  -0.78309   1.26937 
 1                     0.77036   1.19991   0. 
 1                    -0.96172  -0.78309  -1.26937 
 1                     0.80084  -0.94738  -1.25857 
 1                     0.02893   0.4272   -2.08233 
 
 ITRead=  0  0  0  0  0  0  0  0  0  0
 MicOpt= -1 -1 -1 -1 -1 -1 -1 -1 -1 -1
 NAtoms=     10 NQM=       10 NQMF=       0 NMMI=      0 NMMIF=      0
                NMic=       0 NMicF=      0.
                    Isotopes and Nuclear Properties:
 (Nuclear quadrupole moments (NQMom) in fm**2, nuclear magnetic moments (NMagM)
  in nuclear magnetons)

  Atom         1           2           3           4           5           6           7           8           9          10
 IAtWgt=          12          14          12           1           1           1           1           1           1           1
 AtmWgt=  12.0000000  14.0030740  12.0000000   1.0078250   1.0078250   1.0078250   1.0078250   1.0078250   1.0078250   1.0078250
 NucSpn=           0           2           0           1           1           1           1           1           1           1
 AtZEff=  -0.0000000  -0.0000000  -0.0000000  -0.0000000  -0.0000000  -0.0000000  -0.0000000  -0.0000000  -0.0000000  -0.0000000
 NQMom=    0.0000000   2.0440000   0.0000000   0.0000000   0.0000000   0.0000000   0.0000000   0.0000000   0.0000000   0.0000000
 NMagM=    0.0000000   0.4037610   0.0000000   2.7928460   2.7928460   2.7928460   2.7928460   2.7928460   2.7928460   2.7928460
 AtZNuc=   6.0000000   7.0000000   6.0000000   1.0000000   1.0000000   1.0000000   1.0000000   1.0000000   1.0000000   1.0000000
 Leave Link  101 at Mon Mar 21 20:21:30 2022, MaxMem=  8589934592 cpu:               0.6 elap:               0.1
 (Enter /home/sabyasachi/g16/l202.exe)
                          Input orientation:                          
 ---------------------------------------------------------------------
 Center     Atomic      Atomic             Coordinates (Angstroms)
 Number     Number       Type             X           Y           Z
 ---------------------------------------------------------------------
      1          6           0       -0.026655   -0.220923    1.206915
      2          7           0       -0.026655    0.579675    0.000000
      3          6           0       -0.026655   -0.220923   -1.206915
      4          1           0        0.028929    0.427196    2.082330
      5          1           0        0.800836   -0.947383    1.258571
      6          1           0       -0.961718   -0.783094    1.269367
      7          1           0        0.770359    1.199905    0.000000
      8          1           0       -0.961718   -0.783094   -1.269367
      9          1           0        0.800836   -0.947383   -1.258571
     10          1           0        0.028929    0.427196   -2.082330
 ---------------------------------------------------------------------
                    Distance matrix (angstroms):
                    1          2          3          4          5
     1  C    0.000000
     2  N    1.448310   0.000000
     3  C    2.413830   1.448310   0.000000
     4  H    1.090642   2.088645   3.352951   0.000000
     5  H    1.102340   2.144912   2.700205   1.778732   0.000000
     6  H    1.092831   2.083933   2.705984   1.762695   1.770227
     7  H    2.027468   1.009909   2.027468   2.341558   2.489131
     8  H    2.705984   2.083933   1.092831   3.698656   3.086107
     9  H    2.700205   2.144912   1.102340   3.694175   2.517142
    10  H    3.352951   2.088645   1.090642   4.164660   3.694175
                    6          7          8          9         10
     6  H    0.000000
     7  H    2.922955   0.000000
     8  H    2.538734   2.922955   0.000000
     9  H    3.086107   2.489131   1.770227   0.000000
    10  H    3.698656   2.341558   1.762695   1.778732   0.000000
 Stoichiometry    C2H7N
 Framework group  CS[SG(HN),X(C2H6)]
 Deg. of freedom    13
 Full point group                 CS      NOp   2
 Largest Abelian subgroup         CS      NOp   2
 Largest concise Abelian subgroup CS      NOp   2
                         Standard orientation:                         
 ---------------------------------------------------------------------
 Center     Atomic      Atomic             Coordinates (Angstroms)
 Number     Number       Type             X           Y           Z
 ---------------------------------------------------------------------
      1          6           0       -0.026655   -0.220923    1.206915
      2          7           0       -0.026655    0.579675   -0.000000
      3          6           0       -0.026655   -0.220923   -1.206915
      4          1           0        0.028929    0.427196    2.082330
      5          1           0        0.800836   -0.947383    1.258571
      6          1           0       -0.961718   -0.783094    1.269367
      7          1           0        0.770359    1.199905   -0.000000
      8          1           0       -0.961718   -0.783094   -1.269367
      9          1           0        0.800836   -0.947383   -1.258571
     10          1           0        0.028929    0.427196   -2.082330
 ---------------------------------------------------------------------
 Rotational constants (GHZ):          34.9124078           9.3924968           8.2918128
 Leave Link  202 at Mon Mar 21 20:21:30 2022, MaxMem=  8589934592 cpu:               0.1 elap:               0.0
 (Enter /home/sabyasachi/g16/l301.exe)
 General basis read from cards:  (5D, 7F)
 Centers:       4      5      6      7      8      9     10
 S 3 1.00
     Exponent=  1.3010701000D+01 Coefficients=  1.9682158000D-02
     Exponent=  1.9622572000D+00 Coefficients=  1.3796524000D-01
     Exponent=  4.4453796000D-01 Coefficients=  4.7831935000D-01
 S 1 1.00
     Exponent=  1.2194962000D-01 Coefficients=  1.0000000000D+00
 P 1 1.00
     Exponent=  8.0000000000D-01 Coefficients=  1.0000000000D+00
 P 1 1.00
     Exponent=  1.1704099050D-01 Coefficients=  1.0000000000D+00
 ****
 Centers:       1      3
 S 5 1.00
     Exponent=  1.2384016938D+03 Coefficients=  5.4568832082D-03
     Exponent=  1.8629004992D+02 Coefficients=  4.0638409211D-02
     Exponent=  4.2251176346D+01 Coefficients=  1.8025593888D-01
     Exponent=  1.1676557932D+01 Coefficients=  4.6315121755D-01
     Exponent=  3.5930506482D+00 Coefficients=  4.4087173314D-01
 S 1 1.00
     Exponent=  4.0245147363D-01 Coefficients=  1.0000000000D+00
 S 1 1.00
     Exponent=  1.3090182668D-01 Coefficients=  1.0000000000D+00
 S 1 1.00
     Exponent=  6.7053540256D-02 Coefficients=  1.0000000000D+00
 P 3 1.00
     Exponent=  9.4680970621D+00 Coefficients=  3.8387871728D-02
     Exponent=  2.0103545142D+00 Coefficients=  2.1117025112D-01
     Exponent=  5.4771004707D-01 Coefficients=  5.1328172114D-01
 P 1 1.00
     Exponent=  1.5268613795D-01 Coefficients=  1.0000000000D+00
 D 1 1.00
     Exponent=  8.0000000000D-01 Coefficients=  1.0000000000D+00
 D 1 1.00
     Exponent=  1.1713185140D-01 Coefficients=  1.0000000000D+00
 ****
 Centers:       2
 S 5 1.00
     Exponent=  1.7128415853D+03 Coefficients= -5.3934125305D-03
     Exponent=  2.5764812677D+02 Coefficients= -4.0221581118D-02
     Exponent=  5.8458245853D+01 Coefficients= -1.7931144990D-01
     Exponent=  1.6198367905D+01 Coefficients= -4.6376317823D-01
     Exponent=  5.0052600809D+00 Coefficients= -4.4171422662D-01
 S 1 1.00
     Exponent=  5.8731856571D-01 Coefficients=  1.0000000000D+00
 S 1 1.00
     Exponent=  1.8764592253D-01 Coefficients=  1.0000000000D+00
 S 1 1.00
     Exponent=  9.6171241529D-02 Coefficients=  1.0000000000D+00
 P 3 1.00
     Exponent=  1.3571470233D+01 Coefficients= -4.0072398852D-02
     Exponent=  2.9257372874D+00 Coefficients= -2.1807045028D-01
     Exponent=  7.9927750754D-01 Coefficients= -5.1294466049D-01
 P 1 1.00
     Exponent=  2.1954348034D-01 Coefficients=  1.0000000000D+00
 D 1 1.00
     Exponent=  1.0000000000D+00 Coefficients=  1.0000000000D+00
 D 1 1.00
     Exponent=  1.6697708112D-01 Coefficients=  1.0000000000D+00
 ****
 Ernie: Thresh=  0.10000D-02 Tol=  0.10000D-05 Strict=F.
 There are    68 symmetry adapted cartesian basis functions of A'  symmetry.
 There are    54 symmetry adapted cartesian basis functions of A"  symmetry.
 There are    64 symmetry adapted basis functions of A'  symmetry.
 There are    52 symmetry adapted basis functions of A"  symmetry.
   116 basis functions,   166 primitive gaussians,   122 cartesian basis functions
    13 alpha electrons       13 beta electrons
       nuclear repulsion energy        84.4195862032 Hartrees.
 IExCor=20419 DFT=T Ex+Corr=CAM-B3LYP ExCW=0 ScaHFX=  1.000000
 ScaDFX=  1.000000  1.000000  1.000000  0.810000 ScalE2=  1.000000  1.000000
 IRadAn=      5 IRanWt=     -1 IRanGd=            0 ICorTp=0 IEmpDi=  4
 HFx  wShort=  0.000000 wLong=  0.330000 cFull=  0.190000 cShort=  0.000000 cLong=  0.460000
 DFx  wShort=  0.000000 wLong=  0.330000 cFull=  0.190000 cShort=  0.000000 cLong=  0.460000
 NAtoms=   10 NActive=   10 NUniq=    6 SFac= 2.78D+00 NAtFMM=   60 NAOKFM=F Big=F
 Integral buffers will be    131072 words long.
 Raffenetti 1 integral format.
 Two-electron integral symmetry is turned on.
 Leave Link  301 at Mon Mar 21 20:21:30 2022, MaxMem=  8589934592 cpu:               0.5 elap:               0.1
 (Enter /home/sabyasachi/g16/l302.exe)
 NPDir=0 NMtPBC=     1 NCelOv=     1 NCel=       1 NClECP=     1 NCelD=      1
         NCelK=      1 NCelE2=     1 NClLst=     1 CellRange=     0.0.
 One-electron integrals computed using PRISM.
 One-electron integral symmetry used in STVInt
 NBasis=   116 RedAO= T EigKep=  3.71D-04  NBF=    64    52
 NBsUse=   116 1.00D-06 EigRej= -1.00D+00 NBFU=    64    52
 Precomputing XC quadrature grid using
 IXCGrd= 4 IRadAn=           5 IRanWt=          -1 IRanGd=           0 AccXCQ= 0.00D+00.
 Generated NRdTot=       0 NPtTot=           0 NUsed=           0 NTot=          32
 NSgBfM=   122   122   122   122   122 MxSgAt=    10 MxSgA2=    10.
 Leave Link  302 at Mon Mar 21 20:21:31 2022, MaxMem=  8589934592 cpu:               1.1 elap:               0.2
 (Enter /home/sabyasachi/g16/l303.exe)
 DipDrv:  MaxL=1.
 Leave Link  303 at Mon Mar 21 20:21:31 2022, MaxMem=  8589934592 cpu:               0.2 elap:               0.0
 (Enter /home/sabyasachi/g16/l308.exe)
 Leave Link  308 at Mon Mar 21 20:21:31 2022, MaxMem=  8589934592 cpu:               0.2 elap:               0.0
 (Enter /home/sabyasachi/g16/l401.exe)
 ExpMin= 6.71D-02 ExpMax= 1.71D+03 ExpMxC= 2.58D+02 IAcc=3 IRadAn=         5 AccDes= 0.00D+00
 Harris functional with IExCor=20419 and IRadAn=       5 diagonalized for initial guess.
 HarFok:  IExCor=20419 AccDes= 0.00D+00 IRadAn=         5 IDoV= 1 UseB2=F ITyADJ=14
 ICtDFT=  3500011 ScaDFX=  1.000000  1.000000  1.000000  1.000000
 FoFCou: FMM=F IPFlag=           0 FMFlag=      100000 FMFlg1=           0
         NFxFlg=           0 DoJE=T BraDBF=F KetDBF=T FulRan=T
         wScrn=  0.000000 ICntrl=       500 IOpCl=  0 I1Cent=   200000004 NGrid=           0
         NMat0=    1 NMatS0=      1 NMatT0=    0 NMatD0=    1 NMtDS0=    0 NMtDT0=    0
 Petite list used in FoFCou.
 Harris En= -129.234502638450    
 JPrj=0 DoOrth=F DoCkMO=F.
 Initial guess orbital symmetries:
       Occupied  (A') (A") (A') (A') (A") (A') (A') (A') (A") (A")
                 (A") (A') (A')
       Virtual   (A') (A") (A') (A') (A') (A") (A') (A") (A') (A")
                 (A') (A") (A") (A') (A') (A") (A') (A') (A') (A")
                 (A') (A") (A') (A') (A') (A") (A") (A') (A") (A")
                 (A") (A') (A') (A') (A") (A') (A") (A') (A") (A')
                 (A") (A") (A") (A') (A") (A') (A') (A") (A') (A')
                 (A") (A') (A") (A') (A') (A") (A") (A') (A') (A")
                 (A") (A') (A") (A') (A') (A") (A") (A') (A') (A")
                 (A') (A') (A") (A') (A") (A") (A') (A') (A") (A")
                 (A') (A') (A") (A') (A") (A') (A") (A') (A") (A')
                 (A") (A') (A') (A") (A') (A") (A') (A') (A") (A")
                 (A') (A") (A')
 The electronic state of the initial guess is 1-A'.
 Leave Link  401 at Mon Mar 21 20:21:31 2022, MaxMem=  8589934592 cpu:               2.5 elap:               0.3
 (Enter /home/sabyasachi/g16/l502.exe)
 Keep R1 ints in memory in symmetry-blocked form, NReq=69112705.
 FoFCou: FMM=F IPFlag=           0 FMFlag=           0 FMFlg1=           0
         NFxFlg=           0 DoJE=F BraDBF=F KetDBF=F FulRan=T
         wScrn=  0.000000 ICntrl=       600 IOpCl=  0 I1Cent=           0 NGrid=           0
         NMat0=    1 NMatS0=   6786 NMatT0=    0 NMatD0=    1 NMtDS0=    0 NMtDT0=    0
 Petite list used in FoFCou.
 Closed shell SCF:
 Using DIIS extrapolation, IDIIS=  1040.
 NGot=  8589934592 LenX=  8578367329 LenY=  8578352004
 Requested convergence on RMS density matrix=1.00D-08 within 100 cycles.
 Requested convergence on MAX density matrix=1.00D-06.
 Requested convergence on             energy=1.00D-06.
 No special actions if energy rises.
 Integral accuracy reduced to 1.0D-05 until final iterations.

 Cycle   1  Pass 0  IDiag  1:
 E= -134.971154156116    
 DIIS: error= 2.30D-02 at cycle   1 NSaved=   1.
 NSaved= 1 IEnMin= 1 EnMin= -134.971154156116     IErMin= 1 ErrMin= 2.30D-02
 ErrMax= 2.30D-02  0.00D+00 EMaxC= 1.00D-01 BMatC= 5.41D-02 BMatP= 5.41D-02
 IDIUse=3 WtCom= 7.70D-01 WtEn= 2.30D-01
 Coeff-Com:  0.100D+01
 Coeff-En:   0.100D+01
 Coeff:      0.100D+01
 Gap=     0.351 Goal=   None    Shift=    0.000
 GapD=    0.351 DampG=1.000 DampE=0.500 DampFc=0.5000 IDamp=-1.
 Damping current iteration by 5.00D-01
 RMSDP=3.61D-03 MaxDP=9.34D-02              OVMax= 4.91D-02

 Cycle   2  Pass 0  IDiag  1:
 E= -134.983909321950     Delta-E=       -0.012755165834 Rises=F Damp=T
 DIIS: error= 1.29D-02 at cycle   2 NSaved=   2.
 NSaved= 2 IEnMin= 2 EnMin= -134.983909321950     IErMin= 2 ErrMin= 1.29D-02
 ErrMax= 1.29D-02  0.00D+00 EMaxC= 1.00D-01 BMatC= 1.10D-02 BMatP= 5.41D-02
 IDIUse=3 WtCom= 8.71D-01 WtEn= 1.29D-01
 Coeff-Com: -0.464D+00 0.146D+01
 Coeff-En:   0.000D+00 0.100D+01
 Coeff:     -0.404D+00 0.140D+01
 Gap=     0.334 Goal=   None    Shift=    0.000
 RMSDP=1.79D-03 MaxDP=5.00D-02 DE=-1.28D-02 OVMax= 2.94D-02

 Cycle   3  Pass 0  IDiag  1:
 E= -134.994769953926     Delta-E=       -0.010860631976 Rises=F Damp=F
 DIIS: error= 3.56D-03 at cycle   3 NSaved=   3.
 NSaved= 3 IEnMin= 3 EnMin= -134.994769953926     IErMin= 3 ErrMin= 3.56D-03
 ErrMax= 3.56D-03  0.00D+00 EMaxC= 1.00D-01 BMatC= 2.04D-03 BMatP= 1.10D-02
 IDIUse=3 WtCom= 9.64D-01 WtEn= 3.56D-02
 Coeff-Com: -0.279D+00 0.567D+00 0.712D+00
 Coeff-En:   0.000D+00 0.000D+00 0.100D+01
 Coeff:     -0.269D+00 0.547D+00 0.722D+00
 Gap=     0.345 Goal=   None    Shift=    0.000
 RMSDP=9.36D-04 MaxDP=6.48D-02 DE=-1.09D-02 OVMax= 1.21D-02

 Cycle   4  Pass 0  IDiag  1:
 E= -134.996418304085     Delta-E=       -0.001648350159 Rises=F Damp=F
 DIIS: error= 8.34D-04 at cycle   4 NSaved=   4.
 NSaved= 4 IEnMin= 4 EnMin= -134.996418304085     IErMin= 4 ErrMin= 8.34D-04
 ErrMax= 8.34D-04  0.00D+00 EMaxC= 1.00D-01 BMatC= 1.05D-04 BMatP= 2.04D-03
 IDIUse=3 WtCom= 9.92D-01 WtEn= 8.34D-03
 Coeff-Com: -0.111D+00 0.219D+00 0.338D+00 0.553D+00
 Coeff-En:   0.000D+00 0.000D+00 0.000D+00 0.100D+01
 Coeff:     -0.110D+00 0.218D+00 0.335D+00 0.557D+00
 Gap=     0.340 Goal=   None    Shift=    0.000
 RMSDP=1.63D-04 MaxDP=1.05D-02 DE=-1.65D-03 OVMax= 2.82D-03

 Cycle   5  Pass 0  IDiag  1:
 E= -134.996506865905     Delta-E=       -0.000088561819 Rises=F Damp=F
 DIIS: error= 1.55D-04 at cycle   5 NSaved=   5.
 NSaved= 5 IEnMin= 5 EnMin= -134.996506865905     IErMin= 5 ErrMin= 1.55D-04
 ErrMax= 1.55D-04  0.00D+00 EMaxC= 1.00D-01 BMatC= 2.27D-06 BMatP= 1.05D-04
 IDIUse=3 WtCom= 9.98D-01 WtEn= 1.55D-03
 Coeff-Com: -0.998D-02 0.179D-01 0.467D-01 0.148D+00 0.798D+00
 Coeff-En:   0.000D+00 0.000D+00 0.000D+00 0.000D+00 0.100D+01
 Coeff:     -0.997D-02 0.179D-01 0.466D-01 0.147D+00 0.798D+00
 Gap=     0.341 Goal=   None    Shift=    0.000
 RMSDP=4.36D-05 MaxDP=2.29D-03 DE=-8.86D-05 OVMax= 6.60D-04

 Cycle   6  Pass 0  IDiag  1:
 E= -134.996509367971     Delta-E=       -0.000002502067 Rises=F Damp=F
 DIIS: error= 3.00D-05 at cycle   6 NSaved=   6.
 NSaved= 6 IEnMin= 6 EnMin= -134.996509367971     IErMin= 6 ErrMin= 3.00D-05
 ErrMax= 3.00D-05  0.00D+00 EMaxC= 1.00D-01 BMatC= 1.25D-07 BMatP= 2.27D-06
 IDIUse=1 WtCom= 1.00D+00 WtEn= 0.00D+00
 Coeff-Com:  0.889D-02-0.178D-01-0.223D-01-0.331D-01 0.118D+00 0.946D+00
 Coeff:      0.889D-02-0.178D-01-0.223D-01-0.331D-01 0.118D+00 0.946D+00
 Gap=     0.341 Goal=   None    Shift=    0.000
 RMSDP=2.08D-05 MaxDP=1.35D-03 DE=-2.50D-06 OVMax= 2.36D-04

 Cycle   7  Pass 0  IDiag  1:
 E= -134.996509557036     Delta-E=       -0.000000189065 Rises=F Damp=F
 DIIS: error= 2.89D-06 at cycle   7 NSaved=   7.
 NSaved= 7 IEnMin= 7 EnMin= -134.996509557036     IErMin= 7 ErrMin= 2.89D-06
 ErrMax= 2.89D-06  0.00D+00 EMaxC= 1.00D-01 BMatC= 1.61D-09 BMatP= 1.25D-07
 IDIUse=1 WtCom= 1.00D+00 WtEn= 0.00D+00
 Coeff-Com:  0.621D-03-0.120D-02-0.194D-02-0.487D-02-0.145D-01 0.601D-01
 Coeff-Com:  0.962D+00
 Coeff:      0.621D-03-0.120D-02-0.194D-02-0.487D-02-0.145D-01 0.601D-01
 Coeff:      0.962D+00
 Gap=     0.341 Goal=   None    Shift=    0.000
 RMSDP=3.23D-06 MaxDP=1.67D-04 DE=-1.89D-07 OVMax= 6.18D-05

 Initial convergence to 1.0D-05 achieved.  Increase integral accuracy.
 Cycle   8  Pass 1  IDiag  1:
 E= -134.996511183275     Delta-E=       -0.000001626238 Rises=F Damp=F
 DIIS: error= 1.49D-06 at cycle   1 NSaved=   1.
 NSaved= 1 IEnMin= 1 EnMin= -134.996511183275     IErMin= 1 ErrMin= 1.49D-06
 ErrMax= 1.49D-06  0.00D+00 EMaxC= 1.00D-01 BMatC= 3.25D-10 BMatP= 3.25D-10
 IDIUse=1 WtCom= 1.00D+00 WtEn= 0.00D+00
 Coeff-Com:  0.100D+01
 Coeff:      0.100D+01
 Gap=     0.341 Goal=   None    Shift=    0.000
 RMSDP=3.23D-06 MaxDP=1.67D-04 DE=-1.63D-06 OVMax= 1.98D-05

 Cycle   9  Pass 1  IDiag  1:
 E= -134.996511184066     Delta-E=       -0.000000000791 Rises=F Damp=F
 DIIS: error= 5.74D-07 at cycle   2 NSaved=   2.
 NSaved= 2 IEnMin= 2 EnMin= -134.996511184066     IErMin= 2 ErrMin= 5.74D-07
 ErrMax= 5.74D-07  0.00D+00 EMaxC= 1.00D-01 BMatC= 1.83D-11 BMatP= 3.25D-10
 IDIUse=1 WtCom= 1.00D+00 WtEn= 0.00D+00
 Coeff-Com: -0.581D-01 0.106D+01
 Coeff:     -0.581D-01 0.106D+01
 Gap=     0.341 Goal=   None    Shift=    0.000
 RMSDP=2.66D-07 MaxDP=4.60D-06 DE=-7.91D-10 OVMax= 8.01D-06

 Cycle  10  Pass 1  IDiag  1:
 E= -134.996511184137     Delta-E=       -0.000000000071 Rises=F Damp=F
 DIIS: error= 1.85D-07 at cycle   3 NSaved=   3.
 NSaved= 3 IEnMin= 3 EnMin= -134.996511184137     IErMin= 3 ErrMin= 1.85D-07
 ErrMax= 1.85D-07  0.00D+00 EMaxC= 1.00D-01 BMatC= 3.65D-12 BMatP= 1.83D-11
 IDIUse=1 WtCom= 1.00D+00 WtEn= 0.00D+00
 Coeff-Com: -0.656D-01 0.224D+00 0.841D+00
 Coeff:     -0.656D-01 0.224D+00 0.841D+00
 Gap=     0.341 Goal=   None    Shift=    0.000
 RMSDP=8.34D-08 MaxDP=3.70D-06 DE=-7.08D-11 OVMax= 2.52D-06

 Cycle  11  Pass 1  IDiag  1:
 E= -134.996511184143     Delta-E=       -0.000000000007 Rises=F Damp=F
 DIIS: error= 7.43D-08 at cycle   4 NSaved=   4.
 NSaved= 4 IEnMin= 4 EnMin= -134.996511184143     IErMin= 4 ErrMin= 7.43D-08
 ErrMax= 7.43D-08  0.00D+00 EMaxC= 1.00D-01 BMatC= 7.00D-13 BMatP= 3.65D-12
 IDIUse=1 WtCom= 1.00D+00 WtEn= 0.00D+00
 Coeff-Com: -0.164D-01-0.197D-01 0.265D+00 0.771D+00
 Coeff:     -0.164D-01-0.197D-01 0.265D+00 0.771D+00
 Gap=     0.341 Goal=   None    Shift=    0.000
 RMSDP=2.54D-08 MaxDP=5.34D-07 DE=-6.71D-12 OVMax= 9.73D-07

 Cycle  12  Pass 1  IDiag  1:
 E= -134.996511184146     Delta-E=       -0.000000000002 Rises=F Damp=F
 DIIS: error= 3.36D-08 at cycle   5 NSaved=   5.
 NSaved= 5 IEnMin= 5 EnMin= -134.996511184146     IErMin= 5 ErrMin= 3.36D-08
 ErrMax= 3.36D-08  0.00D+00 EMaxC= 1.00D-01 BMatC= 1.47D-13 BMatP= 7.00D-13
 IDIUse=1 WtCom= 1.00D+00 WtEn= 0.00D+00
 Coeff-Com:  0.778D-02-0.580D-01-0.831D-01 0.311D+00 0.822D+00
 Coeff:      0.778D-02-0.580D-01-0.831D-01 0.311D+00 0.822D+00
 Gap=     0.341 Goal=   None    Shift=    0.000
 RMSDP=2.36D-08 MaxDP=1.43D-06 DE=-2.39D-12 OVMax= 5.17D-07

 Cycle  13  Pass 1  IDiag  1:
 E= -134.996511184144     Delta-E=        0.000000000002 Rises=F Damp=F
 DIIS: error= 5.32D-09 at cycle   6 NSaved=   6.
 NSaved= 6 IEnMin= 5 EnMin= -134.996511184146     IErMin= 6 ErrMin= 5.32D-09
 ErrMax= 5.32D-09  0.00D+00 EMaxC= 1.00D-01 BMatC= 3.55D-15 BMatP= 1.47D-13
 IDIUse=1 WtCom= 1.00D+00 WtEn= 0.00D+00
 Coeff-Com:  0.232D-02-0.116D-01-0.290D-01 0.361D-01 0.202D+00 0.800D+00
 Coeff:      0.232D-02-0.116D-01-0.290D-01 0.361D-01 0.202D+00 0.800D+00
 Gap=     0.341 Goal=   None    Shift=    0.000
 RMSDP=2.31D-09 MaxDP=1.31D-07 DE= 1.82D-12 OVMax= 5.51D-08

 SCF Done:  E(RCAM-B3LYP) =  -134.996511184     A.U. after   13 cycles
            NFock= 13  Conv=0.23D-08     -V/T= 2.0119
 KE= 1.334081251796D+02 PE=-4.812088511636D+02 EE= 1.283846285968D+02
 Leave Link  502 at Mon Mar 21 20:21:34 2022, MaxMem=  8589934592 cpu:              19.9 elap:               2.6
 (Enter /home/sabyasachi/g16/l801.exe)
 DoSCS=F DFT=T ScalE2(SS,OS)=  1.000000  1.000000
 ExpMin= 6.71D-02 ExpMax= 1.71D+03 ExpMxC= 2.58D+02 IAcc=3 IRadAn=         5 AccDes= 0.00D+00
 HarFok:  IExCor=  205 AccDes= 0.00D+00 IRadAn=         5 IDoV=-2 UseB2=F ITyADJ=14
 ICtDFT= 12500011 ScaDFX=  1.000000  1.000000  1.000000  1.000000
 Largest valence mixing into a core orbital is  7.14D-05
 Largest core mixing into a valence orbital is  1.55D-05
 Range of M.O.s used for correlation:     4   116
 NBasis=   116 NAE=    13 NBE=    13 NFC=     3 NFV=     0
 NROrb=    113 NOA=    10 NOB=    10 NVA=   103 NVB=   103

 **** Warning!!: The largest alpha MO coefficient is  0.17896953D+02

 Leave Link  801 at Mon Mar 21 20:21:34 2022, MaxMem=  8589934592 cpu:               0.6 elap:               0.1
 (Enter /home/sabyasachi/g16/l914.exe)
 RHF ground state
 Keep R1, R2, and R3 ints in memory in symmetry-blocked form, NReq=1260133964.
 FoFCou: FMM=F IPFlag=           0 FMFlag=           0 FMFlg1=           0
         NFxFlg=           0 DoJE=F BraDBF=F KetDBF=F FulRan=T
         wScrn=  0.000000 ICntrl=       600 IOpCl=  0 I1Cent=           0 NGrid=           0
         NMat0=    1 NMatS0=   6786 NMatT0=    0 NMatD0=    1 NMtDS0=    0 NMtDT0=    0
 Petite list used in FoFCou.
 MDV=  8589934592 DFT=T DoStab=F Mixed=T DoRPA=T DoScal=F NonHer=T
 Making orbital integer symmetry assigments:
 Orbital symmetries:
       Occupied  (A') (A") (A') (A') (A") (A') (A') (A') (A") (A")
                 (A') (A") (A')
       Virtual   (A') (A") (A') (A') (A') (A") (A') (A") (A') (A")
                 (A') (A") (A") (A') (A') (A") (A') (A') (A') (A")
                 (A') (A") (A') (A') (A') (A") (A') (A") (A") (A")
                 (A") (A') (A') (A') (A") (A') (A") (A') (A") (A')
                 (A") (A") (A") (A') (A") (A') (A') (A") (A') (A')
                 (A") (A') (A") (A') (A') (A") (A") (A') (A') (A")
                 (A') (A") (A") (A') (A') (A") (A") (A') (A') (A")
                 (A') (A') (A") (A') (A") (A') (A") (A') (A") (A")
                 (A') (A') (A") (A') (A") (A') (A") (A') (A") (A')
                 (A") (A') (A') (A") (A') (A") (A') (A') (A") (A")
                 (A') (A") (A')
  1030 initial guesses have been made.
 Convergence on wavefunction:    0.001000000000000
 Davidson Disk Diagonalization:  ConvIn= 1.00D-03 SkipCon=T Conv= 1.00D-03.
 Max sub-space:  6180 roots to seek:  2060 dimension of matrix:         2060
 *** WARNING: Number of orthogonal guesses is         1030
 Iteration     1 Dimension  1030 NMult     0 NNew   1030
 CISAX will form  1030 AO SS matrices at one time.
 NMat=  1030 NSing=  1030 JSym2X=-1.
 New state      2 was old state      3
 New state      3 was old state      2
 New state      6 was old state      7
 New state      7 was old state      6
 New state      8 was old state      9
 New state      9 was old state      8
 New state     11 was old state     12
 New state     12 was old state     11
 New state     17 was old state     19
 New state     19 was old state     20
 New state     20 was old state     17
 New state     25 was old state     26
 New state     26 was old state     27
 New state     27 was old state     25
 New state     28 was old state     30
 New state     29 was old state     28
 New state     30 was old state     33
 New state     31 was old state     29
 New state     32 was old state     31
 New state     33 was old state     36
 New state     34 was old state     35
 New state     35 was old state     38
 New state     36 was old state     39
 New state     37 was old state     34
 New state     38 was old state     37
 New state     39 was old state     45
 New state     40 was old state     43
 New state     41 was old state     42
 New state     42 was old state     32
 New state     43 was old state     41
 New state     44 was old state     48
 New state     45 was old state     47
 New state     46 was old state     44
 New state     47 was old state     50
 New state     48 was old state     51
 New state     49 was old state     40
 New state     50 was old state     53
 New state     51 was old state     49
 New state     52 was old state     46
 New state     53 was old state     60
 New state     54 was old state     57
 New state     55 was old state     56
 New state     56 was old state     55
 New state     57 was old state     52
 New state     58 was old state     63
 New state     59 was old state     58
 New state     60 was old state     59
 New state     61 was old state     54
 New state     63 was old state     73
 New state     65 was old state     80
 New state     66 was old state     61
 New state     67 was old state     75
 New state     68 was old state     67
 New state     69 was old state     68
 New state     70 was old state     72
 New state     71 was old state     70
 New state     72 was old state     69
 New state     73 was old state     74
 New state     74 was old state     71
 New state     75 was old state     78
 New state     76 was old state     81
 New state     77 was old state     83
 New state     78 was old state     76
 New state     79 was old state     82
 New state     80 was old state     87
 New state     81 was old state     77
 New state     82 was old state     90
 New state     83 was old state     88
 New state     84 was old state     79
 New state     86 was old state     98
 New state     87 was old state     84
 New state     88 was old state     91
 New state     89 was old state     86
 New state     90 was old state     89
 New state     91 was old state     96
 New state     92 was old state     99
 New state     93 was old state     92
 New state     95 was old state     93
 New state     96 was old state     95
 New state     97 was old state    104
 New state     98 was old state    103
 New state     99 was old state    108
 New state    100 was old state    101
 New state    101 was old state    106
 New state    103 was old state    100
 New state    104 was old state    109
 New state    105 was old state     97
 New state    106 was old state    105
 New state    107 was old state    115
 New state    108 was old state    107
 New state    109 was old state    112
 New state    110 was old state    114
 New state    112 was old state    117
 New state    113 was old state    110
 New state    114 was old state    118
 New state    115 was old state    113
 New state    117 was old state    120
 New state    118 was old state    121
 New state    119 was old state    124
 New state    120 was old state    122
 New state    121 was old state    119
 New state    122 was old state    123
 New state    123 was old state    134
 New state    124 was old state    133
 New state    125 was old state    126
 New state    126 was old state    125
 New state    128 was old state    130
 New state    129 was old state    132
 New state    130 was old state    137
 New state    131 was old state    146
 New state    132 was old state    135
 New state    133 was old state    131
 New state    134 was old state    128
 New state    135 was old state    152
 New state    136 was old state    138
 New state    137 was old state    144
 New state    138 was old state    140
 New state    139 was old state    129
 New state    140 was old state    143
 New state    141 was old state    136
 New state    142 was old state    141
 New state    143 was old state    139
 New state    144 was old state    142
 New state    145 was old state    147
 New state    146 was old state    145
 New state    147 was old state    148
 New state    148 was old state    163
 New state    149 was old state    153
 New state    150 was old state    151
 New state    151 was old state    149
 New state    152 was old state    150
 New state    153 was old state    164
 New state    155 was old state    156
 New state    156 was old state    157
 New state    157 was old state    155
 New state    158 was old state    167
 New state    159 was old state    177
 New state    160 was old state    168
 New state    161 was old state    162
 New state    162 was old state    159
 New state    163 was old state    161
 New state    164 was old state    160
 New state    165 was old state    158
 New state    166 was old state    165
 New state    167 was old state    169
 New state    168 was old state    174
 New state    169 was old state    171
 New state    170 was old state    172
 New state    171 was old state    170
 New state    172 was old state    176
 New state    173 was old state    166
 New state    174 was old state    183
 New state    175 was old state    190
 New state    176 was old state    178
 New state    177 was old state    181
 New state    178 was old state    182
 New state    179 was old state    188
 New state    180 was old state    186
 New state    181 was old state    173
 New state    182 was old state    175
 New state    183 was old state    187
 New state    184 was old state    185
 New state    185 was old state    184
 New state    186 was old state    191
 New state    187 was old state    189
 New state    188 was old state    198
 New state    189 was old state    200
 New state    190 was old state    192
 New state    191 was old state    196
 New state    192 was old state    180
 New state    193 was old state    195
 New state    195 was old state    179
 New state    196 was old state    199
 New state    197 was old state    193
 New state    198 was old state    202
 New state    199 was old state    205
 New state    200 was old state    197
 New state    201 was old state    207
 New state    202 was old state    201
 New state    203 was old state    206
 New state    205 was old state    209
 New state    206 was old state    203
 New state    207 was old state    211
 New state    209 was old state    215
 New state    210 was old state    214
 New state    211 was old state    212
 New state    212 was old state    220
 New state    213 was old state    210
 New state    214 was old state    223
 New state    215 was old state    213
 New state    217 was old state    225
 New state    218 was old state    219
 New state    219 was old state    218
 New state    220 was old state    227
 New state    221 was old state    224
 New state    223 was old state    229
 New state    224 was old state    217
 New state    225 was old state    226
 New state    226 was old state    231
 New state    227 was old state    228
 New state    228 was old state    221
 New state    229 was old state    232
 New state    230 was old state    237
 New state    231 was old state    234
 New state    232 was old state    247
 New state    233 was old state    240
 New state    234 was old state    233
 New state    235 was old state    244
 New state    236 was old state    230
 New state    237 was old state    235
 New state    238 was old state    241
 New state    239 was old state    238
 New state    240 was old state    239
 New state    241 was old state    250
 New state    243 was old state    236
 New state    244 was old state    249
 New state    247 was old state    255
 New state    249 was old state    258
 New state    250 was old state    256
 New state    252 was old state    257
 New state    253 was old state    254
 New state    254 was old state    243
 New state    255 was old state    253
 New state    256 was old state    262
 New state    257 was old state    259
 New state    258 was old state    252
 New state    259 was old state    268
 New state    260 was old state    263
 New state    262 was old state    267
 New state    263 was old state    274
 New state    265 was old state    270
 New state    266 was old state    273
 New state    267 was old state    272
 New state    268 was old state    260
 New state    269 was old state    265
 New state    270 was old state    271
 New state    271 was old state    266
 New state    272 was old state    285
 New state    273 was old state    275
 New state    274 was old state    269
 New state    275 was old state    280
 New state    276 was old state    277
 New state    277 was old state    276
 New state    278 was old state    284
 New state    280 was old state    283
 New state    281 was old state    282
 New state    282 was old state    281
 New state    283 was old state    290
 New state    284 was old state    287
 New state    285 was old state    291
 New state    286 was old state    288
 New state    287 was old state    286
 New state    288 was old state    301
 New state    289 was old state    296
 New state    290 was old state    289
 New state    291 was old state    297
 New state    293 was old state    294
 New state    294 was old state    293
 New state    295 was old state    315
 New state    296 was old state    299
 New state    297 was old state    300
 New state    298 was old state    295
 New state    299 was old state    298
 New state    300 was old state    306
 New state    301 was old state    304
 New state    302 was old state    303
 New state    303 was old state    310
 New state    304 was old state    305
 New state    305 was old state    302
 New state    306 was old state    307
 New state    307 was old state    309
 New state    308 was old state    312
 New state    309 was old state    319
 New state    310 was old state    308
 No map to state    312
 New state    313 was old state    316
 New state    314 was old state    318
 New state    315 was old state    314
 New state    316 was old state    313
 New state    317 was old state    320
 New state    318 was old state    321
 New state    319 was old state    325
 New state    320 was old state    324
 New state    321 was old state    322
 New state    322 was old state    329
 New state    324 was old state    334
 New state    325 was old state    317
 New state    326 was old state    330
 New state    327 was old state    326
 New state    328 was old state    327
 New state    329 was old state    333
 New state    330 was old state    337
 New state    331 was old state    328
 New state    332 was old state    331
 New state    333 was old state    336
 New state    334 was old state    338
 New state    335 was old state    332
 New state    336 was old state    346
 New state    337 was old state    335
 New state    338 was old state    341
 New state    341 was old state    343
 New state    343 was old state    344
 New state    344 was old state    348
 New state    345 was old state    349
 New state    346 was old state    347
 New state    347 was old state    350
 New state    348 was old state    351
 New state    349 was old state    345
 New state    350 was old state    354
 New state    351 was old state    352
 New state    352 was old state    381
 New state    353 was old state    359
 New state    354 was old state    356
 New state    355 was old state    353
 New state    356 was old state    358
 New state    357 was old state    360
 New state    358 was old state    366
 New state    359 was old state    363
 New state    360 was old state    364
 New state    362 was old state    357
 New state    363 was old state    355
 New state    364 was old state    367
 New state    365 was old state    362
 New state    366 was old state    368
 New state    367 was old state    373
 New state    368 was old state    371
 New state    369 was old state    374
 New state    370 was old state    365
 New state    371 was old state    369
 New state    372 was old state    378
 New state    373 was old state    379
 New state    374 was old state    375
 New state    375 was old state    370
 New state    377 was old state    384
 New state    378 was old state    380
 New state    379 was old state    372
 New state    380 was old state    377
 New state    381 was old state    385
 New state    382 was old state    386
 New state    383 was old state    398
 New state    384 was old state    382
 New state    385 was old state    383
 New state    386 was old state    387
 No map to state    387
 New state    388 was old state    389
 New state    389 was old state    388
 New state    392 was old state    394
 New state    393 was old state    404
 New state    394 was old state    392
 New state    395 was old state    393
 New state    396 was old state    395
 New state    397 was old state    396
 New state    398 was old state    407
 New state    399 was old state    397
 New state    400 was old state    399
 New state    401 was old state    405
 New state    402 was old state    401
 New state    403 was old state    408
 New state    404 was old state    403
 New state    405 was old state    400
 New state    406 was old state    409
 New state    407 was old state    402
 New state    408 was old state    414
 New state    409 was old state    410
 New state    410 was old state    406
 New state    411 was old state    413
 New state    412 was old state    415
 New state    413 was old state    424
 New state    414 was old state    412
 New state    415 was old state    411
 New state    418 was old state    419
 New state    419 was old state    418
 New state    420 was old state    421
 New state    421 was old state    422
 New state    422 was old state    423
 New state    423 was old state    420
 New state    424 was old state    436
 New state    426 was old state    427
 New state    427 was old state    426
 New state    428 was old state    432
 New state    429 was old state    437
 New state    431 was old state    435
 New state    432 was old state    439
 New state    433 was old state    428
 New state    434 was old state    429
 New state    435 was old state    431
 New state    436 was old state    438
 New state    437 was old state    433
 New state    438 was old state    434
 New state    439 was old state    445
 New state    441 was old state    444
 No map to state    442
 New state    443 was old state    441
 New state    444 was old state    450
 New state    445 was old state    442
 New state    446 was old state    443
 New state    447 was old state    449
 New state    448 was old state    446
 New state    449 was old state    451
 New state    450 was old state    453
 New state    451 was old state    448
 New state    452 was old state    447
 New state    453 was old state    456
 New state    455 was old state    465
 New state    456 was old state    452
 New state    457 was old state    455
 New state    458 was old state    461
 New state    459 was old state    466
 New state    460 was old state    459
 New state    461 was old state    458
 New state    462 was old state    457
 New state    463 was old state    470
 New state    464 was old state    460
 New state    465 was old state    462
 New state    466 was old state    468
 New state    467 was old state    464
 New state    468 was old state    463
 New state    469 was old state    473
 New state    470 was old state    474
 New state    472 was old state    467
 New state    473 was old state    469
 New state    474 was old state    475
 New state    475 was old state    476
 New state    476 was old state    489
 New state    477 was old state    481
 New state    478 was old state    472
 New state    479 was old state    483
 New state    481 was old state    479
 New state    482 was old state    486
 New state    483 was old state    477
 New state    484 was old state    478
 New state    485 was old state    494
 New state    486 was old state    492
 New state    487 was old state    482
 New state    489 was old state    485
 New state    490 was old state    487
 New state    491 was old state    495
 New state    492 was old state    484
 New state    494 was old state    496
 New state    495 was old state    490
 New state    496 was old state    500
 New state    497 was old state    501
 New state    498 was old state    491
 New state    499 was old state    497
 New state    500 was old state    506
 New state    501 was old state    498
 New state    503 was old state    511
 New state    506 was old state    503
 New state    507 was old state    499
 New state    508 was old state    513
 New state    509 was old state    507
 New state    510 was old state    524
 New state    511 was old state    512
 New state    512 was old state    510
 New state    513 was old state    508
 New state    514 was old state    517
 New state    515 was old state    518
 New state    516 was old state    515
 New state    517 was old state    514
 New state    518 was old state    519
 New state    519 was old state    523
 New state    520 was old state    522
 New state    521 was old state    520
 New state    522 was old state    521
 New state    523 was old state    525
 New state    524 was old state    530
 New state    525 was old state    526
 No map to state    526
 New state    528 was old state    529
 New state    529 was old state    528
 New state    530 was old state    531
 New state    531 was old state    536
 New state    533 was old state    537
 New state    534 was old state    539
 New state    535 was old state    538
 New state    536 was old state    535
 New state    537 was old state    542
 New state    538 was old state    533
 New state    539 was old state    544
 New state    540 was old state    545
 New state    541 was old state    534
 New state    542 was old state    546
 New state    543 was old state    541
 New state    544 was old state    543
 New state    545 was old state    540
 New state    546 was old state    548
 New state    547 was old state    549
 New state    548 was old state    553
 New state    549 was old state    547
 New state    551 was old state    552
 New state    552 was old state    554
 New state    553 was old state    556
 New state    554 was old state    551
 New state    555 was old state    557
 New state    556 was old state    560
 New state    557 was old state    558
 New state    558 was old state    561
 New state    560 was old state    562
 New state    561 was old state    563
 New state    562 was old state    555
 New state    563 was old state    567
 New state    564 was old state    566
 New state    565 was old state    564
 New state    566 was old state    565
 New state    567 was old state    568
 New state    568 was old state    577
 New state    570 was old state    572
 New state    571 was old state    573
 New state    572 was old state    575
 New state    573 was old state    574
 New state    574 was old state    571
 New state    575 was old state    570
 New state    577 was old state    578
 New state    578 was old state    580
 New state    580 was old state    583
 New state    581 was old state    586
 New state    582 was old state    585
 New state    583 was old state    584
 New state    584 was old state    582
 New state    585 was old state    587
 New state    586 was old state    589
 New state    587 was old state    581
 No map to state    588
 New state    589 was old state    591
 New state    590 was old state    588
 New state    591 was old state    590
 New state    592 was old state    594
 New state    593 was old state    596
 New state    594 was old state    595
 New state    595 was old state    592
 New state    596 was old state    602
 New state    597 was old state    593
 New state    598 was old state    597
 New state    599 was old state    600
 New state    600 was old state    598
 New state    601 was old state    603
 New state    602 was old state    601
 New state    603 was old state    599
 New state    604 was old state    607
 New state    606 was old state    612
 New state    607 was old state    608
 New state    608 was old state    604
 New state    609 was old state    610
 New state    610 was old state    609
 New state    611 was old state    606
 New state    612 was old state    613
 New state    613 was old state    611
 New state    614 was old state    616
 New state    615 was old state    614
 New state    616 was old state    615
 New state    617 was old state    621
 New state    618 was old state    617
 New state    619 was old state    618
 New state    621 was old state    619
 New state    622 was old state    623
 New state    623 was old state    622
 New state    625 was old state    626
 New state    626 was old state    625
 New state    627 was old state    630
 New state    628 was old state    627
 New state    629 was old state    628
 New state    630 was old state    634
 New state    631 was old state    633
 New state    632 was old state    629
 New state    633 was old state    631
 New state    634 was old state    632
 New state    635 was old state    636
 New state    636 was old state    637
 New state    637 was old state    638
 New state    638 was old state    635
 New state    639 was old state    641
 New state    641 was old state    639
 New state    643 was old state    644
 New state    644 was old state    648
 New state    645 was old state    650
 New state    646 was old state    647
 New state    647 was old state    643
 New state    648 was old state    651
 New state    649 was old state    645
 New state    650 was old state    646
 New state    651 was old state    652
 New state    652 was old state    649
 New state    653 was old state    655
 New state    655 was old state    656
 New state    656 was old state    657
 New state    657 was old state    659
 New state    658 was old state    662
 New state    659 was old state    658
 New state    662 was old state    664
 New state    663 was old state    665
 New state    664 was old state    667
 New state    665 was old state    668
 New state    666 was old state    663
 New state    667 was old state    669
 New state    668 was old state    666
 New state    669 was old state    653
 New state    671 was old state    672
 New state    672 was old state    673
 New state    673 was old state    671
 New state    675 was old state    677
 New state    676 was old state    683
 New state    677 was old state    679
 New state    679 was old state    681
 New state    680 was old state    676
 New state    681 was old state    680
 New state    682 was old state    675
 New state    683 was old state    682
 New state    684 was old state    687
 New state    685 was old state    684
 New state    686 was old state    685
 New state    687 was old state    686
 New state    688 was old state    689
 New state    689 was old state    690
 New state    690 was old state    688
 New state    691 was old state    692
 New state    692 was old state    693
 New state    693 was old state    691
 New state    694 was old state    698
 New state    695 was old state    694
 New state    697 was old state    695
 New state    698 was old state    699
 New state    699 was old state    697
 New state    700 was old state    703
 New state    702 was old state    705
 New state    703 was old state    704
 New state    704 was old state    700
 New state    705 was old state    702
 New state    708 was old state    711
 New state    711 was old state    713
 New state    712 was old state    717
 New state    713 was old state    708
 New state    715 was old state    712
 New state    717 was old state    715
 New state    722 was old state    724
 New state    723 was old state    725
 New state    724 was old state    727
 New state    725 was old state    722
 New state    726 was old state    723
 New state    727 was old state    728
 New state    728 was old state    726
 New state    729 was old state    731
 New state    730 was old state    733
 New state    731 was old state    732
 New state    732 was old state    730
 New state    733 was old state    729
 New state    734 was old state    735
 New state    735 was old state    734
 New state    737 was old state    738
 New state    738 was old state    745
 New state    740 was old state    743
 New state    741 was old state    740
 New state    743 was old state    744
 New state    744 was old state    737
 New state    745 was old state    749
 New state    746 was old state    741
 New state    748 was old state    751
 New state    749 was old state    757
 New state    750 was old state    748
 New state    751 was old state    746
 New state    752 was old state    758
 New state    753 was old state    763
 New state    754 was old state    760
 New state    755 was old state    750
 New state    756 was old state    752
 New state    757 was old state    762
 New state    758 was old state    754
 New state    759 was old state    756
 New state    760 was old state    755
 New state    761 was old state    753
 New state    762 was old state    770
 New state    763 was old state    768
 New state    764 was old state    766
 New state    765 was old state    761
 New state    766 was old state    759
 New state    767 was old state    764
 New state    768 was old state    767
 New state    769 was old state    765
 New state    770 was old state    771
 New state    771 was old state    769
 New state    774 was old state    778
 New state    777 was old state    774
 New state    778 was old state    777
 New state    781 was old state    783
 New state    782 was old state    781
 New state    783 was old state    785
 New state    784 was old state    782
 New state    785 was old state    789
 New state    786 was old state    784
 New state    788 was old state    786
 New state    789 was old state    788
 New state    793 was old state    795
 New state    794 was old state    793
 New state    795 was old state    796
 New state    796 was old state    794
 New state    797 was old state    798
 New state    798 was old state    799
 New state    799 was old state    801
 New state    800 was old state    797
 New state    801 was old state    802
 New state    802 was old state    803
 New state    803 was old state    800
 New state    804 was old state    805
 New state    805 was old state    806
 New state    806 was old state    804
 New state    807 was old state    809
 New state    809 was old state    807
 New state    813 was old state    817
 New state    815 was old state    818
 New state    817 was old state    815
 New state    818 was old state    819
 New state    819 was old state    813
 New state    820 was old state    821
 New state    821 was old state    820
 New state    822 was old state    824
 New state    823 was old state    822
 New state    824 was old state    827
 New state    826 was old state    823
 New state    827 was old state    828
 New state    828 was old state    833
 New state    829 was old state    830
 New state    830 was old state    832
 New state    831 was old state    826
 New state    832 was old state    829
 New state    833 was old state    831
 New state    836 was old state    839
 New state    837 was old state    836
 New state    838 was old state    837
 New state    839 was old state    841
 New state    840 was old state    838
 New state    841 was old state    842
 New state    842 was old state    840
 New state    845 was old state    846
 New state    846 was old state    845
 New state    848 was old state    849
 New state    849 was old state    848
 New state    853 was old state    854
 New state    854 was old state    853
 New state    856 was old state    857
 New state    857 was old state    856
 New state    858 was old state    859
 New state    859 was old state    858
 New state    860 was old state    863
 New state    861 was old state    862
 New state    862 was old state    861
 New state    863 was old state    865
 New state    865 was old state    860
 New state    867 was old state    869
 New state    869 was old state    867
 New state    870 was old state    871
 New state    871 was old state    870
 New state    873 was old state    875
 New state    875 was old state    873
 New state    879 was old state    889
 New state    882 was old state    883
 New state    883 was old state    885
 New state    884 was old state    879
 New state    885 was old state    886
 New state    886 was old state    887
 New state    887 was old state    884
 New state    889 was old state    890
 New state    890 was old state    882
 New state    893 was old state    894
 New state    894 was old state    893
 New state    895 was old state    896
 New state    896 was old state    895
 New state    897 was old state    899
 New state    898 was old state    900
 New state    899 was old state    898
 New state    900 was old state    897
 New state    901 was old state    902
 New state    902 was old state    901
 New state    903 was old state    904
 New state    904 was old state    908
 New state    905 was old state    907
 New state    906 was old state    903
 New state    907 was old state    905
 New state    908 was old state    906
 New state    910 was old state    911
 New state    911 was old state    914
 New state    912 was old state    910
 New state    913 was old state    912
 New state    914 was old state    915
 New state    915 was old state    913
 New state    916 was old state    917
 New state    917 was old state    916
 New state    918 was old state    919
 New state    919 was old state    920
 New state    920 was old state    922
 New state    921 was old state    918
 New state    922 was old state    921
 New state    923 was old state    927
 New state    924 was old state    929
 New state    925 was old state    926
 New state    926 was old state    923
 New state    927 was old state    924
 New state    928 was old state    925
 New state    929 was old state    932
 New state    930 was old state    928
 New state    931 was old state    933
 New state    932 was old state    930
 New state    933 was old state    935
 New state    934 was old state    936
 New state    935 was old state    931
 New state    936 was old state    934
 New state    937 was old state    938
 New state    938 was old state    939
 New state    939 was old state    937
 New state    943 was old state    944
 New state    944 was old state    943
 New state    945 was old state    946
 New state    946 was old state    945
 New state    947 was old state    948
 New state    948 was old state    947
 New state    949 was old state    950
 New state    950 was old state    949
 New state    953 was old state    954
 New state    954 was old state    955
 New state    955 was old state    953
 New state    956 was old state    958
 New state    957 was old state    956
 New state    958 was old state    957
 New state    959 was old state    961
 New state    960 was old state    959
 New state    961 was old state    960
 New state    964 was old state    965
 New state    965 was old state    968
 New state    967 was old state    964
 New state    968 was old state    970
 New state    970 was old state    972
 New state    971 was old state    967
 New state    972 was old state    971
 New state    975 was old state    976
 New state    976 was old state    978
 New state    977 was old state    975
 New state    978 was old state    977
 New state    979 was old state    981
 New state    981 was old state    982
 New state    982 was old state    979
 New state    983 was old state    986
 New state    984 was old state    985
 New state    985 was old state    984
 New state    986 was old state    983
 New state    988 was old state    990
 New state    990 was old state    991
 New state    991 was old state    988
 New state   1000 was old state   1002
 New state   1002 was old state   1000
 New state   1006 was old state   1007
 New state   1007 was old state   1006
 New state   1012 was old state   1016
 New state   1014 was old state   1012
 New state   1016 was old state   1017
 New state   1017 was old state   1014
 New state   1020 was old state   1022
 New state   1021 was old state   1020
 New state   1022 was old state   1021
 New state   1027 was old state   1028
 New state   1028 was old state   1027
 Excitation Energies [eV] at current iteration:
 Root      1 :     5.943268181328235
 Root      2 :     7.105426885475773
 Root      3 :     7.119509438525733
 Root      4 :     8.071025632833742
 Root      5 :     8.158566468988829
 Root      6 :     8.818582147871400
 Root      7 :     8.955859828375011
 Root      8 :     9.253302919279646
 Root      9 :     9.562240197336457
 Root     10 :     9.851199923948039
 Root     11 :     9.892059211692100
 Root     12 :     9.912664506093833
 Root     13 :    10.201691313632250
 Root     14 :    10.391502511396690
 Root     15 :    10.478094324404750
 Root     16 :    10.851602514308860
 Root     17 :    10.917341327166620
 Root     18 :    10.967183095750290
 Root     19 :    11.084408289566440
 Root     20 :    11.153906399728560
 Root     21 :    11.552333320350100
 Root     22 :    11.626793544542130
 Root     23 :    11.728459188718050
 Root     24 :    11.871711308933100
 Root     25 :    11.919255274550030
 Root     26 :    11.927471071107960
 Root     27 :    12.101839071321410
 Root     28 :    12.109606422099720
 Root     29 :    12.186502037078890
 Root     30 :    12.345523094365580
 Root     31 :    12.387068271593580
 Root     32 :    12.529473712316910
 Root     33 :    12.597835284814120
 Root     34 :    12.646571407606170
 Root     35 :    12.661360824289080
 Root     36 :    12.778799395493530
 Root     37 :    12.842478748824770
 Root     38 :    12.852135834362200
 Root     39 :    12.984997779546160
 Root     40 :    13.000512082521900
 Root     41 :    13.170887268938460
 Root     42 :    13.180845405997950
 Root     43 :    13.188000559770360
 Root     44 :    13.271634636663880
 Root     45 :    13.308949190505370
 Root     46 :    13.341193411153790
 Root     47 :    13.426977725514930
 Root     48 :    13.492005062999390
 Root     49 :    13.508593396262320
 Root     50 :    13.619878703500160
 Root     51 :    13.662216190458820
 Root     52 :    13.802198237862290
 Root     53 :    13.875599153215950
 Root     54 :    13.940884732956840
 Root     55 :    13.991932325835020
 Root     56 :    14.031526504488050
 Root     57 :    14.053075465744180
 Root     58 :    14.096417253970370
 Root     59 :    14.101431204663030
 Root     60 :    14.207997287823560
 Root     61 :    14.277439073960230
 Root     62 :    14.385616179297570
 Root     63 :    14.419349816709700
 Root     64 :    14.493695091762740
 Root     65 :    14.556727697265190
 Root     66 :    14.610228322921330
 Root     67 :    14.655872561843300
 Root     68 :    14.681625837639490
 Root     69 :    14.736130961422400
 Root     70 :    14.801043337468060
 Root     71 :    14.803506506852670
 Root     72 :    14.847250814070560
 Root     73 :    14.899021350707370
 Root     74 :    15.025991689538970
 Root     75 :    15.071313643438600
 Root     76 :    15.105055183601730
 Root     77 :    15.169499741021240
 Root     78 :    15.223233117971670
 Root     79 :    15.231444285317950
 Root     80 :    15.273223948192600
 Root     81 :    15.306972869972260
 Root     82 :    15.420610454783770
 Root     83 :    15.456085611708730
 Root     84 :    15.587901668877760
 Root     85 :    15.617062402876010
 Root     86 :    15.633482245005580
 Root     87 :    15.695015738707860
 Root     88 :    15.696227952901560
 Root     89 :    15.713673478483220
 Root     90 :    15.794278457353010
 Root     91 :    15.954413764175510
 Root     92 :    15.981424843716370
 Root     93 :    16.033195528611340
 Root     94 :    16.082534424477170
 Root     95 :    16.142579395150350
 Root     96 :    16.179384141349590
 Root     97 :    16.205780863204390
 Root     98 :    16.294924430827920
 Root     99 :    16.356263846833370
 Root    100 :    16.363011369596100
 Root    101 :    16.365222800705650
 Root    102 :    16.417571810137580
 Root    103 :    16.500352227532160
 Root    104 :    16.547841389175640
 Root    105 :    16.586836262327630
 Root    106 :    16.666214134873530
 Root    107 :    16.735902738499900
 Root    108 :    16.751753730919050
 Root    109 :    16.783659706963590
 Root    110 :    16.875478640329700
 Root    111 :    16.885302551219940
 Root    112 :    16.953002834676440
 Root    113 :    17.012554859767150
 Root    114 :    17.056877046211840
 Root    115 :    17.094312504774610
 Root    116 :    17.158294279940450
 Root    117 :    17.213569722229190
 Root    118 :    17.325981232999850
 Root    119 :    17.410911134241760
 Root    120 :    17.436899893006860
 Root    121 :    17.490084167328610
 Root    122 :    17.490560964577060
 Root    123 :    17.504364796544960
 Root    124 :    17.631158359489490
 Root    125 :    17.700097972014850
 Root    126 :    17.715214869239630
 Root    127 :    17.722630450746160
 Root    128 :    17.803275061393780
 Root    129 :    17.882312976626980
 Root    130 :    17.946043849461050
 Root    131 :    17.998396025088380
 Root    132 :    18.074531652354970
 Root    133 :    18.110711224515670
 Root    134 :    18.132377951063370
 Root    135 :    18.157975676351630
 Root    136 :    18.234990148957430
 Root    137 :    18.290770986019610
 Root    138 :    18.370938357869980
 Root    139 :    18.406411547827550
 Root    140 :    18.430163123403380
 Root    141 :    18.467629137050870
 Root    142 :    18.489954400042780
 Root    143 :    18.538422182463440
 Root    144 :    18.591998375932110
 Root    145 :    18.611518876339900
 Root    146 :    18.645362206711490
 Root    147 :    18.669205830662640
 Root    148 :    18.694639769618440
 Root    149 :    18.733265145719200
 Root    150 :    18.779300254949140
 Root    151 :    18.812083300467630
 Root    152 :    18.831483302148910
 Root    153 :    18.879189559658140
 Root    154 :    18.983387553510020
 Root    155 :    19.030749025205240
 Root    156 :    19.040583700345000
 Root    157 :    19.097484439537370
 Root    158 :    19.202349105683510
 Root    159 :    19.261413271551260
 Root    160 :    19.317602503197750
 Root    161 :    19.333261444996570
 Root    162 :    19.352260949499300
 Root    163 :    19.372042558644670
 Root    164 :    19.388081588657900
 Root    165 :    19.434101416667630
 Root    166 :    19.509822573545700
 Root    167 :    19.550973708292520
 Root    168 :    19.575489373690120
 Root    169 :    19.637076062115710
 Root    170 :    19.641687406992440
 Root    171 :    19.683405622866770
 Root    172 :    19.706404411205520
 Root    173 :    19.735178993120350
 Root    174 :    19.784496873775930
 Root    175 :    19.786383373903860
 Root    176 :    19.861695709987420
 Root    177 :    19.969203028395640
 Root    178 :    19.971486463611580
 Root    179 :    19.993079126647910
 Root    180 :    19.996849900673410
 Root    181 :    20.036106906986410
 Root    182 :    20.108044431656800
 Root    183 :    20.122232636693450
 Root    184 :    20.183923029005960
 Root    185 :    20.204735655916570
 Root    186 :    20.248886700923130
 Root    187 :    20.269622280531360
 Root    188 :    20.271159219835930
 Root    189 :    20.338617053027680
 Root    190 :    20.363148380551360
 Root    191 :    20.422331376527450
 Root    192 :    20.453731569828950
 Root    193 :    20.477426324868820
 Root    194 :    20.519153855213450
 Root    195 :    20.521708146827760
 Root    196 :    20.577984589958930
 Root    197 :    20.647275746343060
 Root    198 :    20.650437383024940
 Root    199 :    20.697884349437020
 Root    200 :    20.739230993884450
 Root    201 :    20.774945589642090
 Root    202 :    20.802880270622310
 Root    203 :    20.834673901088530
 Root    204 :    20.863034661089870
 Root    205 :    20.883147241859910
 Root    206 :    20.885199556374200
 Root    207 :    20.960268153627090
 Root    208 :    21.023820126971300
 Root    209 :    21.047053851540170
 Root    210 :    21.058960974159150
 Root    211 :    21.107337692357510
 Root    212 :    21.121206028647760
 Root    213 :    21.211264683912430
 Root    214 :    21.233072991461170
 Root    215 :    21.279837736974630
 Root    216 :    21.365188288306550
 Root    217 :    21.427993705782930
 Root    218 :    21.439190181249640
 Root    219 :    21.448840556964090
 Root    220 :    21.457914389223350
 Root    221 :    21.471357487188960
 Root    222 :    21.520854109542600
 Root    223 :    21.550079317537270
 Root    224 :    21.583192140545420
 Root    225 :    21.622828547429670
 Root    226 :    21.683165312964430
 Root    227 :    21.751538627981120
 Root    228 :    21.799210118359680
 Root    229 :    21.818855111755890
 Root    230 :    21.861448861363230
 Root    231 :    21.874841021085000
 Root    232 :    21.972860284074670
 Root    233 :    22.002893307248250
 Root    234 :    22.012204712275580
 Root    235 :    22.022753045110190
 Root    236 :    22.078485358305760
 Root    237 :    22.118530162670290
 Root    238 :    22.140339145970010
 Root    239 :    22.158740193320750
 Root    240 :    22.239875240797590
 Root    241 :    22.260246387650500
 Root    242 :    22.286263020074160
 Root    243 :    22.346153266146710
 Root    244 :    22.409021509410910
 Root    245 :    22.415626615508940
 Root    246 :    22.438701664203870
 Root    247 :    22.519604991310360
 Root    248 :    22.539282731991540
 Root    249 :    22.548887206362640
 Root    250 :    22.608105224867780
 Root    251 :    22.614459244544720
 Root    252 :    22.716521286123670
 Root    253 :    22.725579276658640
 Root    254 :    22.769712484799760
 Root    255 :    22.790248011868920
 Root    256 :    22.832091330052780
 Root    257 :    22.865073764239630
 Root    258 :    22.910059333064770
 Root    259 :    22.918668898483610
 Root    260 :    22.952183695913700
 Root    261 :    22.979592369898190
 Root    262 :    23.041448637284400
 Root    263 :    23.129364741053950
 Root    264 :    23.144956228202710
 Root    265 :    23.148085158198490
 Root    266 :    23.197486426006150
 Root    267 :    23.214839433760240
 Root    268 :    23.242760285509150
 Root    269 :    23.300605007382640
 Root    270 :    23.312906307815930
 Root    271 :    23.337131752568020
 Root    272 :    23.390965385049190
 Root    273 :    23.409219881937980
 Root    274 :    23.500540000887990
 Root    275 :    23.539708043083450
 Root    276 :    23.558373473521780
 Root    277 :    23.642831716198070
 Root    278 :    23.646582016012740
 Root    279 :    23.655748494235320
 Root    280 :    23.661319594067840
 Root    281 :    23.715182685980870
 Root    282 :    23.741570828158130
 Root    283 :    23.774303949323030
 Root    284 :    23.846623909290470
 Root    285 :    23.909698683445610
 Root    286 :    23.935091951557670
 Root    287 :    23.977441050866570
 Root    288 :    24.011056057381710
 Root    289 :    24.055788134377720
 Root    290 :    24.119606580740250
 Root    291 :    24.158665998182600
 Root    292 :    24.228890138550820
 Root    293 :    24.334557800070510
 Root    294 :    24.337284474559980
 Root    295 :    24.460874123887360
 Root    296 :    24.470143000475030
 Root    297 :    24.486404343764230
 Root    298 :    24.568056390709580
 Root    299 :    24.586475671862690
 Root    300 :    24.593185493806170
 Root    301 :    24.673994278909080
 Root    302 :    24.707832981744860
 Root    303 :    24.759489416840580
 Root    304 :    24.808034021421850
 Root    305 :    24.849760838307450
 Root    306 :    24.892975931774130
 Root    307 :    24.897097817579220
 Root    308 :    24.959413007878320
 Root    309 :    24.974823096308020
 Root    310 :    25.057226093413220
 Root    311 :    25.058381758019810
 Root    312 :    25.198647891132850
 Root    313 :    25.304473114146740
 Root    314 :    25.335136473009070
 Root    315 :    25.388227859995090
 Root    316 :    25.481642575140570
 Root    317 :    25.518727190335860
 Root    318 :    25.552748227556150
 Root    319 :    25.593767310007930
 Root    320 :    25.614863693704710
 Root    321 :    25.727631837396550
 Root    322 :    25.788538910579960
 Root    323 :    25.833565293727540
 Root    324 :    25.885116116511800
 Root    325 :    25.887579594869910
 Root    326 :    25.909805466663270
 Root    327 :    25.978584029783730
 Root    328 :    25.982240534348170
 Root    329 :    26.025388643296470
 Root    330 :    26.044202437497870
 Root    331 :    26.064465722664180
 Root    332 :    26.095104526624000
 Root    333 :    26.154619189627130
 Root    334 :    26.159298668076690
 Root    335 :    26.192204972578950
 Root    336 :    26.249077499014560
 Root    337 :    26.297706605700040
 Root    338 :    26.389274338175780
 Root    339 :    26.441898659315300
 Root    340 :    26.541300506431000
 Root    341 :    26.613130337092360
 Root    342 :    26.670654917776960
 Root    343 :    26.685710257475590
 Root    344 :    26.740712420612690
 Root    345 :    26.745205095144120
 Root    346 :    26.807765580040340
 Root    347 :    26.885465109855160
 Root    348 :    26.893044682479530
 Root    349 :    26.913422163091080
 Root    350 :    27.051443882664080
 Root    351 :    27.136653708537280
 Root    352 :    27.162311873617600
 Root    353 :    27.205147494846940
 Root    354 :    27.214373365085320
 Root    355 :    27.258530652581960
 Root    356 :    27.323436112889780
 Root    357 :    27.338765149104900
 Root    358 :    27.345335955751250
 Root    359 :    27.415706022425670
 Root    360 :    27.487391061868260
 Root    361 :    27.517126870624690
 Root    362 :    27.523776963913120
 Root    363 :    27.614844773511720
 Root    364 :    27.680446932074960
 Root    365 :    27.691943651163540
 Root    366 :    27.742837440012180
 Root    367 :    27.823801109506230
 Root    368 :    27.836848831050660
 Root    369 :    27.894820349450280
 Root    370 :    27.933040759068540
 Root    371 :    28.010223101698590
 Root    372 :    28.015124922725750
 Root    373 :    28.048009289418900
 Root    374 :    28.081126777116970
 Root    375 :    28.102900014359620
 Root    376 :    28.109898481653290
 Root    377 :    28.232572123615750
 Root    378 :    28.235351675331920
 Root    379 :    28.290362803902660
 Root    380 :    28.346690050626890
 Root    381 :    28.407772470287890
 Root    382 :    28.414693127150940
 Root    383 :    28.467251979465450
 Root    384 :    28.503042327427560
 Root    385 :    28.630096402293430
 Root    386 :    28.664629845111270
 Root    387 :    28.719937231575450
 Root    388 :    28.906353424418620
 Root    389 :    28.917826957526610
 Root    390 :    29.018215395666830
 Root    391 :    29.122316072518910
 Root    392 :    29.158815944108390
 Root    393 :    29.244747655733130
 Root    394 :    29.315907175415410
 Root    395 :    29.348589286241450
 Root    396 :    29.375206886646800
 Root    397 :    29.393650334458400
 Root    398 :    29.433191339819070
 Root    399 :    29.449185478831530
 Root    400 :    29.459331277059740
 Root    401 :    29.560865902536700
 Root    402 :    29.683836432890820
 Root    403 :    29.702608642860910
 Root    404 :    29.765395401506140
 Root    405 :    29.840801638147890
 Root    406 :    29.848612359399360
 Root    407 :    29.851273020521900
 Root    408 :    29.908185792807830
 Root    409 :    30.014552426494080
 Root    410 :    30.037459519738160
 Root    411 :    30.131596075754280
 Root    412 :    30.139848863530840
 Root    413 :    30.241783613822380
 Root    414 :    30.352617839763470
 Root    415 :    30.362005030408900
 Root    416 :    30.538939420770090
 Root    417 :    30.579963400879010
 Root    418 :    30.676215721573430
 Root    419 :    30.703477950145800
 Root    420 :    30.850008989534180
 Root    421 :    30.955804428259100
 Root    422 :    30.987239704560050
 Root    423 :    31.046318769646310
 Root    424 :    31.080220075548060
 Root    425 :    31.207086346775000
 Root    426 :    31.261039001085510
 Root    427 :    31.451191640790790
 Root    428 :    31.570148918565350
 Root    429 :    31.599432973337490
 Root    430 :    31.625483096057610
 Root    431 :    31.687222285896130
 Root    432 :    31.749001373550110
 Root    433 :    31.808877330075220
 Root    434 :    31.849739425457650
 Root    435 :    31.875646553766150
 Root    436 :    31.931765516811010
 Root    437 :    32.057743918682020
 Root    438 :    32.118749706756200
 Root    439 :    32.200213929578100
 Root    440 :    32.349460703968410
 Root    441 :    32.443415181738930
 Root    442 :    32.446641013796270
 Root    443 :    32.510651399158250
 Root    444 :    32.646063632638050
 Root    445 :    32.721018252737260
 Root    446 :    32.779308806673120
 Root    447 :    32.904260712527970
 Root    448 :    32.964574815072990
 Root    449 :    33.002242429312100
 Root    450 :    33.018374754330060
 Root    451 :    33.087395400852900
 Root    452 :    33.170731192286070
 Root    453 :    33.384310828382740
 Root    454 :    33.429472935371690
 Root    455 :    33.467593685746850
 Root    456 :    33.498582330086530
 Root    457 :    33.548530956469040
 Root    458 :    33.555258806478780
 Root    459 :    33.573709410137600
 Root    460 :    33.652101133427440
 Root    461 :    33.741046310710590
 Root    462 :    33.823119308598840
 Root    463 :    33.855356998326850
 Root    464 :    33.933536205921710
 Root    465 :    33.965485031999830
 Root    466 :    34.094703137297100
 Root    467 :    34.164802298182710
 Root    468 :    34.256786216512900
 Root    469 :    34.349467342214270
 Root    470 :    34.357417740720150
 Root    471 :    34.415753116628910
 Root    472 :    34.426904907986520
 Root    473 :    34.470229405640700
 Root    474 :    34.733261375595220
 Root    475 :    34.780055625029220
 Root    476 :    34.854729947616860
 Root    477 :    34.900565484882550
 Root    478 :    34.913077429483050
 Root    479 :    34.932497580789230
 Root    480 :    34.983143338802170
 Root    481 :    35.016608105527000
 Root    482 :    35.079779134977790
 Root    483 :    35.157737476767010
 Root    484 :    35.158332113431920
 Root    485 :    35.298275269116220
 Root    486 :    35.303616145257830
 Root    487 :    35.432932913998010
 Root    488 :    35.455129338028700
 Root    489 :    35.548692141008050
 Root    490 :    35.579287854680990
 Root    491 :    35.601207618004030
[...]
      1  -0.131616D+03 -0.131607D+03 -0.131604D+03 -0.131597D+03 -0.131591D+03
      2   0.945724D-02  0.000000D+00  0.262261D-01  0.456401D-01  0.000000D+00
      3   0.178699D-02  0.000000D+00 -0.316645D-01 -0.532354D-01  0.000000D+00
      4   0.000000D+00 -0.478612D-01  0.000000D+00  0.000000D+00  0.207676D-01
      5  -0.202753D-01  0.000000D+00 -0.655475D-01 -0.129923D+00  0.000000D+00
      6  -0.990496D-03  0.000000D+00  0.875699D-01  0.139033D+00  0.000000D+00
      7   0.000000D+00  0.141310D+00  0.000000D+00  0.000000D+00 -0.482621D-01
      8   0.000000D+00  0.120442D+00  0.000000D+00  0.000000D+00  0.205241D+00
      9   0.000000D+00 -0.342473D+00  0.000000D+00  0.000000D+00  0.278350D+00
     10  -0.714521D-01  0.000000D+00 -0.199850D+00 -0.948748D-01  0.000000D+00
     11  -0.127273D+00  0.000000D+00  0.394148D-01 -0.991221D-01  0.000000D+00
     12   0.106633D+00  0.000000D+00 -0.365425D+00  0.989554D-02  0.000000D+00
     13  -0.120069D+01  0.000000D+00  0.212463D+00  0.127502D+01  0.000000D+00
     14   0.113853D+00  0.000000D+00  0.258978D+00  0.114838D+00  0.000000D+00
     15   0.000000D+00 -0.300720D+00  0.000000D+00  0.000000D+00  0.304497D+00
     16   0.000000D+00 -0.394849D+00  0.000000D+00  0.000000D+00 -0.375787D+00
               966           967           968           969           970 
      1  -0.131587D+03 -0.131584D+03 -0.131576D+03 -0.131570D+03 -0.131566D+03
      2  -0.728306D-01  0.000000D+00  0.000000D+00  0.531224D-01 -0.177422D-01
      3  -0.364249D-01  0.000000D+00  0.000000D+00 -0.889548D-01  0.148434D-01
      4   0.000000D+00  0.634312D-01 -0.122550D+00  0.000000D+00  0.000000D+00
      5   0.197092D+00  0.000000D+00  0.000000D+00 -0.154682D+00  0.523850D-01
      6   0.808523D-01  0.000000D+00  0.000000D+00  0.263978D+00 -0.368503D-01
      7   0.000000D+00 -0.200378D+00  0.383712D+00  0.000000D+00  0.000000D+00
      8   0.000000D+00 -0.242895D+00  0.389785D+00  0.000000D+00  0.000000D+00
      9   0.000000D+00  0.230486D+00  0.471440D+00  0.000000D+00  0.000000D+00
     10   0.120327D+00  0.000000D+00  0.000000D+00  0.120898D+00  0.644856D-01
     11   0.617158D-01  0.000000D+00  0.000000D+00 -0.435120D-01 -0.142159D+00
     12  -0.337781D+00  0.000000D+00  0.000000D+00  0.938726D-01  0.435107D-01
     13   0.528388D+00  0.000000D+00  0.000000D+00 -0.520157D+00 -0.190802D+00
     14  -0.570679D-01  0.000000D+00  0.000000D+00 -0.177995D+00  0.308668D-01
     15   0.000000D+00  0.152239D+00  0.542116D+00  0.000000D+00  0.000000D+00
     16   0.000000D+00 -0.494386D-01  0.342964D+00  0.000000D+00  0.000000D+00
               971           972           973           974           975 
      1  -0.131563D+03 -0.131557D+03 -0.131543D+03 -0.131542D+03 -0.131541D+03
      2   0.362618D-01  0.000000D+00 -0.428479D-01 -0.976122D-02  0.000000D+00
      3  -0.733025D-01  0.000000D+00  0.384868D-01  0.909941D-03  0.000000D+00
      4   0.000000D+00 -0.338331D-01  0.000000D+00  0.000000D+00  0.777037D-01
      5  -0.103500D+00  0.000000D+00  0.119824D+00  0.320312D-01  0.000000D+00
      6   0.214297D+00  0.000000D+00 -0.989399D-01  0.129041D-01  0.000000D+00
      7   0.000000D+00  0.783080D-01  0.000000D+00  0.000000D+00 -0.234794D+00
      8   0.000000D+00  0.201869D-01  0.000000D+00  0.000000D+00  0.298977D+00
      9   0.000000D+00 -0.238380D-01  0.000000D+00  0.000000D+00 -0.517963D+00
     10   0.731432D-01  0.000000D+00 -0.103048D+00  0.425461D-01  0.000000D+00
     11   0.925724D-01  0.000000D+00  0.918202D-01 -0.298953D-01  0.000000D+00
     12   0.381612D+00  0.000000D+00 -0.491105D+00  0.595854D+00  0.000000D+00
     13   0.191606D+00  0.000000D+00  0.772212D-01  0.185691D+00  0.000000D+00
     14  -0.187465D+00  0.000000D+00  0.589581D-01 -0.941778D-01  0.000000D+00
     15   0.000000D+00  0.280153D-01  0.000000D+00  0.000000D+00 -0.404262D+00
     16   0.000000D+00  0.132452D+00  0.000000D+00  0.000000D+00 -0.122747D-01
               976           977           978           979           980 
      1  -0.131533D+03 -0.131531D+03 -0.131521D+03 -0.131505D+03 -0.131483D+03
      2  -0.809291D-01  0.000000D+00  0.000000D+00  0.000000D+00  0.000000D+00
      3  -0.682233D-01  0.000000D+00  0.000000D+00  0.000000D+00  0.000000D+00
      4   0.000000D+00 -0.308322D-01 -0.422479D-01 -0.131700D+00  0.271477D-01
      5   0.229085D+00  0.000000D+00  0.000000D+00  0.000000D+00  0.000000D+00
      6   0.208581D+00  0.000000D+00  0.000000D+00  0.000000D+00  0.000000D+00
      7   0.000000D+00  0.102216D+00  0.108735D+00  0.391800D+00 -0.807191D-01
      8   0.000000D+00  0.144735D+00  0.180936D+00 -0.535837D+00 -0.231153D+00
      9   0.000000D+00 -0.302553D+00  0.335712D+00 -0.235506D+00  0.461861D+00
     10  -0.190972D+00  0.000000D+00  0.000000D+00  0.000000D+00  0.000000D+00
     11  -0.169587D-01  0.000000D+00  0.000000D+00  0.000000D+00  0.000000D+00
     12  -0.894654D-01  0.000000D+00  0.000000D+00  0.000000D+00  0.000000D+00
     13  -0.268682D+00  0.000000D+00  0.000000D+00  0.000000D+00  0.000000D+00
     14   0.169269D+00  0.000000D+00  0.000000D+00  0.000000D+00  0.000000D+00
     15   0.000000D+00 -0.305185D+00  0.294894D+00 -0.276991D+00  0.368435D+00
     16   0.000000D+00  0.179943D-01 -0.109097D+00  0.213819D+00  0.166293D+00
               981           982           983           984           985 
      1  -0.131478D+03 -0.131477D+03 -0.131464D+03 -0.131461D+03 -0.131455D+03
      2  -0.118914D-01  0.669990D-02  0.105419D+00  0.000000D+00  0.403680D-01
      3  -0.327235D-01  0.517922D-01 -0.171650D-01  0.000000D+00  0.373873D-01
      4   0.000000D+00  0.000000D+00  0.000000D+00 -0.358725D-01  0.000000D+00
      5   0.147445D-01 -0.523320D-02 -0.292805D+00  0.000000D+00 -0.119489D+00
      6   0.107843D+00 -0.150992D+00  0.549131D-01  0.000000D+00 -0.128109D+00
      7   0.000000D+00  0.000000D+00  0.000000D+00  0.123314D+00  0.000000D+00
      8   0.000000D+00  0.000000D+00  0.000000D+00  0.326542D+00  0.000000D+00
      9   0.000000D+00  0.000000D+00  0.000000D+00 -0.125702D+00  0.000000D+00
     10   0.455614D-01 -0.145855D+00  0.957181D-01  0.000000D+00  0.438904D-01
     11   0.151281D-02 -0.190741D-01  0.189476D-01  0.000000D+00  0.363854D-01
     12   0.217162D+00  0.204646D+00 -0.396218D-01  0.000000D+00  0.103136D+00
     13   0.314177D+00  0.191320D+00 -0.525649D-01  0.000000D+00  0.367260D+00
     14  -0.120559D+00  0.151228D+00 -0.279671D+00  0.000000D+00 -0.122125D+00
     15   0.000000D+00  0.000000D+00  0.000000D+00 -0.875098D-01  0.000000D+00
     16   0.000000D+00  0.000000D+00  0.000000D+00  0.189259D-02  0.000000D+00
               986           987           988           989           990 
      1  -0.131445D+03 -0.131429D+03 -0.131425D+03 -0.131420D+03 -0.131414D+03
      2   0.000000D+00 -0.405744D-01  0.000000D+00  0.604889D-02  0.000000D+00
      3   0.000000D+00 -0.165469D-01  0.000000D+00 -0.124264D+00  0.000000D+00
      4   0.636725D-02  0.000000D+00 -0.108919D+00  0.000000D+00  0.808016D-01
      5   0.000000D+00  0.125259D+00  0.000000D+00 -0.125751D-01  0.000000D+00
      6   0.000000D+00  0.427897D-01  0.000000D+00  0.393767D+00  0.000000D+00
      7  -0.231429D-01  0.000000D+00  0.354180D+00  0.000000D+00 -0.266262D+00
      8   0.136620D+00  0.000000D+00  0.112097D+00  0.000000D+00 -0.800786D-01
      9  -0.138177D-01  0.000000D+00  0.461727D-01  0.000000D+00 -0.178083D+00
     10   0.000000D+00  0.707391D-01  0.000000D+00  0.188227D-01  0.000000D+00
     11   0.000000D+00  0.234910D-01  0.000000D+00  0.469974D-01  0.000000D+00
     12   0.000000D+00  0.193601D-01  0.000000D+00  0.241410D+00  0.000000D+00
     13   0.000000D+00 -0.610844D+00  0.000000D+00  0.499003D+00  0.000000D+00
     14   0.000000D+00 -0.168868D+00  0.000000D+00 -0.833461D-01  0.000000D+00
     15  -0.121340D+00  0.000000D+00 -0.312320D-01  0.000000D+00 -0.102443D+00
     16  -0.316839D-01  0.000000D+00  0.186768D+00  0.000000D+00 -0.359358D+00
               991           992           993           994           995 
      1  -0.131413D+03 -0.131404D+03 -0.131401D+03 -0.131395D+03 -0.131386D+03
      2   0.285964D-01  0.000000D+00  0.254978D-01  0.667458D-02 -0.275528D-01
      3  -0.116639D-01  0.000000D+00 -0.692013D-01 -0.194448D-01  0.864804D-02
      4   0.000000D+00  0.418856D-01  0.000000D+00  0.000000D+00  0.000000D+00
      5  -0.757683D-01  0.000000D+00 -0.632822D-01 -0.162364D-01  0.775571D-01
      6   0.219662D-01  0.000000D+00  0.225878D+00  0.578786D-01 -0.346693D-01
      7   0.000000D+00 -0.144330D+00  0.000000D+00  0.000000D+00  0.000000D+00
      8   0.000000D+00 -0.470479D+00  0.000000D+00  0.000000D+00  0.000000D+00
      9   0.000000D+00 -0.247243D+00  0.000000D+00  0.000000D+00  0.000000D+00
     10  -0.185722D+00  0.000000D+00 -0.621774D-01  0.974460D-02  0.299464D-01
     11   0.894425D-01  0.000000D+00 -0.229806D-03  0.140452D+00 -0.141724D-01
     12  -0.189711D+00  0.000000D+00  0.117009D+00 -0.566230D-01 -0.118159D+00
     13  -0.603042D+00  0.000000D+00 -0.444652D+00  0.319080D+00  0.311149D+00
     14   0.126971D+00  0.000000D+00  0.569855D-01 -0.506187D-01  0.474237D-02
     15   0.000000D+00 -0.149017D+00  0.000000D+00  0.000000D+00  0.000000D+00
     16   0.000000D+00  0.294618D+00  0.000000D+00  0.000000D+00  0.000000D+00
               996           997           998           999          1000 
      1  -0.131379D+03 -0.131373D+03 -0.131366D+03 -0.131362D+03 -0.131346D+03
      2   0.000000D+00  0.391465D-01  0.000000D+00  0.393373D-01  0.238892D-01
      3   0.000000D+00  0.165830D-01  0.000000D+00  0.631896D-02 -0.498169D-01
      4   0.160603D-01  0.000000D+00  0.356948D-01  0.000000D+00  0.000000D+00
      5   0.000000D+00 -0.111003D+00  0.000000D+00 -0.106899D+00 -0.680396D-01
      6   0.000000D+00 -0.501672D-01  0.000000D+00 -0.299267D-01  0.167286D+00
      7  -0.581086D-01  0.000000D+00 -0.129552D+00  0.000000D+00  0.000000D+00
      8  -0.133054D+00  0.000000D+00 -0.169860D+00  0.000000D+00  0.000000D+00
      9  -0.190035D+00  0.000000D+00  0.247564D+00  0.000000D+00  0.000000D+00
     10   0.000000D+00 -0.168219D+00  0.000000D+00 -0.451765D-01  0.214491D-01
     11   0.000000D+00 -0.472957D-01  0.000000D+00 -0.860562D-01 -0.395281D-01
     12   0.000000D+00 -0.879446D-01  0.000000D+00  0.462822D-03  0.506027D+00
     13   0.000000D+00  0.264661D+00  0.000000D+00  0.303750D+00 -0.902127D+00
     14   0.000000D+00  0.713478D-01  0.000000D+00  0.736119D-01 -0.443697D-01
     15  -0.197559D+00  0.000000D+00  0.224138D+00  0.000000D+00  0.000000D+00
     16   0.143248D+00  0.000000D+00  0.482257D-01  0.000000D+00  0.000000D+00
              1001          1002          1003          1004          1005 
      1  -0.131346D+03 -0.131337D+03 -0.131332D+03 -0.131332D+03 -0.131316D+03
      2   0.000000D+00  0.000000D+00  0.000000D+00 -0.122339D-01  0.000000D+00
      3   0.000000D+00  0.000000D+00  0.000000D+00 -0.706980D-02  0.000000D+00
      4  -0.991321D-02 -0.337545D-01 -0.939508D-02  0.000000D+00 -0.452035D-02
      5   0.000000D+00  0.000000D+00  0.000000D+00  0.393147D-01  0.000000D+00
      6   0.000000D+00  0.000000D+00  0.000000D+00  0.148790D-01  0.000000D+00
      7   0.421481D-01  0.964601D-01  0.155095D-01  0.000000D+00  0.312374D-02
      8  -0.416165D+00 -0.558498D-01 -0.370061D+00  0.000000D+00  0.604039D-01
      9  -0.350071D+00  0.861287D-01  0.172457D+00  0.000000D+00 -0.588849D+00
     10   0.000000D+00  0.000000D+00  0.000000D+00 -0.385244D-01  0.000000D+00
     11   0.000000D+00  0.000000D+00  0.000000D+00  0.113317D+00  0.000000D+00
     12   0.000000D+00  0.000000D+00  0.000000D+00 -0.311285D+00  0.000000D+00
     13   0.000000D+00  0.000000D+00  0.000000D+00  0.650595D+00  0.000000D+00
     14   0.000000D+00  0.000000D+00  0.000000D+00  0.535455D-01  0.000000D+00
     15  -0.352017D+00  0.113695D+00  0.211605D-01  0.000000D+00 -0.712041D+00
     16   0.727640D+00  0.976074D-01  0.826199D-01  0.000000D+00 -0.233296D+00
              1006          1007          1008          1009          1010 
      1  -0.131316D+03 -0.131292D+03 -0.131279D+03 -0.131278D+03 -0.131215D+03
      2  -0.212925D-01  0.000000D+00  0.970939D-03  0.000000D+00  0.000000D+00
      3  -0.171198D+00  0.000000D+00 -0.642761D-01  0.000000D+00  0.000000D+00
      4   0.000000D+00 -0.773761D-01  0.000000D+00  0.269599D-02  0.225761D-01
      5   0.675861D-01  0.000000D+00 -0.512084D-02  0.000000D+00  0.000000D+00
      6   0.563061D+00  0.000000D+00  0.163705D+00  0.000000D+00  0.000000D+00
      7   0.000000D+00  0.285319D+00  0.000000D+00 -0.262333D-01 -0.691283D-01
      8   0.000000D+00  0.612990D+00  0.000000D+00 -0.123931D+00  0.167644D-01
      9   0.000000D+00  0.305883D-01  0.000000D+00 -0.309291D-03  0.239315D-01
     10  -0.817792D-01  0.000000D+00 -0.102042D-01  0.000000D+00  0.000000D+00
     11   0.532543D-01  0.000000D+00  0.211962D+00  0.000000D+00  0.000000D+00
     12   0.103745D+01  0.000000D+00 -0.503987D+00  0.000000D+00  0.000000D+00
     13  -0.265711D+00  0.000000D+00  0.445736D+00  0.000000D+00  0.000000D+00
     14  -0.592833D-01  0.000000D+00  0.132158D-01  0.000000D+00  0.000000D+00
     15   0.000000D+00 -0.746457D-01  0.000000D+00  0.137854D-01  0.808711D-01
     16   0.000000D+00 -0.103327D+00  0.000000D+00  0.142970D-01  0.120971D+00
              1011          1012          1013          1014          1015 
      1  -0.131207D+03 -0.131172D+03 -0.131161D+03 -0.131157D+03 -0.131147D+03
      2  -0.320542D-02  0.869923D-01  0.000000D+00  0.545293D-01  0.000000D+00
      3   0.237222D-01 -0.313538D-01  0.000000D+00  0.383363D-01  0.000000D+00
      4   0.000000D+00  0.000000D+00 -0.438591D-01  0.000000D+00  0.782485D-01
      5   0.120084D-01 -0.263322D+00  0.000000D+00 -0.158842D+00  0.000000D+00
      6  -0.772810D-01  0.805808D-01  0.000000D+00 -0.112115D+00  0.000000D+00
      7   0.000000D+00  0.000000D+00  0.129342D+00  0.000000D+00 -0.275148D+00
      8   0.000000D+00  0.000000D+00 -0.457875D+00  0.000000D+00 -0.467222D+00
      9   0.000000D+00  0.000000D+00  0.300336D-01  0.000000D+00 -0.354985D-02
     10   0.253620D-01 -0.237164D-01  0.000000D+00 -0.132011D+00  0.000000D+00
     11  -0.307057D-01 -0.930391D-01  0.000000D+00  0.473081D-01  0.000000D+00
     12   0.216532D-01  0.113235D+00  0.000000D+00 -0.146762D+00  0.000000D+00
     13   0.306230D+00 -0.208218D+00  0.000000D+00 -0.130299D-01  0.000000D+00
     14   0.341987D-01 -0.295020D-01  0.000000D+00 -0.281653D-01  0.000000D+00
     15   0.000000D+00  0.000000D+00  0.496539D-01  0.000000D+00  0.800706D-01
     16   0.000000D+00  0.000000D+00 -0.162588D+00  0.000000D+00  0.110966D+00
              1016          1017          1018          1019          1020 
      1  -0.131144D+03 -0.131141D+03 -0.131105D+03 -0.131100D+03 -0.131075D+03
      2   0.106247D+00  0.000000D+00  0.000000D+00  0.334374D-01  0.000000D+00
      3   0.414334D-01  0.000000D+00  0.000000D+00 -0.191708D-02  0.000000D+00
      4   0.000000D+00 -0.370072D-01  0.337235D-02  0.000000D+00  0.746349D-01
      5  -0.365519D+00  0.000000D+00  0.000000D+00 -0.100490D+00  0.000000D+00
      6  -0.132449D+00  0.000000D+00  0.000000D+00  0.144740D-01  0.000000D+00
      7   0.000000D+00  0.153407D+00 -0.540347D-02  0.000000D+00 -0.278019D+00
      8   0.000000D+00  0.456032D-02 -0.715094D-01  0.000000D+00 -0.223889D+00
      9   0.000000D+00 -0.172294D-02  0.183226D+00  0.000000D+00 -0.494140D-01
     10   0.372568D+00  0.000000D+00  0.000000D+00 -0.211671D-01  0.000000D+00
     11   0.137177D+00  0.000000D+00  0.000000D+00  0.244113D-01  0.000000D+00
     12  -0.256341D+00  0.000000D+00  0.000000D+00  0.980485D-01  0.000000D+00
     13  -0.835060D-01  0.000000D+00  0.000000D+00  0.253392D+00  0.000000D+00
     14  -0.218325D+00  0.000000D+00  0.000000D+00 -0.869452D-01  0.000000D+00
     15   0.000000D+00 -0.954672D-01  0.292623D+00  0.000000D+00  0.711817D-02
     16   0.000000D+00  0.631922D+00  0.821861D-01  0.000000D+00 -0.285809D+00
              1021          1022          1023          1024          1025 
      1  -0.131074D+03 -0.131062D+03 -0.131054D+03 -0.131017D+03 -0.130961D+03
      2  -0.537390D-02  0.000000D+00  0.868936D-02 -0.794121D-01  0.000000D+00
      3   0.250872D-01  0.000000D+00 -0.342066D-01 -0.404528D-01  0.000000D+00
      4   0.000000D+00 -0.875888D-02  0.000000D+00  0.000000D+00  0.396556D-02
      5   0.125879D-01  0.000000D+00 -0.361790D-01  0.272020D+00  0.000000D+00
      6  -0.103391D+00  0.000000D+00  0.111542D+00  0.146961D+00  0.000000D+00
      7   0.000000D+00  0.421001D-01  0.000000D+00  0.000000D+00  0.452659D-02
      8   0.000000D+00 -0.285473D+00  0.000000D+00  0.000000D+00  0.556198D-01
      9   0.000000D+00 -0.120306D-01  0.000000D+00  0.000000D+00 -0.348622D+00
     10  -0.110029D-01  0.000000D+00  0.102227D-01 -0.359348D+00  0.000000D+00
     11   0.654433D-01  0.000000D+00  0.110646D+00 -0.173143D+00  0.000000D+00
     12  -0.461211D+00  0.000000D+00  0.180549D+00  0.507955D+00  0.000000D+00
     13  -0.933425D+00  0.000000D+00 -0.452987D-01  0.255224D+00  0.000000D+00
     14   0.205484D-01  0.000000D+00 -0.355846D-01  0.303326D+00  0.000000D+00
     15   0.000000D+00  0.153674D-02  0.000000D+00  0.000000D+00 -0.370194D+00
     16   0.000000D+00  0.177365D+00  0.000000D+00  0.000000D+00  0.144349D-01
              1026          1027          1028          1029          1030 
      1  -0.130959D+03 -0.130904D+03 -0.130877D+03 -0.130797D+03 -0.130640D+03
      2   0.116878D-01  0.000000D+00 -0.967532D-02  0.000000D+00 -0.531447D-01
      3  -0.284524D-01  0.000000D+00 -0.945907D-02  0.000000D+00 -0.405397D-01
      4   0.000000D+00  0.519301D-01  0.000000D+00 -0.775343D-02  0.000000D+00
      5  -0.407511D-01  0.000000D+00  0.318918D-01  0.000000D+00  0.179589D+00
      6   0.818549D-01  0.000000D+00  0.336101D-01  0.000000D+00  0.116820D+00
      7   0.000000D+00 -0.104104D+00  0.000000D+00  0.537463D-01  0.000000D+00
      8   0.000000D+00  0.305573D-01  0.000000D+00 -0.163964D-01  0.000000D+00
      9   0.000000D+00  0.516961D-01  0.000000D+00  0.799987D-01  0.000000D+00
     10   0.500196D-01  0.000000D+00 -0.133573D-01  0.000000D+00 -0.152656D+00
     11   0.130668D+00  0.000000D+00  0.217853D-01  0.000000D+00 -0.837113D-01
     12  -0.298896D+00  0.000000D+00 -0.501991D-01  0.000000D+00  0.187804D+00
     13   0.282410D+00  0.000000D+00 -0.411220D+00  0.000000D+00  0.371708D-02
     14  -0.674881D-01  0.000000D+00  0.764179D-01  0.000000D+00  0.407457D-01
     15   0.000000D+00  0.102472D+00  0.000000D+00  0.357861D-01  0.000000D+00
     16   0.000000D+00 -0.645243D-01  0.000000D+00  0.337413D+00  0.000000D+00
 Unable to Open any file for archive entry.
 1\1\GINC-HEL10\SP\RCAM-B3LYP TD-FC\Gen\C2H7N1\SABYASACHI\21-Mar-2022\0
 \\#P TD(Nstates=10000) cam-b3lyp/Gen SCF(maxcycles=100) Int(Grid=ultra
 fine)\\xGDB7_00001_tier4.com\\0,1\C,0,-0.026655,-0.220923,1.206915\N,0
 ,-0.026655,0.579675,0.\C,0,-0.026655,-0.220923,-1.206915\H,0,0.028929,
 0.427196,2.08233\H,0,0.800836,-0.947383,1.258571\H,0,-0.961718,-0.7830
 94,1.269367\H,0,0.770359,1.199905,0.\H,0,-0.961718,-0.783094,-1.269367
 \H,0,0.800836,-0.947383,-1.258571\H,0,0.028929,0.427196,-2.08233\\Vers
 ion=EM64L-G16RevC.01\State=1-A'\HF=-134.9965112\RMSD=2.314e-09\PG=CS [
 SG(H1N1),X(C2H6)]\\@
 The archive entry for this job was punched.


 THE TEST OF A FIRST RATE INTELLIGENCE IS THE ABILITY TO HOLD TWO OPPOSED
 IDEAS IN THE MIND AT THE SAME TIME, AND STILL RETAIN THE ABILITY TO FUNCTION.
 ONE SHOULD, FOR EXAMPLE, BE ABLE TO SEE THAT THINGS ARE HOPELESS AND YET BE
 DETERMINED TO MAKE THEM OTHERWISE.

                                                       -- F. SCOTT FITZGERALD
 Job cpu time:       0 days  0 hours 16 minutes 17.0 seconds.
 Elapsed time:       0 days  0 hours  2 minutes  2.4 seconds.
 File lengths (MBytes):  RWF=   1370 Int=      0 D2E=      0 Chk=    332 Scr=      1
 Normal termination of Gaussian 16 at Mon Mar 21 20:23:33 2022.
