 Entering Gaussian System, Link 0=g16
 Input=000028.com
 Output=000028.log
 Initial command:
 /home/sabyasachi/g16/l1.exe "/scratch/sabyasachi/PBS_7976294.helios/Gau-46845.inp" -scrdir="/scratch/sabyasachi/PBS_7976294.helios/"
 Entering Link 1 = /home/sabyasachi/g16/l1.exe PID=     46846.
  
 Copyright (c) 1988-2019, Gaussian, Inc.  All Rights Reserved.
  
 This is part of the Gaussian(R) 16 program.  It is based on
 the Gaussian(R) 09 system (copyright 2009, Gaussian, Inc.),
 the Gaussian(R) 03 system (copyright 2003, Gaussian, Inc.),
 the Gaussian(R) 98 system (copyright 1998, Gaussian, Inc.),
 the Gaussian(R) 94 system (copyright 1995, Gaussian, Inc.),
 the Gaussian 92(TM) system (copyright 1992, Gaussian, Inc.),
 the Gaussian 90(TM) system (copyright 1990, Gaussian, Inc.),
 the Gaussian 88(TM) system (copyright 1988, Gaussian, Inc.),
 the Gaussian 86(TM) system (copyright 1986, Carnegie Mellon
 University), and the Gaussian 82(TM) system (copyright 1983,
 Carnegie Mellon University). Gaussian is a federally registered
 trademark of Gaussian, Inc.
  
 This software contains proprietary and confidential information,
 including trade secrets, belonging to Gaussian, Inc.
  
 This software is provided under written license and may be
 used, copied, transmitted, or stored only in accord with that
 written license.
  
 The following legend is applicable only to US Government
 contracts under FAR:
  
                    RESTRICTED RIGHTS LEGEND
  
 Use, reproduction and disclosure by the US Government is
 subject to restrictions as set forth in subparagraphs (a)
 and (c) of the Commercial Computer Software - Restricted
 Rights clause in FAR 52.227-19.
  
 Gaussian, Inc.
 340 Quinnipiac St., Bldg. 40, Wallingford CT 06492
  
  
 ---------------------------------------------------------------
 Warning -- This program may not be used in any manner that
 competes with the business of Gaussian, Inc. or will provide
 assistance to any competitor of Gaussian, Inc.  The licensee
 of this program is prohibited from giving any competitor of
 Gaussian, Inc. access to this program.  By using this program,
 the user acknowledges that Gaussian, Inc. is engaged in the
 business of creating and licensing software in the field of
 computational chemistry and represents and warrants to the
 licensee that it is not a competitor of Gaussian, Inc. and that
 it will not use this program in any manner prohibited above.
 ---------------------------------------------------------------
  

 Cite this work as:
 Gaussian 16, Revision C.01,
 M. J. Frisch, G. W. Trucks, H. B. Schlegel, G. E. Scuseria, 
 M. A. Robb, J. R. Cheeseman, G. Scalmani, V. Barone, 
 G. A. Petersson, H. Nakatsuji, X. Li, M. Caricato, A. V. Marenich, 
 J. Bloino, B. G. Janesko, R. Gomperts, B. Mennucci, H. P. Hratchian, 
 J. V. Ortiz, A. F. Izmaylov, J. L. Sonnenberg, D. Williams-Young, 
 F. Ding, F. Lipparini, F. Egidi, J. Goings, B. Peng, A. Petrone, 
 T. Henderson, D. Ranasinghe, V. G. Zakrzewski, J. Gao, N. Rega, 
 G. Zheng, W. Liang, M. Hada, M. Ehara, K. Toyota, R. Fukuda, 
 J. Hasegawa, M. Ishida, T. Nakajima, Y. Honda, O. Kitao, H. Nakai, 
 T. Vreven, K. Throssell, J. A. Montgomery, Jr., J. E. Peralta, 
 F. Ogliaro, M. J. Bearpark, J. J. Heyd, E. N. Brothers, K. N. Kudin, 
 V. N. Staroverov, T. A. Keith, R. Kobayashi, J. Normand, 
 K. Raghavachari, A. P. Rendell, J. C. Burant, S. S. Iyengar, 
 J. Tomasi, M. Cossi, J. M. Millam, M. Klene, C. Adamo, R. Cammi, 
 J. W. Ochterski, R. L. Martin, K. Morokuma, O. Farkas, 
 J. B. Foresman, and D. J. Fox, Gaussian, Inc., Wallingford CT, 2019.
 
 ******************************************
 Gaussian 16:  EM64L-G16RevC.01  3-Jul-2019
                21-Mar-2022 
 ******************************************
 %mem=64gb
 %nproc=8
 Will use up to    8 processors via shared memory.
 ----------------------------------------------------------------------
 #P TD(Nstates=10000) cam-b3lyp/Gen SCF(maxcycles=100) Int(Grid=ultrafi
 ne)
 ----------------------------------------------------------------------
 1/38=1,172=1/1;
 2/12=2,17=6,18=5,40=1/2;
 3/5=7,11=9,25=1,30=1,74=-40,75=-5/1,2,3,8;
 4//1;
 5/5=2,7=100,38=5/2;
 8/6=1,10=1,108=10000/1;
 9/41=10000,42=1,70=2/14;
 6/7=2,8=2,9=2,10=2/1;
 99/5=1,9=1/99;
 Leave Link    1 at Mon Mar 21 20:10:17 2022, MaxMem=  8589934592 cpu:               0.3 elap:               0.0
 (Enter /home/sabyasachi/g16/l101.exe)
 ---------------------
 xGDB7_00001_tier4.com
 ---------------------
 Symbolic Z-matrix:
 Charge =  0 Multiplicity = 1
 7                     1.10644   0.14251  -0.09098 
 7                    -0.08075  -0.51252   0.00607 
 6                    -1.1487    0.16746   0.00817 
 1                     1.85475  -0.40992   0.29153 
 1                     1.10968   1.10045   0.24271 
 1                    -2.08985  -0.3662    0.03525 
 1                    -1.16221   1.26097  -0.02408 
 
 ITRead=  0  0  0  0  0  0  0
 MicOpt= -1 -1 -1 -1 -1 -1 -1
 NAtoms=      7 NQM=        7 NQMF=       0 NMMI=      0 NMMIF=      0
                NMic=       0 NMicF=      0.
                    Isotopes and Nuclear Properties:
 (Nuclear quadrupole moments (NQMom) in fm**2, nuclear magnetic moments (NMagM)
  in nuclear magnetons)

  Atom         1           2           3           4           5           6           7
 IAtWgt=          14          14          12           1           1           1           1
 AtmWgt=  14.0030740  14.0030740  12.0000000   1.0078250   1.0078250   1.0078250   1.0078250
 NucSpn=           2           2           0           1           1           1           1
 AtZEff=  -0.0000000  -0.0000000  -0.0000000  -0.0000000  -0.0000000  -0.0000000  -0.0000000
 NQMom=    2.0440000   2.0440000   0.0000000   0.0000000   0.0000000   0.0000000   0.0000000
 NMagM=    0.4037610   0.4037610   0.0000000   2.7928460   2.7928460   2.7928460   2.7928460
 AtZNuc=   7.0000000   7.0000000   6.0000000   1.0000000   1.0000000   1.0000000   1.0000000
 Leave Link  101 at Mon Mar 21 20:10:17 2022, MaxMem=  8589934592 cpu:               0.6 elap:               0.1
 (Enter /home/sabyasachi/g16/l202.exe)
                          Input orientation:                          
 ---------------------------------------------------------------------
 Center     Atomic      Atomic             Coordinates (Angstroms)
 Number     Number       Type             X           Y           Z
 ---------------------------------------------------------------------
      1          7           0        1.106441    0.142513   -0.090982
      2          7           0       -0.080753   -0.512520    0.006066
      3          6           0       -1.148696    0.167456    0.008166
      4          1           0        1.854749   -0.409916    0.291533
      5          1           0        1.109677    1.100453    0.242713
      6          1           0       -2.089851   -0.366199    0.035249
      7          1           0       -1.162208    1.260974   -0.024080
 ---------------------------------------------------------------------
                    Distance matrix (angstroms):
                    1          2          3          4          5
     1  N    0.000000
     2  N    1.359381   0.000000
     3  C    2.257453   1.266047   0.000000
     4  H    1.005714   1.959129   3.071537   0.000000
     5  H    1.014402   2.018615   2.454739   1.684853   0.000000
     6  H    3.238982   2.014631   1.082263   3.953158   3.525775
     7  H    2.530257   2.077435   1.094077   3.463165   2.293122
                    6          7
     6  H    0.000000
     7  H    1.873962   0.000000
 Stoichiometry    CH4N2
 Framework group  C1[X(CH4N2)]
 Deg. of freedom    15
 Full point group                 C1      NOp   1
 Largest Abelian subgroup         C1      NOp   1
 Largest concise Abelian subgroup C1      NOp   1
                         Standard orientation:                         
 ---------------------------------------------------------------------
 Center     Atomic      Atomic             Coordinates (Angstroms)
 Number     Number       Type             X           Y           Z
 ---------------------------------------------------------------------
      1          7           0        1.106441    0.142513   -0.090982
      2          7           0       -0.080753   -0.512520    0.006066
      3          6           0       -1.148696    0.167456    0.008166
      4          1           0        1.854749   -0.409916    0.291533
      5          1           0        1.109676    1.100453    0.242713
      6          1           0       -2.089851   -0.366199    0.035249
      7          1           0       -1.162209    1.260974   -0.024080
 ---------------------------------------------------------------------
 Rotational constants (GHZ):          66.3844039          11.5398193           9.9244358
 Leave Link  202 at Mon Mar 21 20:10:17 2022, MaxMem=  8589934592 cpu:               0.1 elap:               0.0
 (Enter /home/sabyasachi/g16/l301.exe)
 General basis read from cards:  (5D, 7F)
 Centers:       4      5      6      7
 S 3 1.00
     Exponent=  1.3010701000D+01 Coefficients=  1.9682158000D-02
     Exponent=  1.9622572000D+00 Coefficients=  1.3796524000D-01
     Exponent=  4.4453796000D-01 Coefficients=  4.7831935000D-01
 S 1 1.00
     Exponent=  1.2194962000D-01 Coefficients=  1.0000000000D+00
 P 1 1.00
     Exponent=  8.0000000000D-01 Coefficients=  1.0000000000D+00
 P 1 1.00
     Exponent=  1.1704099050D-01 Coefficients=  1.0000000000D+00
 ****
 Centers:       3
 S 5 1.00
     Exponent=  1.2384016938D+03 Coefficients=  5.4568832082D-03
     Exponent=  1.8629004992D+02 Coefficients=  4.0638409211D-02
     Exponent=  4.2251176346D+01 Coefficients=  1.8025593888D-01
     Exponent=  1.1676557932D+01 Coefficients=  4.6315121755D-01
     Exponent=  3.5930506482D+00 Coefficients=  4.4087173314D-01
 S 1 1.00
     Exponent=  4.0245147363D-01 Coefficients=  1.0000000000D+00
 S 1 1.00
     Exponent=  1.3090182668D-01 Coefficients=  1.0000000000D+00
 S 1 1.00
     Exponent=  6.7053540256D-02 Coefficients=  1.0000000000D+00
 P 3 1.00
     Exponent=  9.4680970621D+00 Coefficients=  3.8387871728D-02
     Exponent=  2.0103545142D+00 Coefficients=  2.1117025112D-01
     Exponent=  5.4771004707D-01 Coefficients=  5.1328172114D-01
 P 1 1.00
     Exponent=  1.5268613795D-01 Coefficients=  1.0000000000D+00
 D 1 1.00
     Exponent=  8.0000000000D-01 Coefficients=  1.0000000000D+00
 D 1 1.00
     Exponent=  1.1713185140D-01 Coefficients=  1.0000000000D+00
 ****
 Centers:       1      2
 S 5 1.00
     Exponent=  1.7128415853D+03 Coefficients= -5.3934125305D-03
     Exponent=  2.5764812677D+02 Coefficients= -4.0221581118D-02
     Exponent=  5.8458245853D+01 Coefficients= -1.7931144990D-01
     Exponent=  1.6198367905D+01 Coefficients= -4.6376317823D-01
     Exponent=  5.0052600809D+00 Coefficients= -4.4171422662D-01
 S 1 1.00
     Exponent=  5.8731856571D-01 Coefficients=  1.0000000000D+00
 S 1 1.00
     Exponent=  1.8764592253D-01 Coefficients=  1.0000000000D+00
 S 1 1.00
     Exponent=  9.6171241529D-02 Coefficients=  1.0000000000D+00
 P 3 1.00
     Exponent=  1.3571470233D+01 Coefficients= -4.0072398852D-02
     Exponent=  2.9257372874D+00 Coefficients= -2.1807045028D-01
     Exponent=  7.9927750754D-01 Coefficients= -5.1294466049D-01
 P 1 1.00
     Exponent=  2.1954348034D-01 Coefficients=  1.0000000000D+00
 D 1 1.00
     Exponent=  1.0000000000D+00 Coefficients=  1.0000000000D+00
 D 1 1.00
     Exponent=  1.6697708112D-01 Coefficients=  1.0000000000D+00
 ****
 Ernie: Thresh=  0.10000D-02 Tol=  0.10000D-05 Strict=F.
 There are    98 symmetry adapted cartesian basis functions of A   symmetry.
 There are    92 symmetry adapted basis functions of A   symmetry.
    92 basis functions,   136 primitive gaussians,    98 cartesian basis functions
    12 alpha electrons       12 beta electrons
       nuclear repulsion energy        73.1919062595 Hartrees.
 IExCor=20419 DFT=T Ex+Corr=CAM-B3LYP ExCW=0 ScaHFX=  1.000000
 ScaDFX=  1.000000  1.000000  1.000000  0.810000 ScalE2=  1.000000  1.000000
 IRadAn=      5 IRanWt=     -1 IRanGd=            0 ICorTp=0 IEmpDi=  4
 HFx  wShort=  0.000000 wLong=  0.330000 cFull=  0.190000 cShort=  0.000000 cLong=  0.460000
 DFx  wShort=  0.000000 wLong=  0.330000 cFull=  0.190000 cShort=  0.000000 cLong=  0.460000
 NAtoms=    7 NActive=    7 NUniq=    7 SFac= 1.00D+00 NAtFMM=   60 NAOKFM=F Big=F
 Integral buffers will be    131072 words long.
 Raffenetti 1 integral format.
 Two-electron integral symmetry is turned on.
 Leave Link  301 at Mon Mar 21 20:10:17 2022, MaxMem=  8589934592 cpu:               0.6 elap:               0.1
 (Enter /home/sabyasachi/g16/l302.exe)
 NPDir=0 NMtPBC=     1 NCelOv=     1 NCel=       1 NClECP=     1 NCelD=      1
         NCelK=      1 NCelE2=     1 NClLst=     1 CellRange=     0.0.
 One-electron integrals computed using PRISM.
 One-electron integral symmetry used in STVInt
 NBasis=    92 RedAO= T EigKep=  3.91D-04  NBF=    92
 NBsUse=    92 1.00D-06 EigRej= -1.00D+00 NBFU=    92
 Precomputing XC quadrature grid using
 IXCGrd= 4 IRadAn=           5 IRanWt=          -1 IRanGd=           0 AccXCQ= 0.00D+00.
 Generated NRdTot=       0 NPtTot=           0 NUsed=           0 NTot=          32
 NSgBfM=    98    98    98    98    98 MxSgAt=     7 MxSgA2=     7.
 Leave Link  302 at Mon Mar 21 20:10:18 2022, MaxMem=  8589934592 cpu:               1.0 elap:               0.1
 (Enter /home/sabyasachi/g16/l303.exe)
 DipDrv:  MaxL=1.
 Leave Link  303 at Mon Mar 21 20:10:18 2022, MaxMem=  8589934592 cpu:               0.2 elap:               0.0
 (Enter /home/sabyasachi/g16/l308.exe)
 Leave Link  308 at Mon Mar 21 20:10:18 2022, MaxMem=  8589934592 cpu:               0.2 elap:               0.0
 (Enter /home/sabyasachi/g16/l401.exe)
 ExpMin= 6.71D-02 ExpMax= 1.71D+03 ExpMxC= 2.58D+02 IAcc=3 IRadAn=         5 AccDes= 0.00D+00
 Harris functional with IExCor=20419 and IRadAn=       5 diagonalized for initial guess.
 HarFok:  IExCor=20419 AccDes= 0.00D+00 IRadAn=         5 IDoV= 1 UseB2=F ITyADJ=14
 ICtDFT=  3500011 ScaDFX=  1.000000  1.000000  1.000000  1.000000
 FoFCou: FMM=F IPFlag=           0 FMFlag=      100000 FMFlg1=           0
         NFxFlg=           0 DoJE=T BraDBF=F KetDBF=T FulRan=T
         wScrn=  0.000000 ICntrl=       500 IOpCl=  0 I1Cent=   200000004 NGrid=           0
         NMat0=    1 NMatS0=      1 NMatT0=    0 NMatD0=    1 NMtDS0=    0 NMtDT0=    0
 Petite list used in FoFCou.
 Harris En= -144.090282187443    
 JPrj=0 DoOrth=F DoCkMO=F.
 Leave Link  401 at Mon Mar 21 20:10:18 2022, MaxMem=  8589934592 cpu:               2.5 elap:               0.3
 (Enter /home/sabyasachi/g16/l502.exe)
 Keep R1 ints in memory in canonical form, NReq=26088976.
 FoFCou: FMM=F IPFlag=           0 FMFlag=           0 FMFlg1=           0
         NFxFlg=           0 DoJE=F BraDBF=F KetDBF=F FulRan=T
         wScrn=  0.000000 ICntrl=       600 IOpCl=  0 I1Cent=           0 NGrid=           0
         NMat0=    1 NMatS0=   4278 NMatT0=    0 NMatD0=    1 NMtDS0=    0 NMtDT0=    0
 Symmetry not used in FoFCou.
 Two-electron integral symmetry not used.
 Closed shell SCF:
 Using DIIS extrapolation, IDIIS=  1040.
 NGot=  8589934592 LenX=  8571607788 LenY=  8571597743
 Requested convergence on RMS density matrix=1.00D-08 within 100 cycles.
 Requested convergence on MAX density matrix=1.00D-06.
 Requested convergence on             energy=1.00D-06.
 No special actions if energy rises.
 Integral accuracy reduced to 1.0D-05 until final iterations.

 Cycle   1  Pass 0  IDiag  1:
 E= -149.734373386930    
 DIIS: error= 2.15D-02 at cycle   1 NSaved=   1.
 NSaved= 1 IEnMin= 1 EnMin= -149.734373386930     IErMin= 1 ErrMin= 2.15D-02
 ErrMax= 2.15D-02  0.00D+00 EMaxC= 1.00D-01 BMatC= 8.98D-02 BMatP= 8.98D-02
 IDIUse=3 WtCom= 7.85D-01 WtEn= 2.15D-01
 Coeff-Com:  0.100D+01
 Coeff-En:   0.100D+01
 Coeff:      0.100D+01
 Gap=     0.335 Goal=   None    Shift=    0.000
 GapD=    0.335 DampG=1.000 DampE=0.500 DampFc=0.5000 IDamp=-1.
 Damping current iteration by 5.00D-01
 RMSDP=9.98D-03 MaxDP=2.65D-01              OVMax= 2.26D-01

 Cycle   2  Pass 0  IDiag  1:
 E= -149.754641499418     Delta-E=       -0.020268112488 Rises=F Damp=T
 DIIS: error= 8.62D-03 at cycle   2 NSaved=   2.
 NSaved= 2 IEnMin= 2 EnMin= -149.754641499418     IErMin= 2 ErrMin= 8.62D-03
 ErrMax= 8.62D-03  0.00D+00 EMaxC= 1.00D-01 BMatC= 1.40D-02 BMatP= 8.98D-02
 IDIUse=3 WtCom= 9.14D-01 WtEn= 8.62D-02
 Coeff-Com:  0.398D-01 0.960D+00
 Coeff-En:   0.227D+00 0.773D+00
 Coeff:      0.559D-01 0.944D+00
 Gap=     0.328 Goal=   None    Shift=    0.000
 RMSDP=2.43D-03 MaxDP=5.25D-02 DE=-2.03D-02 OVMax= 1.33D-01

 Cycle   3  Pass 0  IDiag  1:
 E= -149.786839589303     Delta-E=       -0.032198089885 Rises=F Damp=F
 DIIS: error= 4.78D-03 at cycle   3 NSaved=   3.
 NSaved= 3 IEnMin= 3 EnMin= -149.786839589303     IErMin= 3 ErrMin= 4.78D-03
 ErrMax= 4.78D-03  0.00D+00 EMaxC= 1.00D-01 BMatC= 3.59D-03 BMatP= 1.40D-02
 IDIUse=3 WtCom= 9.52D-01 WtEn= 4.78D-02
 Coeff-Com: -0.146D+00 0.317D+00 0.829D+00
 Coeff-En:   0.000D+00 0.000D+00 0.100D+01
 Coeff:     -0.139D+00 0.302D+00 0.837D+00
 Gap=     0.341 Goal=   None    Shift=    0.000
 RMSDP=1.22D-03 MaxDP=3.32D-02 DE=-3.22D-02 OVMax= 2.86D-02

 Cycle   4  Pass 0  IDiag  1:
 E= -149.790100427981     Delta-E=       -0.003260838678 Rises=F Damp=F
 DIIS: error= 9.58D-04 at cycle   4 NSaved=   4.
 NSaved= 4 IEnMin= 4 EnMin= -149.790100427981     IErMin= 4 ErrMin= 9.58D-04
 ErrMax= 9.58D-04  0.00D+00 EMaxC= 1.00D-01 BMatC= 1.25D-04 BMatP= 3.59D-03
 IDIUse=3 WtCom= 9.90D-01 WtEn= 9.58D-03
 Coeff-Com: -0.410D-01 0.748D-01 0.302D+00 0.664D+00
 Coeff-En:   0.000D+00 0.000D+00 0.000D+00 0.100D+01
 Coeff:     -0.406D-01 0.740D-01 0.299D+00 0.667D+00
 Gap=     0.343 Goal=   None    Shift=    0.000
 RMSDP=1.43D-04 MaxDP=3.20D-03 DE=-3.26D-03 OVMax= 3.75D-03

 Cycle   5  Pass 0  IDiag  1:
 E= -149.790203537043     Delta-E=       -0.000103109062 Rises=F Damp=F
 DIIS: error= 2.45D-04 at cycle   5 NSaved=   5.
 NSaved= 5 IEnMin= 5 EnMin= -149.790203537043     IErMin= 5 ErrMin= 2.45D-04
 ErrMax= 2.45D-04  0.00D+00 EMaxC= 1.00D-01 BMatC= 9.64D-06 BMatP= 1.25D-04
 IDIUse=3 WtCom= 9.98D-01 WtEn= 2.45D-03
 Coeff-Com: -0.419D-02 0.352D-02 0.622D-01 0.260D+00 0.679D+00
 Coeff-En:   0.000D+00 0.000D+00 0.000D+00 0.000D+00 0.100D+01
 Coeff:     -0.418D-02 0.351D-02 0.620D-01 0.259D+00 0.680D+00
 Gap=     0.343 Goal=   None    Shift=    0.000
 RMSDP=5.81D-05 MaxDP=1.53D-03 DE=-1.03D-04 OVMax= 8.09D-04

 Cycle   6  Pass 0  IDiag  1:
 E= -149.790212486021     Delta-E=       -0.000008948978 Rises=F Damp=F
 DIIS: error= 1.37D-04 at cycle   6 NSaved=   6.
 NSaved= 6 IEnMin= 6 EnMin= -149.790212486021     IErMin= 6 ErrMin= 1.37D-04
 ErrMax= 1.37D-04  0.00D+00 EMaxC= 1.00D-01 BMatC= 1.07D-06 BMatP= 9.64D-06
 IDIUse=3 WtCom= 9.99D-01 WtEn= 1.37D-03
 Coeff-Com:  0.697D-02-0.139D-01-0.346D-01-0.530D-01 0.198D+00 0.896D+00
 Coeff-En:   0.000D+00 0.000D+00 0.000D+00 0.000D+00 0.000D+00 0.100D+01
 Coeff:      0.697D-02-0.139D-01-0.345D-01-0.529D-01 0.198D+00 0.896D+00
 Gap=     0.343 Goal=   None    Shift=    0.000
 RMSDP=2.88D-05 MaxDP=7.46D-04 DE=-8.95D-06 OVMax= 7.72D-04

 Cycle   7  Pass 0  IDiag  1:
 E= -149.790214008350     Delta-E=       -0.000001522329 Rises=F Damp=F
 DIIS: error= 2.52D-05 at cycle   7 NSaved=   7.
 NSaved= 7 IEnMin= 7 EnMin= -149.790214008350     IErMin= 7 ErrMin= 2.52D-05
 ErrMax= 2.52D-05  0.00D+00 EMaxC= 1.00D-01 BMatC= 9.89D-08 BMatP= 1.07D-06
 IDIUse=1 WtCom= 1.00D+00 WtEn= 0.00D+00
 Coeff-Com:  0.284D-02-0.553D-02-0.152D-01-0.340D-01 0.300D-01 0.348D+00
 Coeff-Com:  0.674D+00
 Coeff:      0.284D-02-0.553D-02-0.152D-01-0.340D-01 0.300D-01 0.348D+00
 Coeff:      0.674D+00
 Gap=     0.343 Goal=   None    Shift=    0.000
 RMSDP=5.57D-06 MaxDP=1.06D-04 DE=-1.52D-06 OVMax= 1.11D-04

 Initial convergence to 1.0D-05 achieved.  Increase integral accuracy.
 Cycle   8  Pass 1  IDiag  1:
 E= -149.790214062638     Delta-E=       -0.000000054288 Rises=F Damp=F
 DIIS: error= 7.86D-06 at cycle   1 NSaved=   1.
 NSaved= 1 IEnMin= 1 EnMin= -149.790214062638     IErMin= 1 ErrMin= 7.86D-06
 ErrMax= 7.86D-06  0.00D+00 EMaxC= 1.00D-01 BMatC= 4.38D-09 BMatP= 4.38D-09
 IDIUse=1 WtCom= 1.00D+00 WtEn= 0.00D+00
 Coeff-Com:  0.100D+01
 Coeff:      0.100D+01
 Gap=     0.343 Goal=   None    Shift=    0.000
 RMSDP=5.57D-06 MaxDP=1.06D-04 DE=-5.43D-08 OVMax= 5.10D-05

 Cycle   9  Pass 1  IDiag  1:
 E= -149.790214070061     Delta-E=       -0.000000007423 Rises=F Damp=F
 DIIS: error= 6.08D-06 at cycle   2 NSaved=   2.
 NSaved= 2 IEnMin= 2 EnMin= -149.790214070061     IErMin= 2 ErrMin= 6.08D-06
 ErrMax= 6.08D-06  0.00D+00 EMaxC= 1.00D-01 BMatC= 2.84D-09 BMatP= 4.38D-09
 IDIUse=1 WtCom= 1.00D+00 WtEn= 0.00D+00
 Coeff-Com:  0.431D+00 0.569D+00
 Coeff:      0.431D+00 0.569D+00
 Gap=     0.343 Goal=   None    Shift=    0.000
 RMSDP=9.58D-07 MaxDP=2.29D-05 DE=-7.42D-09 OVMax= 3.36D-05

 Cycle  10  Pass 1  IDiag  1:
 E= -149.790214072929     Delta-E=       -0.000000002869 Rises=F Damp=F
 DIIS: error= 1.97D-06 at cycle   3 NSaved=   3.
 NSaved= 3 IEnMin= 3 EnMin= -149.790214072929     IErMin= 3 ErrMin= 1.97D-06
 ErrMax= 1.97D-06  0.00D+00 EMaxC= 1.00D-01 BMatC= 5.72D-10 BMatP= 2.84D-09
 IDIUse=1 WtCom= 1.00D+00 WtEn= 0.00D+00
 Coeff-Com: -0.545D-01 0.259D+00 0.796D+00
 Coeff:     -0.545D-01 0.259D+00 0.796D+00
 Gap=     0.343 Goal=   None    Shift=    0.000
 RMSDP=5.44D-07 MaxDP=1.14D-05 DE=-2.87D-09 OVMax= 1.11D-05

 Cycle  11  Pass 1  IDiag  1:
 E= -149.790214073648     Delta-E=       -0.000000000718 Rises=F Damp=F
 DIIS: error= 6.54D-07 at cycle   4 NSaved=   4.
 NSaved= 4 IEnMin= 4 EnMin= -149.790214073648     IErMin= 4 ErrMin= 6.54D-07
 ErrMax= 6.54D-07  0.00D+00 EMaxC= 1.00D-01 BMatC= 5.08D-11 BMatP= 5.72D-10
 IDIUse=1 WtCom= 1.00D+00 WtEn= 0.00D+00
 Coeff-Com: -0.111D+00 0.159D-01 0.305D+00 0.791D+00
 Coeff:     -0.111D+00 0.159D-01 0.305D+00 0.791D+00
 Gap=     0.343 Goal=   None    Shift=    0.000
 RMSDP=2.48D-07 MaxDP=6.65D-06 DE=-7.18D-10 OVMax= 9.87D-06

 Cycle  12  Pass 1  IDiag  1:
 E= -149.790214073753     Delta-E=       -0.000000000105 Rises=F Damp=F
 DIIS: error= 1.38D-07 at cycle   5 NSaved=   5.
 NSaved= 5 IEnMin= 5 EnMin= -149.790214073753     IErMin= 5 ErrMin= 1.38D-07
 ErrMax= 1.38D-07  0.00D+00 EMaxC= 1.00D-01 BMatC= 2.99D-12 BMatP= 5.08D-11
 IDIUse=1 WtCom= 1.00D+00 WtEn= 0.00D+00
 Coeff-Com: -0.266D-01-0.505D-02 0.196D-01 0.220D+00 0.792D+00
 Coeff:     -0.266D-01-0.505D-02 0.196D-01 0.220D+00 0.792D+00
 Gap=     0.343 Goal=   None    Shift=    0.000
 RMSDP=4.46D-08 MaxDP=1.08D-06 DE=-1.05D-10 OVMax= 9.10D-07

 Cycle  13  Pass 1  IDiag  1:
 E= -149.790214073754     Delta-E=       -0.000000000001 Rises=F Damp=F
 DIIS: error= 2.37D-08 at cycle   6 NSaved=   6.
 NSaved= 6 IEnMin= 6 EnMin= -149.790214073754     IErMin= 6 ErrMin= 2.37D-08
 ErrMax= 2.37D-08  0.00D+00 EMaxC= 1.00D-01 BMatC= 1.06D-13 BMatP= 2.99D-12
 IDIUse=1 WtCom= 1.00D+00 WtEn= 0.00D+00
 Coeff-Com:  0.763D-02-0.284D-04-0.299D-01-0.360D-01 0.724D-01 0.986D+00
 Coeff:      0.763D-02-0.284D-04-0.299D-01-0.360D-01 0.724D-01 0.986D+00
 Gap=     0.343 Goal=   None    Shift=    0.000
 RMSDP=1.21D-08 MaxDP=1.38D-07 DE=-8.53D-13 OVMax= 2.36D-07

 Cycle  14  Pass 1  IDiag  1:
 E= -149.790214073757     Delta-E=       -0.000000000003 Rises=F Damp=F
 DIIS: error= 8.67D-09 at cycle   7 NSaved=   7.
 NSaved= 7 IEnMin= 7 EnMin= -149.790214073757     IErMin= 7 ErrMin= 8.67D-09
 ErrMax= 8.67D-09  0.00D+00 EMaxC= 1.00D-01 BMatC= 1.10D-14 BMatP= 1.06D-13
 IDIUse=1 WtCom= 1.00D+00 WtEn= 0.00D+00
 Coeff-Com:  0.380D-02 0.257D-04-0.139D-01-0.197D-01 0.143D-01 0.407D+00
 Coeff-Com:  0.609D+00
 Coeff:      0.380D-02 0.257D-04-0.139D-01-0.197D-01 0.143D-01 0.407D+00
 Coeff:      0.609D+00
 Gap=     0.343 Goal=   None    Shift=    0.000
 RMSDP=2.21D-09 MaxDP=7.76D-08 DE=-3.41D-12 OVMax= 3.34D-08

 SCF Done:  E(RCAM-B3LYP) =  -149.790214074     A.U. after   14 cycles
            NFock= 14  Conv=0.22D-08     -V/T= 2.0099
 KE= 1.483250936159D+02 PE=-4.948898037353D+02 EE= 1.235825897861D+02
 Leave Link  502 at Mon Mar 21 20:10:21 2022, MaxMem=  8589934592 cpu:              19.2 elap:               2.6
 (Enter /home/sabyasachi/g16/l801.exe)
 DoSCS=F DFT=T ScalE2(SS,OS)=  1.000000  1.000000
 ExpMin= 6.71D-02 ExpMax= 1.71D+03 ExpMxC= 2.58D+02 IAcc=3 IRadAn=         5 AccDes= 0.00D+00
 HarFok:  IExCor=  205 AccDes= 0.00D+00 IRadAn=         5 IDoV=-2 UseB2=F ITyADJ=14
 ICtDFT= 12500011 ScaDFX=  1.000000  1.000000  1.000000  1.000000
 Largest valence mixing into a core orbital is  6.80D-05
 Largest core mixing into a valence orbital is  1.47D-05
 Range of M.O.s used for correlation:     4    92
 NBasis=    92 NAE=    12 NBE=    12 NFC=     3 NFV=     0
 NROrb=     89 NOA=     9 NOB=     9 NVA=    80 NVB=    80

 **** Warning!!: The largest alpha MO coefficient is  0.13500896D+02

 Leave Link  801 at Mon Mar 21 20:10:21 2022, MaxMem=  8589934592 cpu:               0.5 elap:               0.1
 (Enter /home/sabyasachi/g16/l914.exe)
 RHF ground state
 Keep R1, R2, and R3 ints in memory in canonical form, NReq=629346192.
 FoFCou: FMM=F IPFlag=           0 FMFlag=           0 FMFlg1=           0
         NFxFlg=           0 DoJE=F BraDBF=F KetDBF=F FulRan=T
         wScrn=  0.000000 ICntrl=       600 IOpCl=  0 I1Cent=           0 NGrid=           0
         NMat0=    1 NMatS0=   4278 NMatT0=    0 NMatD0=    1 NMtDS0=    0 NMtDT0=    0
 Symmetry not used in FoFCou.
 Two-electron integral symmetry not used.
 MDV=  8589934592 DFT=T DoStab=F Mixed=T DoRPA=T DoScal=F NonHer=T
 Making orbital integer symmetry assigments:
 Orbital symmetries:
       Occupied  (A) (A) (A) (A) (A) (A) (A) (A) (A) (A) (A) (A)
       Virtual   (A) (A) (A) (A) (A) (A) (A) (A) (A) (A) (A) (A)
                 (A) (A) (A) (A) (A) (A) (A) (A) (A) (A) (A) (A)
                 (A) (A) (A) (A) (A) (A) (A) (A) (A) (A) (A) (A)
                 (A) (A) (A) (A) (A) (A) (A) (A) (A) (A) (A) (A)
                 (A) (A) (A) (A) (A) (A) (A) (A) (A) (A) (A) (A)
                 (A) (A) (A) (A) (A) (A) (A) (A) (A) (A) (A) (A)
                 (A) (A) (A) (A) (A) (A) (A) (A)
   720 initial guesses have been made.
 Convergence on wavefunction:    0.001000000000000
 Davidson Disk Diagonalization:  ConvIn= 1.00D-03 SkipCon=T Conv= 1.00D-03.
 Max sub-space:  4320 roots to seek:  1440 dimension of matrix:         1440
 *** WARNING: Number of orthogonal guesses is          720
 Iteration     1 Dimension   720 NMult     0 NNew    720
 CISAX will form   720 AO SS matrices at one time.
 NMat=   720 NSing=   720 JSym2X= 0.
 New state      1 was old state      3
 New state      2 was old state      1
 New state      3 was old state      2
 New state      9 was old state     10
 New state     10 was old state      9
 New state     12 was old state     19
 New state     13 was old state     12
 New state     14 was old state     13
 New state     15 was old state     14
 New state     18 was old state     15
 New state     19 was old state     18
 New state     21 was old state     24
 New state     22 was old state     21
 New state     23 was old state     25
 New state     24 was old state     26
 New state     25 was old state     23
 New state     26 was old state     22
 New state     27 was old state     35
 New state     28 was old state     27
 New state     29 was old state     30
 New state     30 was old state     29
 New state     31 was old state     28
 New state     32 was old state     31
 New state     33 was old state     32
 New state     34 was old state     37
 New state     35 was old state     33
 New state     37 was old state     43
 New state     38 was old state     34
 New state     39 was old state     38
 New state     40 was old state     39
 New state     42 was old state     40
 New state     43 was old state     42
 New state     45 was old state     48
 New state     47 was old state     45
 New state     48 was old state     51
 New state     49 was old state     47
 New state     51 was old state     53
 New state     53 was old state     49
 New state     55 was old state     58
 New state     57 was old state     59
 New state     58 was old state     60
 New state     59 was old state     57
 New state     60 was old state     61
 New state     61 was old state     67
 New state     62 was old state     66
 New state     63 was old state     55
 New state     64 was old state     63
 New state     65 was old state     62
 New state     66 was old state     65
 New state     67 was old state     68
 New state     68 was old state     64
 New state     69 was old state     71
 New state     70 was old state     69
 New state     71 was old state     73
 New state     73 was old state     75
 New state     74 was old state     70
 New state     75 was old state     79
 New state     76 was old state     74
 New state     77 was old state     81
 New state     78 was old state     77
 New state     79 was old state     80
 New state     80 was old state     82
 New state     81 was old state     84
 New state     82 was old state     76
 New state     83 was old state     88
 New state     84 was old state     85
 New state     85 was old state     83
 New state     87 was old state     92
 New state     88 was old state     89
 New state     89 was old state     93
 New state     90 was old state     94
 New state     92 was old state     95
 New state     93 was old state    100
 New state     94 was old state     90
 New state     95 was old state     97
 New state     96 was old state     87
 New state     97 was old state     96
 New state     98 was old state    101
 New state     99 was old state    102
 New state    100 was old state     99
 New state    101 was old state    104
 New state    102 was old state     98
 New state    103 was old state    105
 New state    104 was old state    103
 New state    105 was old state    109
 New state    107 was old state    111
 New state    109 was old state    112
 New state    110 was old state    107
 New state    111 was old state    116
 New state    112 was old state    110
 New state    113 was old state    115
 New state    115 was old state    119
 New state    116 was old state    118
 New state    117 was old state    121
 New state    118 was old state    113
 New state    119 was old state    126
 New state    120 was old state    122
 New state    121 was old state    120
 New state    122 was old state    124
 New state    123 was old state    127
 New state    124 was old state    117
 New state    125 was old state    123
 New state    126 was old state    131
 New state    127 was old state    128
 New state    128 was old state    134
 New state    129 was old state    143
 New state    130 was old state    125
 New state    131 was old state    129
 New state    133 was old state    145
 New state    134 was old state    130
 New state    137 was old state    138
 New state    138 was old state    140
 New state    139 was old state    144
 New state    140 was old state    137
 New state    141 was old state    142
 New state    142 was old state    133
 New state    143 was old state    146
 New state    144 was old state    139
 New state    145 was old state    141
 New state    146 was old state    147
 New state    147 was old state    156
 New state    148 was old state    150
 New state    149 was old state    148
 New state    150 was old state    155
 New state    151 was old state    154
 New state    152 was old state    153
 New state    153 was old state    151
 New state    154 was old state    149
 New state    155 was old state    152
 New state    156 was old state    157
 New state    157 was old state    162
 New state    158 was old state    159
 New state    159 was old state    160
 New state    160 was old state    164
 New state    161 was old state    158
 New state    162 was old state    166
 New state    164 was old state    170
 New state    165 was old state    173
 New state    166 was old state    165
 New state    169 was old state    161
 New state    170 was old state    176
 New state    171 was old state    169
 New state    172 was old state    178
 New state    173 was old state    171
 New state    174 was old state    172
 New state    175 was old state    180
 New state    176 was old state    179
 New state    178 was old state    174
 New state    179 was old state    181
 New state    180 was old state    175
 New state    181 was old state    184
 New state    182 was old state    185
 New state    183 was old state    186
 New state    184 was old state    189
 New state    185 was old state    182
 New state    186 was old state    187
 New state    187 was old state    188
 New state    188 was old state    190
 New state    189 was old state    193
 New state    190 was old state    183
 New state    193 was old state    198
 New state    194 was old state    200
 New state    195 was old state    196
 New state    196 was old state    195
 New state    197 was old state    194
 New state    198 was old state    199
 New state    199 was old state    197
 New state    200 was old state    223
 New state    201 was old state    202
 New state    202 was old state    201
 New state    203 was old state    217
 New state    204 was old state    207
 New state    205 was old state    209
 New state    206 was old state    205
 New state    207 was old state    206
 New state    208 was old state    203
 New state    209 was old state    208
 New state    210 was old state    213
 New state    211 was old state    210
 New state    212 was old state    214
 New state    213 was old state    220
 New state    214 was old state    212
 New state    215 was old state    211
 New state    216 was old state    218
 New state    217 was old state    215
 New state    218 was old state    222
 New state    219 was old state    216
 New state    220 was old state    226
 New state    221 was old state    225
 New state    222 was old state    221
 New state    223 was old state    219
 New state    224 was old state    229
 New state    225 was old state    228
 New state    226 was old state    239
 New state    228 was old state    224
 New state    229 was old state    231
 New state    231 was old state    236
 New state    233 was old state    248
 New state    234 was old state    233
 New state    236 was old state    234
 New state    237 was old state    238
 New state    238 was old state    241
 New state    239 was old state    240
 New state    240 was old state    247
 New state    241 was old state    237
 New state    242 was old state    243
 New state    243 was old state    244
 New state    244 was old state    242
 New state    245 was old state    253
 New state    246 was old state    256
 New state    247 was old state    246
 New state    248 was old state    245
 New state    249 was old state    259
 New state    251 was old state    252
 New state    252 was old state    251
 New state    253 was old state    249
 New state    254 was old state    260
 New state    256 was old state    254
 New state    257 was old state    269
 New state    258 was old state    257
 New state    259 was old state    268
 New state    260 was old state    258
 New state    261 was old state    263
 New state    262 was old state    261
 New state    263 was old state    270
 New state    264 was old state    262
 New state    265 was old state    264
 New state    267 was old state    265
 No map to state    268
 New state    269 was old state    271
 New state    270 was old state    276
 New state    271 was old state    267
 New state    273 was old state    283
 New state    276 was old state    280
 New state    277 was old state    273
 New state    279 was old state    286
 New state    280 was old state    279
 New state    281 was old state    282
 New state    282 was old state    277
 New state    283 was old state    292
 New state    285 was old state    281
 New state    286 was old state    304
 New state    287 was old state    289
 New state    288 was old state    285
 New state    289 was old state    288
 New state    290 was old state    296
 New state    292 was old state    287
 New state    294 was old state    290
 New state    295 was old state    294
 New state    296 was old state    295
 New state    298 was old state    305
 New state    302 was old state    298
 New state    304 was old state    308
 New state    305 was old state    302
 New state    306 was old state    307
 New state    307 was old state    306
 New state    308 was old state    311
 New state    309 was old state    316
 New state    310 was old state    309
 New state    311 was old state    310
 New state    312 was old state    313
 New state    313 was old state    312
 New state    314 was old state    317
 New state    315 was old state    314
 New state    316 was old state    325
 New state    317 was old state    318
 New state    318 was old state    315
 New state    319 was old state    324
 New state    320 was old state    322
 New state    321 was old state    319
 New state    322 was old state    323
 New state    323 was old state    334
 New state    324 was old state    329
 New state    325 was old state    327
 New state    326 was old state    320
 New state    327 was old state    326
 New state    328 was old state    321
 New state    329 was old state    328
 New state    330 was old state    335
 New state    331 was old state    330
 New state    332 was old state    333
 New state    333 was old state    332
 New state    334 was old state    331
 New state    335 was old state    336
 New state    336 was old state    337
 New state    337 was old state    339
 New state    339 was old state    341
 New state    341 was old state    345
 New state    344 was old state    348
 New state    345 was old state    344
 New state    346 was old state    349
 New state    347 was old state    346
 New state    348 was old state    347
 New state    349 was old state    353
 New state    350 was old state    354
 New state    351 was old state    352
 New state    352 was old state    355
 New state    353 was old state    351
 New state    354 was old state    350
 New state    355 was old state    356
 New state    356 was old state    357
 New state    357 was old state    361
 New state    358 was old state    360
 New state    359 was old state    358
 New state    360 was old state    363
 New state    361 was old state    362
 New state    362 was old state    359
 New state    363 was old state    365
 New state    365 was old state    367
 New state    366 was old state    369
 New state    367 was old state    366
 New state    369 was old state    372
 New state    370 was old state    371
 New state    371 was old state    370
 New state    372 was old state    388
 New state    374 was old state    375
 New state    375 was old state    378
 New state    376 was old state    374
 New state    378 was old state    379
 New state    379 was old state    376
 New state    380 was old state    382
 New state    381 was old state    380
 New state    382 was old state    384
 New state    383 was old state    381
 New state    384 was old state    390
 New state    385 was old state    387
 New state    386 was old state    383
 New state    387 was old state    385
 New state    388 was old state    389
 New state    389 was old state    393
 New state    390 was old state    386
 New state    391 was old state    392
 New state    392 was old state    391
 New state    393 was old state    395
 New state    395 was old state    396
 New state    396 was old state    397
 New state    397 was old state    398
 New state    398 was old state    403
 New state    399 was old state    401
 New state    400 was old state    399
 New state    401 was old state    404
 New state    403 was old state    400
 New state    404 was old state    406
 New state    405 was old state    413
 New state    406 was old state    405
 New state    408 was old state    409
 New state    409 was old state    408
 New state    410 was old state    412
 New state    412 was old state    410
 New state    413 was old state    416
 New state    414 was old state    415
 New state    415 was old state    414
 New state    416 was old state    417
 New state    417 was old state    422
 New state    418 was old state    419
 New state    419 was old state    420
 New state    420 was old state    423
 New state    421 was old state    424
 New state    422 was old state    418
 New state    423 was old state    421
 New state    424 was old state    427
 New state    427 was old state    428
 New state    428 was old state    430
 New state    429 was old state    432
 New state    430 was old state    429
 New state    432 was old state    434
 New state    434 was old state    436
 New state    435 was old state    437
 New state    436 was old state    438
 New state    437 was old state    435
 New state    438 was old state    439
 New state    439 was old state    442
 New state    440 was old state    445
 New state    441 was old state    440
 New state    442 was old state    443
 New state    443 was old state    446
 New state    445 was old state    441
 New state    446 was old state    451
 New state    447 was old state    450
 New state    448 was old state    447
 New state    450 was old state    448
 No map to state    451
 New state    452 was old state    453
 New state    453 was old state    456
 New state    454 was old state    452
 New state    455 was old state    454
 New state    456 was old state    460
 New state    457 was old state    455
 New state    460 was old state    457
 New state    462 was old state    463
 New state    463 was old state    462
 New state    465 was old state    469
 New state    466 was old state    465
 New state    467 was old state    468
 New state    468 was old state    466
 New state    469 was old state    467
 New state    470 was old state    474
 New state    471 was old state    470
 New state    472 was old state    471
 New state    473 was old state    475
 New state    474 was old state    472
 New state    475 was old state    473
 New state    477 was old state    478
 New state    478 was old state    477
 New state    480 was old state    482
 New state    481 was old state    480
 New state    482 was old state    481
 New state    484 was old state    485
 New state    485 was old state    484
 New state    487 was old state    491
 New state    490 was old state    487
 New state    491 was old state    490
 New state    492 was old state    493
 New state    493 was old state    494
 New state    494 was old state    492
 New state    495 was old state    496
 New state    496 was old state    495
 New state    500 was old state    503
 New state    503 was old state    504
 New state    504 was old state    500
 New state    505 was old state    509
 New state    506 was old state    508
 New state    508 was old state    505
 New state    509 was old state    506
 New state    512 was old state    515
 New state    513 was old state    512
 New state    514 was old state    517
 New state    515 was old state    513
 New state    517 was old state    518
 New state    518 was old state    514
 New state    520 was old state    522
 New state    521 was old state    520
 New state    522 was old state    524
 New state    524 was old state    521
 New state    526 was old state    528
 New state    527 was old state    532
 New state    528 was old state    526
 New state    529 was old state    527
 New state    530 was old state    529
 New state    531 was old state    530
 New state    532 was old state    533
 New state    533 was old state    535
 New state    535 was old state    531
 New state    536 was old state    537
 New state    537 was old state    536
 New state    538 was old state    542
 New state    539 was old state    541
 New state    540 was old state    538
 New state    541 was old state    540
 New state    542 was old state    539
 New state    544 was old state    547
 New state    547 was old state    550
 New state    548 was old state    544
 New state    549 was old state    552
 New state    550 was old state    548
 New state    551 was old state    549
 New state    552 was old state    551
 New state    553 was old state    554
 New state    554 was old state    555
 New state    555 was old state    553
 New state    556 was old state    557
 New state    557 was old state    556
 New state    558 was old state    559
 New state    559 was old state    560
 New state    560 was old state    558
 New state    566 was old state    570
 New state    568 was old state    566
 New state    570 was old state    568
 New state    571 was old state    572
 New state    572 was old state    571
 New state    573 was old state    575
 New state    575 was old state    573
 New state    576 was old state    579
 New state    577 was old state    576
 New state    579 was old state    577
 New state    580 was old state    581
 New state    581 was old state    582
 New state    582 was old state    583
 New state    583 was old state    580
 New state    584 was old state    585
 New state    585 was old state    584
 New state    587 was old state    590
 New state    589 was old state    587
 New state    590 was old state    591
 New state    591 was old state    589
 New state    592 was old state    593
 New state    593 was old state    592
 New state    594 was old state    595
 New state    595 was old state    594
 New state    596 was old state    598
 New state    597 was old state    596
 New state    598 was old state    597
 New state    601 was old state    603
 New state    603 was old state    601
 New state    607 was old state    610
 New state    608 was old state    607
 New state    609 was old state    611
 New state    610 was old state    612
 New state    611 was old state    608
 New state    612 was old state    609
 New state    613 was old state    614
 New state    614 was old state    616
 New state    615 was old state    613
 New state    616 was old state    615
 New state    622 was old state    624
 New state    623 was old state    622
 New state    624 was old state    623
 New state    626 was old state    628
 New state    628 was old state    629
 New state    629 was old state    626
 New state    632 was old state    634
 New state    634 was old state    632
 New state    638 was old state    640
 New state    640 was old state    638
 New state    641 was old state    643
 New state    643 was old state    641
 New state    652 was old state    653
 New state    653 was old state    652
 New state    656 was old state    657
 New state    657 was old state    656
 New state    658 was old state    660
 New state    659 was old state    658
 New state    660 was old state    659
 New state    669 was old state    670
 New state    670 was old state    671
 New state    671 was old state    672
 New state    672 was old state    669
 New state    675 was old state    676
 New state    676 was old state    675
 New state    677 was old state    678
 New state    678 was old state    679
 New state    679 was old state    677
 New state    682 was old state    683
 New state    683 was old state    682
 New state    687 was old state    688
 New state    688 was old state    687
 New state    691 was old state    692
 New state    692 was old state    691
 New state    695 was old state    696
 New state    696 was old state    695
 New state    698 was old state    699
 New state    699 was old state    701
 New state    700 was old state    698
 New state    701 was old state    700
 New state    703 was old state    704
 New state    704 was old state    705
 New state    705 was old state    703
 New state    706 was old state    707
 New state    707 was old state    706
 New state    710 was old state    711
 New state    711 was old state    710
 New state    712 was old state    713
 New state    713 was old state    712
 Excitation Energies [eV] at current iteration:
 Root      1 :     5.827675622251946
 Root      2 :     6.145435654735635
 Root      3 :     6.511726314050742
 Root      4 :     7.476202871660940
 Root      5 :     7.846952418982621
 Root      6 :     8.017190536733773
 Root      7 :     8.688290857186244
 Root      8 :     8.781634246125279
 Root      9 :     9.216669992021400
 Root     10 :     9.356156688517601
 Root     11 :     9.642095128890810
 Root     12 :     9.761331965805651
 Root     13 :    10.040702025409130
 Root     14 :    10.363833283366420
 Root     15 :    10.465079033283270
 Root     16 :    10.660634866493840
 Root     17 :    10.754114631925880
 Root     18 :    10.787168219885690
 Root     19 :    10.984466605467080
 Root     20 :    11.119012255639520
 Root     21 :    11.609786310732400
 Root     22 :    11.712966195997160
 Root     23 :    11.819605320040200
 Root     24 :    11.884614298957890
 Root     25 :    11.974287712937650
 Root     26 :    12.024968727065550
 Root     27 :    12.083997985384900
 Root     28 :    12.249519653155510
 Root     29 :    12.444429504801470
 Root     30 :    12.547750581332920
 Root     31 :    12.636572374988060
 Root     32 :    12.728672972692020
 Root     33 :    12.810341601126770
 Root     34 :    13.090867141645720
 Root     35 :    13.229477495848860
 Root     36 :    13.322477838993760
 Root     37 :    13.381174295136210
 Root     38 :    13.432755736912410
 Root     39 :    13.661446377785780
 Root     40 :    13.760369839167870
 Root     41 :    13.929520246370920
 Root     42 :    14.060858795976490
 Root     43 :    14.144285932341390
 Root     44 :    14.220039721734330
 Root     45 :    14.310098816882310
 Root     46 :    14.467390400869680
 Root     47 :    14.546556322498490
 Root     48 :    14.691239349165510
 Root     49 :    14.750275252625570
 Root     50 :    14.814471502075010
 Root     51 :    14.948487589331990
 Root     52 :    14.980258859181530
 Root     53 :    15.164724581520870
 Root     54 :    15.252563612045110
 Root     55 :    15.449238927808950
 Root     56 :    15.527639761905490
 Root     57 :    15.606633681697220
 Root     58 :    15.615924940169870
 Root     59 :    15.694094768823170
 Root     60 :    15.737597753026520
 Root     61 :    15.810287836485090
 Root     62 :    15.894445817626730
 Root     63 :    16.005258219739730
 Root     64 :    16.030524059570400
 Root     65 :    16.056294001883790
 Root     66 :    16.211801816652280
 Root     67 :    16.243080877027250
 Root     68 :    16.306037398633930
 Root     69 :    16.421399373562620
 Root     70 :    16.478507094600620
 Root     71 :    16.520457069641120
 Root     72 :    16.550345076605300
 Root     73 :    16.639396125883000
 Root     74 :    16.702804664394340
 Root     75 :    16.845512305903850
 Root     76 :    16.860292023754800
 Root     77 :    16.898197090871540
 Root     78 :    16.942805645068660
 Root     79 :    16.985266107997440
 Root     80 :    17.032554195116360
 Root     81 :    17.152044082494730
 Root     82 :    17.192753822582760
 Root     83 :    17.271173216292820
 Root     84 :    17.346071949221150
 Root     85 :    17.413811986705050
 Root     86 :    17.529454967946790
 Root     87 :    17.572500871065290
 Root     88 :    17.691813389190790
 Root     89 :    17.753279954570090
 Root     90 :    17.856868649113370
 Root     91 :    17.957603966219090
 Root     92 :    18.005154310505970
 Root     93 :    18.091304910986080
 Root     94 :    18.140958524932710
 Root     95 :    18.243022366892150
 Root     96 :    18.318710201635140
 Root     97 :    18.402013665723820
 Root     98 :    18.482114157646200
 Root     99 :    18.493230660170980
 Root    100 :    18.562120090561630
 Root    101 :    18.616527971752570
 Root    102 :    18.757365799395320
 Root    103 :    18.920046048728840
 Root    104 :    18.965286328802860
 Root    105 :    19.048503547141650
 Root    106 :    19.123493598022070
 Root    107 :    19.242729872776390
 Root    108 :    19.317056627567100
 Root    109 :    19.376254349578250
 Root    110 :    19.396405210450200
 Root    111 :    19.432664566313820
 Root    112 :    19.535088028218570
 Root    113 :    19.571693215510820
 Root    114 :    19.607676221194900
 Root    115 :    19.704241449573930
 Root    116 :    19.831009915344950
 Root    117 :    19.874740656893890
 Root    118 :    19.956178385352850
 Root    119 :    20.092399851457100
 Root    120 :    20.116361422819500
 Root    121 :    20.148229220220460
 Root    122 :    20.218183178032170
 Root    123 :    20.281418541433180
 Root    124 :    20.297729185557220
 Root    125 :    20.350177021102850
 Root    126 :    20.413813693932180
 Root    127 :    20.463049517147670
 Root    128 :    20.513050349991280
 Root    129 :    20.565069783802590
 Root    130 :    20.669446811575000
 Root    131 :    20.695365531781550
 Root    132 :    20.873249791129880
 Root    133 :    20.897871719844760
 Root    134 :    20.963864398626810
 Root    135 :    21.006347565841030
 Root    136 :    21.103797977105190
 Root    137 :    21.153807212856020
 Root    138 :    21.253347262975910
 Root    139 :    21.277164219934790
 Root    140 :    21.340406948918230
 Root    141 :    21.385672500106820
 Root    142 :    21.431649929013320
 Root    143 :    21.470152059733440
 Root    144 :    21.648363394646720
 Root    145 :    21.696965620777140
 Root    146 :    21.823131718494920
 Root    147 :    21.888902155906890
 Root    148 :    21.909976018003640
 Root    149 :    21.942295001645610
 Root    150 :    22.015694515608220
 Root    151 :    22.167499773462220
 Root    152 :    22.194999524025360
 Root    153 :    22.242053845579570
 Root    154 :    22.271525611177980
 Root    155 :    22.398697096876150
 Root    156 :    22.541417773773880
 Root    157 :    22.631835679060190
 Root    158 :    22.699903903157260
 Root    159 :    22.763259701277620
 Root    160 :    22.885616648555130
 Root    161 :    22.900337281323830
 Root    162 :    23.000039804294000
 Root    163 :    23.013145353194800
 Root    164 :    23.042017413008600
 Root    165 :    23.152994308064920
 Root    166 :    23.159432085251300
 Root    167 :    23.221147046624680
 Root    168 :    23.315991072413470
 Root    169 :    23.373504944051210
 Root    170 :    23.450191950580370
 Root    171 :    23.504983767953110
 Root    172 :    23.566789408673070
 Root    173 :    23.649848863349560
 Root    174 :    23.702389465749270
 Root    175 :    23.813512189375640
 Root    176 :    23.838712703031050
 Root    177 :    23.873228650450900
 Root    178 :    23.961125765443350
 Root    179 :    23.987511960457480
 Root    180 :    24.050688128361130
 Root    181 :    24.155968904380830
 Root    182 :    24.212455975522110
 Root    183 :    24.370824852211770
 Root    184 :    24.428778581748570
 Root    185 :    24.494807278506040
 Root    186 :    24.568028915662810
 Root    187 :    24.654946756554090
 Root    188 :    24.702580443710980
 Root    189 :    24.828473476752050
 Root    190 :    24.859842635401960
 Root    191 :    24.952989620469620
 Root    192 :    25.070240378454320
 Root    193 :    25.096025609588670
 Root    194 :    25.179572595764320
 Root    195 :    25.295714481445670
 Root    196 :    25.364947624390960
 Root    197 :    25.414352416592910
 Root    198 :    25.458957506234340
 Root    199 :    25.498324371390320
 Root    200 :    25.541154760659530
 Root    201 :    25.640577158892330
 Root    202 :    25.693540553955770
 Root    203 :    25.985205395203610
 Root    204 :    26.011241136104330
 Root    205 :    26.078754868681830
 Root    206 :    26.151686675216970
 Root    207 :    26.186701212037250
 Root    208 :    26.254746813630510
 Root    209 :    26.296734747554920
 Root    210 :    26.335592330576440
 Root    211 :    26.434521366898350
 Root    212 :    26.499586193321430
 Root    213 :    26.570998971517850
 Root    214 :    26.601407691777800
 Root    215 :    26.657405398103240
 Root    216 :    26.710105274535810
 Root    217 :    26.832792367616200
 Root    218 :    26.851598993010060
 Root    219 :    26.886716725858350
 Root    220 :    26.994771064345610
 Root    221 :    27.066341367814540
 Root    222 :    27.163454394590610
 Root    223 :    27.171417432919920
 Root    224 :    27.236984927952060
 Root    225 :    27.302234359307710
 Root    226 :    27.433649357764720
 Root    227 :    27.472655731024720
 Root    228 :    27.492065037762420
 Root    229 :    27.545095250079680
 Root    230 :    27.560229233851320
 Root    231 :    27.673736574429320
 Root    232 :    27.713202669514890
 Root    233 :    27.764631470888180
 Root    234 :    27.795293111738740
 Root    235 :    27.956421898937300
 Root    236 :    28.073777269953500
 Root    237 :    28.178305652275170
 Root    238 :    28.211573923211280
 Root    239 :    28.472174228062720
 Root    240 :    28.547174661817040
 Root    241 :    28.603614511376020
 Root    242 :    28.615032463004600
 Root    243 :    28.698755205688360
 Root    244 :    28.768301612429440
 Root    245 :    28.872239348668480
 Root    246 :    28.998934543048250
 Root    247 :    29.059559524678100
 Root    248 :    29.100201737386390
 Root    249 :    29.277733263790290
 Root    250 :    29.412715888432450
 Root    251 :    29.455352318534240
 Root    252 :    29.609436418904400
 Root    253 :    29.635489340612820
 Root    254 :    29.716488585515820
 Root    255 :    29.859374164532960
 Root    256 :    29.968948613652050
 Root    257 :    30.044090875142130
 Root    258 :    30.123085352891960
 Root    259 :    30.204369628610430
 Root    260 :    30.248201562959110
 Root    261 :    30.259381140660730
 Root    262 :    30.380644447188570
 Root    263 :    30.432375746209210
 Root    264 :    30.526159013199010
 Root    265 :    30.554011469476470
 Root    266 :    30.630678541725540
 Root    267 :    30.723170231477710
 Root    268 :    30.738391232451800
 Root    269 :    30.846971593758870
 Root    270 :    30.906443994185710
 Root    271 :    30.989317458907860
 Root    272 :    31.035696342376260
 Root    273 :    31.176000674814780
 Root    274 :    31.353756792722370
 Root    275 :    31.492525390514500
 Root    276 :    31.529163564863570
 Root    277 :    31.624010896397790
 Root    278 :    31.697096740392650
 Root    279 :    31.776378239820580
 Root    280 :    31.851809504583700
 Root    281 :    31.924879039118050
 Root    282 :    31.951816057642280
 Root    283 :    32.033734809356450
 Root    284 :    32.177016408931270
 Root    285 :    32.229210053974040
 Root    286 :    32.292606148345940
 Root    287 :    32.372148610854270
 Root    288 :    32.441218289755360
 Root    289 :    32.630966214675300
 Root    290 :    32.641508580846550
 Root    291 :    32.755138603528830
 Root    292 :    32.833152407336520
 Root    293 :    32.886630991436970
 Root    294 :    32.917419265034170
 Root    295 :    33.023749059668780
 Root    296 :    33.291066319080310
 Root    297 :    33.377999727512630
 Root    298 :    33.455028976831730
 Root    299 :    33.624364554283390
 Root    300 :    33.748002011680600
 Root    301 :    33.779999575924020
 Root    302 :    33.825501145843430
 Root    303 :    33.898980459842760
 Root    304 :    34.019062180581910
 Root    305 :    34.071006782381840
 Root    306 :    34.158114830699070
 Root    307 :    34.269258497854320
 Root    308 :    34.315648498166770
 Root    309 :    34.371069769583380
 Root    310 :    34.535072364215590
 Root    311 :    34.891170697729940
 Root    312 :    34.951468818252550
 Root    313 :    35.012291279829420
 Root    314 :    35.106150434020390
 Root    315 :    35.204559538230180
 Root    316 :    35.286883722312620
 Root    317 :    35.311312256015240
 Root    318 :    35.508772712406670
 Root    319 :    35.572700652132530
 Root    320 :    35.712618778763420
 Root    321 :    35.756804418790150
 Root    322 :    35.828149057882040
 Root    323 :    35.948164810073930
 Root    324 :    35.959399889432580
 Root    325 :    35.978526766458510
 Root    326 :    36.093183991708080
 Root    327 :    36.206966877751240
 Root    328 :    36.229374998260480
 Root    329 :    36.458341966928830
 Root    330 :    36.579831791690440
 Root    331 :    36.776101177782880
 Root    332 :    36.926718552520990
 Root    333 :    36.974786901621930
 Root    334 :    37.037719983548830
 Root    335 :    37.094955574789920
 Root    336 :    37.209124447711230
 Root    337 :    37.442693193186870
 Root    338 :    37.502811123286580
 Root    339 :    37.669369645503040
 Root    340 :    37.687470435181770
 Root    341 :    37.848768104576380
 Root    342 :    37.930911224774090
 Root    343 :    37.950599093290780
 Root    344 :    38.091736897903940
 Root    345 :    38.166772460758430
 Root    346 :    38.181931508738890
 Root    347 :    38.285659288520240
 Root    348 :    38.469797787504810
 Root    349 :    38.570175618074140
 Root    350 :    38.658224402183810
 Root    351 :    38.852853770078280
 Root    352 :    38.877538410834900
 Root    353 :    39.024782829874690
 Root    354 :    39.140163883506940
 Root    355 :    39.292543155796830
 Root    356 :    39.382285535123160
 Root    357 :    39.522490119352580
 Root    358 :    39.590443429340040
 Root    359 :    39.649343462849100
 Root    360 :    39.725995971806260
 Root    361 :    40.105828325846580
 Root    362 :    40.149291247550590
 Root    363 :    40.180549109711020
 Root    364 :    40.346101614020210
 Root    365 :    40.511191086222300
 Root    366 :    40.597424184723270
 Root    367 :    40.816898538678080
 Root    368 :    40.969210278053620
 Root    369 :    41.030481883380850
 Root    370 :    41.209369054189710
 Root    371 :    41.237951111204480
 Root    372 :    41.356721806178010
 Root    373 :    41.561525742028810
 Root    374 :    41.620480138556390
 Root    375 :    41.675032776078730
 Root    376 :    41.886920458947440
 Root    377 :    41.939961238041800
 Root    378 :    42.197173284173380
 Root    379 :    42.322193512289920
 Root    380 :    42.397485395245250
 Root    381 :    42.467028650037700
 Root    382 :    42.628908889984750
 Root    383 :    42.662479213942890
 Root    384 :    42.774044587020260
 Root    385 :    42.820142631834830
 Root    386 :    42.864006097415970
 Root    387 :    43.078943602625810
 Root    388 :    43.204615963140320
 Root    389 :    43.308714233837950
 Root    390 :    43.420347035593400
 Root    391 :    43.577898026226750
 Root    392 :    43.664475662744170
 Root    393 :    43.767838867099310
 Root    394 :    43.903380097531780
 Root    395 :    44.153850234337590
 Root    396 :    44.244790956557680
 Root    397 :    44.548245914038030
 Root    398 :    44.782642828575380
 Root    399 :    44.823821091372580
 Root    400 :    44.931100116071900
 Root    401 :    45.210576729606880
 Root    402 :    45.417315815424640
 Root    403 :    45.510169166348820
 Root    404 :    45.638901295392340
 Root    405 :    45.910284331150280
 Root    406 :    45.999111415022740
 Root    407 :    46.057622661149470
 Root    408 :    46.086805109932080
 Root    409 :    46.165595296942790
 Root    410 :    46.207903357366750
 Root    411 :    46.531735160851600
 Root    412 :    46.539737745243010
 Root    413 :    46.649191497716670
 Root    414 :    46.968435779393860
 Root    415 :    46.978053312648580
 Root    416 :    47.422505790341330
 Root    417 :    47.613257549215540
 Root    418 :    47.835623546761490
 Root    419 :    47.951856849979390
 Root    420 :    48.038425234554710
 Root    421 :    48.248516637094600
 Root    422 :    48.289231335966040
 Root    423 :    48.487276335680520
 Root    424 :    48.592899272132930
 Root    425 :    48.911260176132270
 Root    426 :    48.938864130284810
 Root    427 :    49.018342953927750
 Root    428 :    49.153214760852090
 Root    429 :    49.444494307688920
 Root    430 :    49.601712272536080
 Root    431 :    49.757208149573260
 Root    432 :    49.900134145334990
 Root    433 :    50.113483262460200
 Root    434 :    50.261294081024590
 Root    435 :    50.341039428954720
 Root    436 :    50.432133944360590
 Root    437 :    50.544991207203390
 Root    438 :    50.645839049444890
 Root    439 :    50.732308212250810
 Root    440 :    51.051752210244830
 Root    441 :    51.182920452723640
 Root    442 :    51.333680244302600
 Root    443 :    51.385214414843850
 Root    444 :    51.620922243605380
 Root    445 :    51.747103413214920
 Root    446 :    51.801792942670780
 Root    447 :    52.163237741881560
 Root    448 :    52.260360739136220
 Root    449 :    52.366560293030130
 Root    450 :    52.432119021180210
 Root    451 :    52.522988946936020
 Root    452 :    53.199516208810610
 Root    453 :    53.353885345515170
 Root    454 :    53.514023148196660
 Root    455 :    53.604464666029220
 Root    456 :    53.786717211274560
 Root    457 :    53.967409676601480
 Root    458 :    54.105678052138840
 Root    459 :    54.223050099110930
 Root    460 :    54.381556220505910
 Root    461 :    54.458728514435730
 Root    462 :    54.725728243649800
 Root    463 :    54.747328538841150
 Root    464 :    54.963681613199320
 Root    465 :    55.203246415888180
 Root    466 :    55.245758825230230
 Root    467 :    55.346695199278850
 Root    468 :    55.400777862431780
 Root    469 :    55.469613606871770
 Root    470 :    55.660777692540050
 Root    471 :    55.749215980373280
 Root    472 :    55.803284079902340
 Root    473 :    56.245432066989930
 Root    474 :    56.331418494329850
 Root    475 :    56.486240318196580
 Root    476 :    56.748503899198010
 Root    477 :    56.876964260655240
 Root    478 :    57.019558988033960
 Root    479 :    57.145006857717630
 Root    480 :    57.234292594175120
 Root    481 :    57.434953009978770
 Root    482 :    57.490562858899260
 Root    483 :    57.555410554923720
 Root    484 :    57.785952699454450
 Root    485 :    57.991169762877590
 Root    486 :    58.168251142821670
 Root    487 :    58.370413511075260
 Root    488 :    58.505266557887010
 Root    489 :    58.558066363307120
 Root    490 :    58.779666734775740
 Root    491 :    58.892643510854550
 Root    492 :    59.117049602733130
 Root    493 :    59.226805960096950
 Root    494 :    59.284400532127210
 Root    495 :    59.453527232426570
 Root    496 :    59.519009225299360
 Root    497 :    59.808885793656500
 Root    498 :    59.863704229246460
 Root    499 :    60.351547657287580
 Root    500 :    60.452138484681270
 Root    501 :    60.584011976462400
 Root    502 :    60.736955254630910
 Root    503 :    60.946352661091080
 Root    504 :    61.187231259897150
 Root    505 :    61.290755117780360
 Root    506 :    61.391104246396930
 Root    507 :    61.439814751118490
 Root    508 :    61.531650340203360
 Root    509 :    61.554588877085910
 Root    510 :    61.918109390735470
 Root    511 :    62.190965156142250
 Root    512 :    62.409552513914640
 Root    513 :    62.543798852529110
 Root    514 :    62.614276385887810
 Root    515 :    62.747155112937870
 Root    516 :    62.866833152320280
 Root    517 :    62.986928945052330
 Root    518 :    63.044668886273210
 Root    519 :    63.213653708561250
 Root    520 :    63.374835130807440
 Root    521 :    63.502016563688890
 Root    522 :    63.716712904423730
 Root    523 :    63.837312424842740
 Root    524 :    63.893594379984450
 Root    525 :    64.090236535021390
 Root    526 :    64.228768518962060
 Root    527 :    64.275667670398690
 Root    528 :    64.476568680977640
 Root    529 :    64.687295566541510
 Root    530 :    64.794899457236170
 Root    531 :    65.044235014628780
 Root    532 :    65.057529155086840
 Root    533 :    65.396587969244730
 Root    534 :    65.439176795108680
 Root    535 :    65.463401339809490
 Root    536 :    65.661514821717970
 Root    537 :    65.869501856514920
 Root    538 :    65.967888506615170
 Root    539 :    66.088266020500410
 Root    540 :    66.104705679773790
 Root    541 :    66.302218461993800
 Root    542 :    66.388956414136870
 Root    543 :    66.630159004516530
 Root    544 :    67.299110784620570
 Root    545 :    67.424008368013790
 Root    546 :    67.574642199339380
 Root    547 :    67.668791011816310
 Root    548 :    67.722730127895890
 Root    549 :    67.874948903889420
 Root    550 :    68.025889749435880
 Root    551 :    68.144376644032560
 Root    552 :    68.217213520461100
 Root    553 :    68.395901815283390
 Root    554 :    68.548240590513870
 Root    555 :    68.672616286771070
 Root    556 :    68.768970556565920
 Root    557 :    68.952728075978580
 Root    558 :    69.009644514828910
 Root    559 :    69.366260798634330
 Root    560 :    69.415439458056820
 Root    561 :    69.668183337398770
 Root    562 :    69.866672465390200
 Root    563 :    70.172296581669640
 Root    564 :    70.288434464123550
 Root    565 :    70.558487722392840
 Root    566 :    70.696527937123680
 Root    567 :    70.873040408161870
 Root    568 :    71.039081491444520
 Root    569 :    71.125036836542930
 Root    570 :    71.278007740204100
 Root    571 :    71.410606846592390
 Root    572 :    71.730740885904890
 Root    573 :    71.881860625354660
 Root    574 :    72.068410584818030
 Root    575 :    72.175897932796270
 Root    576 :    72.294189530637350
 Root    577 :    72.544878466281500
 Root    578 :    72.634066231078710
 Root    579 :    72.711931266964710
 Root    580 :    73.027782590987430
 Root    581 :    73.331376441670500
 Root    582 :    73.611881860575320
 Root    583 :    73.660298935897770
 Root    584 :    73.756226823831950
 Root    585 :    73.940031457601140
 Root    586 :    74.171674523220020
 Root    587 :    74.375569017836470
 Root    588 :    74.536520963634350
 Root    589 :    74.716642938454190
 Root    590 :    74.903585421459410
 Root    591 :    74.990585403747820
 Root    592 :    75.223237108615950
 Root    593 :    75.577878864072830
 Root    594 :    75.850724077882660
 Root    595 :    76.032694593017570
 Root    596 :    76.239930931602000
 Root    597 :    76.397350378732990
 Root    598 :    76.499574669050720
 Root    599 :    76.834866877817290
 Root    600 :    77.087414383526420
 Root    601 :    77.601236491137090
 Root    602 :    77.732976962715010
 Root    603 :    77.836414301064110
 Root    604 :    78.097267178386660
 Root    605 :    78.256086250565970
 Root    606 :    78.623938060917720
 Root    607 :    78.663076242866440
 Root    608 :    78.822292686415880
 Root    609 :    78.920289649522530
 Root    610 :    78.960388640565910
 Root    611 :    79.067656735981050
 Root    612 :    79.272411368705620
 Root    613 :    79.533411117367440
 Root    614 :    79.778579907629510
 Root    615 :    79.794646714786580
 Root    616 :    80.193104702993240
 Root    617 :    80.389836505358350
 Root    618 :    80.776921230342880
 Root    619 :    81.332346948324290
 Root    620 :    81.407282778072470
 Root    621 :    81.441214856555210
 Root    622 :    81.742781794053910
 Root    623 :    81.808402465180820
 Root    624 :    81.956042997573530
 Root    625 :    82.306869594944470
 Root    626 :    82.860607731500110
 Root    627 :    82.951370500025450
 Root    628 :    83.261435733193310
 Root    629 :    83.351938413223690
 Root    630 :    83.421917729642560
 Root    631 :    83.947145077480220
 Root    632 :    84.014424876275190
 Root    633 :    84.162716993012920
 Root    634 :    84.486393935776760
 Root    635 :    85.069081244305070
 Root    636 :    85.649324929142300
 Root    637 :    85.927203589640400
 Root    638 :    86.024608665455230
 Root    639 :    86.164499242313370
 Root    640 :    86.376630853514730
 Root    641 :    86.806300663823950
 Root    642 :    87.088805450391850
 Root    643 :    87.225657291940460
 Root    644 :    87.425843309745530
 Root    645 :    87.877483104060400
 Root    646 :    88.205467235928070
 Root    647 :    88.522573895803460
 Root    648 :    89.102797058376440
 Root    649 :    89.259596141006900
 Root    650 :    89.630927589158350
 Root    651 :    89.889757030523800
 Root    652 :    90.154018850995570
 Root    653 :    90.445118533605210
 Root    654 :    90.850941666842500
 Root    655 :    91.322767763776340
 Root    656 :    91.425533742745780
 Root    657 :    91.695935418131870
 Root    658 :    91.818846260500320
 Root    659 :    92.019872938157190
 Root    660 :    92.182838910651680
 Root    661 :    92.525700708711060
 Root    662 :    93.145237654243870
 Root    663 :    93.425989521463510
 Root    664 :    93.652515088984470
 Root    665 :    93.814657333356280
 Root    666 :    94.146605404159270
 Root    667 :    94.279623485370020
 Root    668 :    94.637976414605590
 Root    669 :    95.178094173565430
 Root    670 :    95.701389766975500
 Root    671 :    95.814321071875140
 Root    672 :    95.821015381419910
 Root    673 :    96.157138905428850
 Root    674 :    96.522209846335060
 Root    675 :    96.879210731536730
 Root    676 :    96.994363209017220
 Root    677 :    97.269066516408400
 Root    678 :    97.578251016565050
 Root    679 :    97.601998573684710
 Root    680 :    98.424491688648330
 Root    681 :    99.258434748595460
 Root    682 :    99.417720117332820
 Root    683 :    99.742729455344630
 Root    684 :    99.878029795267760
 Root    685 :   100.620545108637500
 Root    686 :   101.370712072126800
 Root    687 :   101.454380736979400
 Root    688 :   101.623835566765400
 Root    689 :   101.659018119476800
 Root    690 :   102.282756576868600
 Root    691 :   102.666554182785900
 Root    692 :   102.969455351234500
 Root    693 :   103.241917348948300
 Root    694 :   103.483474395268200
 Root    695 :   103.991829171400600
 Root    696 :   104.155594312292400
 Root    697 :   105.287652981267400
 Root    698 :   106.017086713687600
 Root    699 :   106.156182681220500
 Root    700 :   106.323344248339500
 Root    701 :   106.588899951531100
 Root    702 :   107.546780695012800
 Root    703 :   107.788121772308800
 Root    704 :   108.149567703892000
 Root    705 :   108.339846929650000
 Root    706 :   109.606595042746700
 Root    707 :   109.725438493097100
 Root    708 :   110.023651181734200
 Root    709 :   111.300406324924500
 Root    710 :   111.612581152324600
 Root    711 :   111.996419555323500
 Root    712 :   112.337884961556100
 Root    713 :   112.718394812394200
 Root    714 :   112.939761527659800
 Root    715 :   114.857967859513100
 Root    716 :   116.147212300241400
 Root    717 :   117.573192670456900
 Root    718 :   119.738239540342400
 Root    719 :   122.219149940203400
 Root    720 :   124.463349846516800
 Convergence achieved for final wavefunctions.
 ***********************************************************************
 Excited states from <AA,BB:AA,BB> singles matrix:
 ***********************************************************************
 
 1PDM for each excited state written to RWF  633
 Ground to excited state transition densities written to RWF  633
 Ground to excited state transition electric dipole moments (Au):
       state          X           Y           Z        Dip. S.      Osc.
         1         0.1794     -0.0558      0.0672      0.0398      0.0057
         2         1.0480     -0.0909     -0.0024      1.1067      0.1666
         3        -0.5929      0.0526      0.1325      0.3718      0.0593
         4        -0.0102     -0.0068      0.3888      0.1513      0.0277
         5        -0.2346     -0.3524     -0.0539      0.1822      0.0350
         6         0.2076     -0.0784     -0.2289      0.1016      0.0200
         7        -0.2023      0.1981     -0.0241      0.0807      0.0172
         8         0.2403     -0.0391      0.0340      0.0604      0.0130
         9        -0.1494     -0.0554     -0.1886      0.0610      0.0138
        10         0.0394      0.7639      0.0445      0.5871      0.1346
        11        -0.0750      0.1528     -0.0615      0.0327      0.0077
        12         0.0685     -0.1428     -0.0581      0.0285      0.0068
        13         0.3198      0.2349     -0.0001      0.1574      0.0387
        14        -0.4373      0.2216     -0.0782      0.2464      0.0626
        15        -0.2834      0.5924      0.0053      0.4313      0.1106
        16         0.1205      0.1713     -0.0554      0.0469      0.0123
        17         0.3908     -0.1261     -0.0283      0.1694      0.0446
        18         0.4066     -0.0969     -0.0226      0.1752      0.0463
        19         0.0088     -0.0817      0.2990      0.0961      0.0259
        20        -0.4890     -0.0425      0.1417      0.2610      0.0711
        21        -0.0050      0.0457      0.2474      0.0633      0.0180
        22         0.6344      0.1152     -0.0310      0.4168      0.1196
        23         0.0160      0.0085      0.3571      0.1279      0.0370
        24         0.3775     -0.1641      0.1889      0.2051      0.0597
        25         0.0153     -0.0376     -0.1139      0.0146      0.0043
        26        -0.1989      0.0863     -0.0295      0.0479      0.0141
        27         0.0260     -0.0893      0.0590      0.0121      0.0036
        28         0.5742     -0.0738     -0.0851      0.3424      0.1027
        29        -0.1084     -0.1053     -0.4042      0.1862      0.0568
        30        -0.1660     -0.0956      0.5458      0.3347      0.1029
        31         0.2896     -0.3279      0.3182      0.2926      0.0906
        32        -0.2102     -0.0586      0.1074      0.0591      0.0184
        33        -0.0094     -0.5307     -0.2193      0.3298      0.1035
        34        -0.0401     -0.3758      0.1280      0.1592      0.0511
        35        -0.3820     -0.1731      0.0406      0.1776      0.0576
        36         0.1949      0.0033      0.0833      0.0449      0.0147
        37         0.0574      0.0112     -0.0342      0.0046      0.0015
        38         0.2377     -0.0306      0.0778      0.0635      0.0209
        39         0.0362      0.2185     -0.0208      0.0495      0.0166
        40         0.2334     -0.0719      0.2575      0.1260      0.0425
        41        -0.3279      0.0591     -0.0855      0.1183      0.0404
        42        -0.0223      0.2228      0.0213      0.0506      0.0174
        43         0.2860     -0.0047      0.2350      0.1371      0.0475
        44         0.0502      0.1262      0.2522      0.0821      0.0286
        45        -0.3229      0.1236      0.0581      0.1229      0.0431
        46        -0.1093     -0.0121      0.1176      0.0259      0.0092
        47        -0.2074      0.1342      0.0420      0.0628      0.0224
        48         0.1628     -0.2398     -0.0058      0.0841      0.0303
        49        -0.1837      0.1367      0.1022      0.0629      0.0227
        50        -0.5527     -0.4863      0.1069      0.5534      0.2009
        51         0.1157     -0.2195     -0.2262      0.1127      0.0413
        52         0.1387      0.1959      0.0246      0.0582      0.0214
        53         0.2011     -0.2046      0.1014      0.0926      0.0344
        54         0.0951     -0.2683     -0.0076      0.0811      0.0303
        55         0.0044     -0.2343     -0.1920      0.0918      0.0347
        56        -0.2159     -0.0599     -0.0853      0.0575      0.0219
        57        -0.0978      0.0316     -0.1635      0.0373      0.0143
        58         0.0255      0.2237     -0.0101      0.0508      0.0194
        59         0.0342     -0.1532     -0.4273      0.2072      0.0797
        60        -0.2162     -0.3126      0.0818      0.1511      0.0583
        61         0.0603      0.1335     -0.2537      0.0858      0.0332
        62         0.1281     -0.1031      0.1059      0.0383      0.0149
        63         0.0922      0.0306     -0.1110      0.0218      0.0085
[...]
     15  -0.410121D-01 -0.114473D+00 -0.112463D+00 -0.416055D-01  0.490734D-01
     16  -0.661452D-01 -0.932416D-01  0.874843D-01 -0.728331D-01  0.126996D+00
               651           652           653           654           655 
      1  -0.146487D+03 -0.146477D+03 -0.146466D+03 -0.146452D+03 -0.146434D+03
      2   0.210931D-01 -0.112094D+00  0.222158D-01  0.636861D-01 -0.138599D-01
      3  -0.264813D-01 -0.491426D-01  0.596965D-01  0.448362D-01 -0.496686D-01
      4   0.363012D-01 -0.186505D-01  0.242159D-01 -0.625203D-01  0.207801D-02
      5  -0.522794D-01  0.374453D+00 -0.555377D-01 -0.200852D+00  0.412530D-01
      6   0.788568D-01  0.143431D+00 -0.180471D+00 -0.141996D+00  0.150723D+00
      7  -0.105080D+00  0.554189D-01 -0.690156D-01  0.199384D+00 -0.599821D-02
      8   0.246306D-01 -0.847228D-01  0.880124D-02  0.162919D+00  0.156126D+00
      9   0.135190D+00 -0.395395D-01  0.482915D-01 -0.160130D+00 -0.347515D-01
     10  -0.123117D+00  0.183105D+00  0.195979D+00 -0.156438D+00  0.237790D-01
     11  -0.187346D+00  0.541375D+00  0.372712D+00 -0.895314D+00 -0.526164D-01
     12  -0.632027D-01 -0.266423D+00  0.214799D+00 -0.134008D+00  0.188945D+00
     13   0.120604D+00  0.273118D-01  0.446126D-01 -0.926694D-02 -0.518201D-01
     14  -0.173082D+00 -0.313209D+00 -0.253250D+00 -0.273551D+00  0.594283D-01
     15  -0.211469D+00 -0.377756D-01 -0.204351D-01  0.158554D+00 -0.648042D-02
     16   0.319018D-01 -0.195377D+00  0.770504D-01  0.310197D+00  0.212164D+00
               656           657           658           659           660 
      1  -0.146430D+03 -0.146420D+03 -0.146416D+03 -0.146409D+03 -0.146403D+03
      2   0.393963D-01  0.235265D-01 -0.312291D-01  0.218891D-02 -0.574960D-01
      3  -0.229041D-01 -0.201921D-01  0.366887D-01  0.362250D-01 -0.283553D-01
      4   0.286188D-01  0.403116D-01  0.306092D-01  0.336760D-01  0.121029D-01
      5  -0.110622D+00 -0.851986D-01  0.111073D+00 -0.246339D-02  0.173685D+00
      6   0.729951D-01  0.507734D-01 -0.985297D-01 -0.106466D+00  0.825195D-01
      7  -0.780600D-01 -0.117472D+00 -0.913541D-01 -0.967301D-01 -0.392825D-01
      8   0.141387D+00 -0.949717D-01  0.147140D-01  0.259422D-04  0.798605D-01
      9   0.300943D-01  0.563323D+00  0.433691D+00  0.911526D-01 -0.114339D+00
     10   0.155225D+00 -0.344527D+00  0.379840D+00 -0.110983D+00  0.593531D-01
     11  -0.909375D+00 -0.225922D+00  0.128066D+00  0.509309D+00 -0.338045D+00
     12  -0.104641D+00 -0.357238D-02 -0.144558D-01  0.981372D-01  0.358532D+00
     13  -0.291248D+00  0.776372D-01  0.838583D-01 -0.132811D+00 -0.140105D+00
     14  -0.117864D+00 -0.485285D+00  0.168698D+00 -0.234141D+00 -0.589927D+00
     15  -0.452477D-01 -0.610321D+00 -0.490783D+00 -0.545539D-01  0.239156D+00
     16   0.200713D+00 -0.108486D+00 -0.132271D-01  0.405724D-01  0.158093D+00
               661           662           663           664           665 
      1  -0.146390D+03 -0.146367D+03 -0.146357D+03 -0.146349D+03 -0.146343D+03
      2  -0.147270D-01 -0.140473D-02  0.266668D-01  0.390471D-01 -0.205848D-01
      3  -0.396127D-01  0.558001D-01  0.806380D-01 -0.174962D-01  0.341918D-01
      4   0.165393D+00  0.574787D-01  0.191549D-01  0.729089D-02  0.152538D-02
      5   0.410709D-01  0.654272D-03 -0.781663D-01 -0.132645D+00  0.649455D-01
      6   0.125217D+00 -0.173190D+00 -0.254526D+00  0.464275D-01 -0.116489D+00
      7  -0.514233D+00 -0.167063D+00 -0.549047D-01 -0.300990D-01 -0.152125D-01
      8   0.850574D-01  0.584097D-01  0.401657D-01 -0.243083D+00 -0.158727D+00
      9   0.929456D+00  0.187634D+00 -0.321964D-01  0.527628D+00  0.145098D+00
     10   0.237782D+00 -0.237696D-01 -0.269246D+00 -0.796563D-01 -0.194353D+00
     11   0.758448D+00 -0.463277D-01  0.332518D+00 -0.286743D+00 -0.181848D-01
     12  -0.360870D-01  0.191316D-01  0.542290D+00  0.188614D-01 -0.218648D+00
     13   0.285422D+00  0.125683D+00 -0.223506D+00  0.127949D+00  0.680882D-01
     14   0.602269D+00 -0.120473D+00 -0.241231D+00  0.112978D+00 -0.343830D+00
     15  -0.957358D+00 -0.164914D+00 -0.493425D-01 -0.522399D+00 -0.177617D+00
     16   0.213086D+00 -0.547228D-01  0.724334D-01 -0.409001D+00 -0.107014D+00
               666           667           668           669           670 
      1  -0.146330D+03 -0.146326D+03 -0.146312D+03 -0.146292D+03 -0.146273D+03
      2   0.673342D-01  0.638942D-02 -0.986615D-03  0.988746D-01  0.182450D-01
      3   0.455141D-01 -0.541924D-01 -0.402350D-01 -0.127238D-01 -0.370576D-02
      4  -0.126625D-02  0.648317D-01  0.906884D-02 -0.102786D+00  0.233762D-01
      5  -0.203846D+00 -0.201630D-01  0.875918D-02 -0.318982D+00 -0.647722D-01
      6  -0.131587D+00  0.164105D+00  0.119652D+00  0.377789D-01  0.301471D-01
      7   0.278371D-02 -0.193143D+00 -0.263371D-01  0.308394D+00 -0.721785D-01
      8  -0.274319D-01  0.746161D-01  0.204312D-03 -0.171647D+00  0.253016D-01
      9   0.684632D-01  0.167972D+00  0.614755D-01 -0.401663D+00  0.680234D-01
     10   0.159988D+00 -0.520834D-01  0.477173D-01 -0.231873D-01 -0.160988D+00
     11   0.215338D+00 -0.131799D+00  0.730318D-01 -0.602810D+00 -0.289565D-01
     12  -0.120256D+00 -0.788310D-01 -0.172593D-01 -0.478413D-01 -0.791876D-01
     13  -0.124099D-02  0.114984D+00  0.153441D+00 -0.161555D+00 -0.565753D-03
     14   0.101214D+00 -0.612623D-02  0.131879D+00  0.352995D-01  0.141039D+00
     15  -0.508425D-01 -0.211573D+00 -0.884299D-01  0.584418D+00 -0.124353D+00
     16  -0.579207D-01  0.182204D-01 -0.277197D-01 -0.248712D+00  0.162468D-02
               671           672           673           674           675 
      1  -0.146269D+03 -0.146269D+03 -0.146257D+03 -0.146243D+03 -0.146230D+03
      2  -0.231809D-01  0.301283D-01 -0.557618D-01  0.838601D-02 -0.753011D-01
      3   0.550874D-01  0.632386D-01 -0.333694D-03  0.186939D-01 -0.216313D-01
      4   0.972462D-02 -0.241034D-01  0.725055D-02  0.262313D-01 -0.261028D-01
      5   0.736087D-01 -0.987016D-01  0.180433D+00 -0.383108D-01  0.253860D+00
      6  -0.184047D+00 -0.189769D+00 -0.160862D-01 -0.559132D-01  0.796128D-01
      7  -0.280125D-01  0.745733D-01 -0.188570D-01 -0.906825D-01  0.890333D-01
      8  -0.647739D-01 -0.566938D-01  0.119348D-01  0.520585D-01  0.648503D-01
      9   0.256208D+00 -0.298098D-01  0.800590D-01  0.263171D+00 -0.279592D+00
     10  -0.441519D+00  0.197711D-02  0.193918D+00 -0.275384D+00  0.746111D-01
     11   0.467439D+00 -0.314011D-01 -0.699878D+00 -0.159033D+00  0.332111D+00
     12  -0.134712D+00 -0.161404D+00  0.257325D+00 -0.132969D+00 -0.470447D+00
     13   0.109934D+00 -0.311148D-01 -0.170221D+00  0.101002D+00 -0.143511D+00
     14  -0.307876D+00 -0.195788D-01  0.161855D-01 -0.134412D+00 -0.388651D+00
     15  -0.368252D+00  0.318597D-01 -0.466703D-01 -0.284036D+00  0.296842D+00
     16  -0.109532D+00 -0.366487D-01 -0.733995D-01  0.179847D+00  0.821888D-01
               676           677           678           679           680 
      1  -0.146226D+03 -0.146216D+03 -0.146204D+03 -0.146203D+03 -0.146173D+03
      2  -0.168254D-01 -0.317825D-01 -0.686618D-01  0.652618D-01  0.728849D-01
      3  -0.405169D-01 -0.562586D-01  0.471803D-01  0.515138D-01 -0.210129D-01
      4   0.139904D-01 -0.237976D-01  0.359178D-02 -0.150895D-01 -0.133369D-01
      5   0.615899D-01  0.928459D-01  0.204026D+00 -0.216999D+00 -0.235086D+00
      6   0.127106D+00  0.178560D+00 -0.151618D+00 -0.161580D+00  0.473747D-01
      7  -0.408997D-01  0.751300D-01 -0.176653D-01  0.489241D-01  0.402117D-01
      8  -0.320977D+00 -0.137556D+00  0.220403D-01  0.160843D-02  0.107269D+00
      9   0.536791D+00  0.790464D-01 -0.522125D-01 -0.354688D-01 -0.180493D+00
     10   0.384120D+00  0.395187D-02 -0.304275D+00  0.205171D+00  0.161175D+00
     11  -0.883349D-01 -0.746578D+00 -0.538587D+00 -0.546066D+00  0.831793D-01
     12  -0.292090D+00 -0.135776D+00 -0.118735D+00 -0.728397D-01 -0.544049D+00
     13   0.256967D+00  0.296379D-01 -0.595194D-01 -0.726312D-01 -0.781374D-01
     14   0.181523D+00 -0.694139D-01 -0.212556D+00  0.190808D+00  0.233505D+00
     15  -0.580759D+00 -0.608826D-01  0.600656D-01  0.834898D-01  0.263809D+00
     16  -0.562292D+00 -0.221859D+00  0.152555D+00 -0.382070D-01  0.196219D+00
               681           682           683           684           685 
      1  -0.146143D+03 -0.146137D+03 -0.146125D+03 -0.146120D+03 -0.146092D+03
      2  -0.437233D-01  0.413132D-02  0.439862D-01 -0.248281D-01  0.134993D-01
      3   0.895609D-01  0.188899D-01  0.113284D-01  0.859467D-01 -0.357578D-01
      4  -0.338593D-02  0.786424D-02  0.100989D-01 -0.878005D-02 -0.230876D-01
      5   0.133851D+00 -0.987642D-02 -0.130881D+00  0.754143D-01 -0.471686D-01
      6  -0.267203D+00 -0.559160D-01 -0.357742D-01 -0.274174D+00  0.987816D-01
      7   0.155620D-01 -0.172282D-01 -0.238796D-01  0.194491D-01  0.774320D-01
      8   0.372033D-01 -0.584252D-01 -0.228781D-01 -0.185816D+00  0.811669D-01
      9  -0.749228D-01  0.915584D-01  0.116363D+00  0.136067D+00 -0.191319D+00
     10  -0.107195D+00 -0.630055D-02  0.199017D+00 -0.554279D+00  0.252574D+00
     11   0.279755D+00 -0.158016D-01 -0.120686D+00  0.370345D+00 -0.849897D+00
     12   0.934701D-01 -0.656019D-02  0.269361D+00 -0.158387D-01  0.102493D+00
     13  -0.457939D-01  0.389688D-01 -0.834019D-01  0.747910D-01 -0.107265D+00
     14  -0.243002D+00  0.128637D-01  0.204115D+00 -0.278892D+00  0.233119D+00
     15  -0.412217D-01 -0.140175D+00 -0.198833D+00 -0.124720D+00  0.204488D+00
     16   0.116399D+00  0.855104D-01 -0.973606D-01 -0.141228D+00  0.283403D-01
               686           687           688           689           690 
      1  -0.146065D+03 -0.146062D+03 -0.146056D+03 -0.146054D+03 -0.146031D+03
      2  -0.127159D-01  0.376684D-03  0.394245D-01  0.350277D-02  0.497210D-01
      3   0.649512D-01 -0.226230D-01 -0.753522D-02  0.757221D-01 -0.647241D-02
      4  -0.351410D-01  0.660304D-01  0.310782D-01  0.418857D-01 -0.105624D-01
      5   0.304351D-01 -0.574805D-02 -0.132860D+00 -0.907342D-02 -0.158896D+00
      6  -0.218774D+00  0.711194D-01  0.223571D-01 -0.242868D+00  0.223743D-01
      7   0.122312D+00 -0.210124D+00 -0.102304D+00 -0.123225D+00  0.328654D-01
      8   0.332125D-01  0.772219D-01  0.562453D-01  0.536002D-01  0.119396D-01
      9  -0.304011D+00  0.178608D+00  0.436294D-01  0.121405D+00 -0.192433D-01
     10   0.236607D-01 -0.411838D-02  0.617488D-01 -0.305377D+00  0.236885D+00
     11   0.511117D+00  0.151770D+00 -0.918626D+00 -0.290238D+00  0.178982D+00
     12  -0.506341D-01  0.232037D+00 -0.321821D+00  0.238348D+00 -0.469198D-01
     13  -0.351107D-01 -0.613152D-01  0.161507D+00 -0.321471D-01  0.139037D+00
     14  -0.980396D-01 -0.151124D-01  0.288595D+00 -0.234600D+00  0.227987D+00
     15   0.281227D+00 -0.223538D+00  0.497219D-01 -0.119639D+00  0.489769D-02
     16   0.108719D+00  0.148795D+00  0.135580D+00  0.540352D-01  0.590048D-02
               691           692           693           694           695 
      1  -0.146017D+03 -0.146006D+03 -0.145996D+03 -0.145987D+03 -0.145969D+03
      2   0.147632D-01  0.123519D-01  0.634506D-01  0.669676D-01 -0.177880D-01
      3  -0.339700D-01 -0.212315D-01 -0.102361D-01 -0.937182D-01 -0.255095D-01
      4   0.237879D-03 -0.865103D-03 -0.365314D-01  0.110902D-01 -0.122122D-01
      5  -0.482236D-01 -0.313279D-01 -0.224930D+00 -0.225806D+00  0.542381D-01
      6   0.101815D+00  0.620892D-01  0.293745D-01  0.316413D+00  0.908484D-01
      7   0.310287D-02  0.157016D-02  0.132403D+00 -0.304021D-01  0.382762D-01
      8   0.219159D-01  0.119660D-02 -0.204963D-03  0.479520D-01 -0.701772D-01
      9  -0.528129D-01 -0.375185D-01 -0.165706D+00 -0.861040D-02  0.168099D-01
     10  -0.411146D+00 -0.417755D-01  0.194392D+00 -0.790567D-01  0.236533D+00
     11  -0.197492D+00 -0.236970D+00 -0.118836D+00  0.188235D+00  0.245122D+00
     12  -0.146309D+00 -0.143606D-01  0.417022D+00  0.553231D-02 -0.605799D-01
     13   0.189102D+00  0.847564D-01 -0.789219D-01 -0.484867D-02  0.592452D-01
     14  -0.444305D+00 -0.122185D+00  0.732480D+00  0.254009D+00  0.288814D+00
     15   0.222834D-01  0.104945D+00  0.127078D+00  0.265892D-02  0.648782D-01
     16   0.746017D-01  0.800368D-03 -0.184811D+00 -0.687453D-01 -0.124816D+00
               696           697           698           699           700 
      1  -0.145963D+03 -0.145921D+03 -0.145894D+03 -0.145889D+03 -0.145883D+03
      2   0.610186D-01 -0.116077D+00  0.103303D-01  0.250000D-02  0.142489D-01
      3  -0.604524D-02  0.413001D-01  0.449189D-01  0.150099D-01 -0.362398D-01
      4   0.906657D-01  0.194656D-01  0.282935D-02 -0.444695D-02 -0.114552D-01
      5  -0.201922D+00  0.422124D+00 -0.454802D-01 -0.251416D-01 -0.640039D-01
      6   0.256210D-01 -0.133706D+00 -0.144260D+00 -0.550656D-01  0.125889D+00
      7  -0.299821D+00 -0.626921D-01 -0.143633D-01  0.125942D-01  0.432145D-01
      8  -0.230919D-01 -0.740440D-02  0.809945D-02  0.361274D-01  0.501538D-01
      9   0.595798D+00  0.941861D-01 -0.280340D-01 -0.726681D-01 -0.153698D+00
     10   0.201147D+00  0.246861D+00 -0.213126D+00  0.518565D-01  0.249171D+00
     11  -0.684893D+00  0.983326D-01 -0.132346D+00  0.616528D-01 -0.303520D+00
     12  -0.139499D+00  0.608970D+00 -0.791799D-01  0.497972D-01 -0.318538D+00
     13   0.168493D+00  0.410975D-01  0.169014D-01 -0.257013D-01  0.110966D+00
     14   0.643593D-01 -0.338063D+00 -0.161665D+00  0.612572D-01  0.674591D+00
     15  -0.544294D+00 -0.129802D+00 -0.353912D-01 -0.679037D-02  0.163359D+00
     16  -0.935010D-01 -0.361386D-01 -0.284075D-01  0.734050D-02  0.927644D-02
               701           702           703           704           705 
      1  -0.145873D+03 -0.145838D+03 -0.145829D+03 -0.145816D+03 -0.145809D+03
      2   0.189899D-02 -0.648267D-01  0.546619D-04 -0.408842D-01 -0.852511D-02
      3  -0.577632D-02 -0.387738D-01  0.311556D-02 -0.286294D-01  0.357793D-01
      4   0.934027D-03 -0.413916D-01 -0.101301D-01  0.166923D-01  0.127776D-02
      5   0.898289D-03  0.244951D+00  0.131214D-01  0.138778D+00  0.454834D-01
      6   0.731902D-02  0.152162D+00 -0.242480D-01  0.104373D+00 -0.974622D-01
      7  -0.670102D-02  0.150307D+00  0.317998D-01 -0.518566D-01 -0.518867D-02
      8  -0.258368D-01  0.242061D-01  0.480983D-01  0.154490D+00 -0.152334D-01
      9   0.449200D-01 -0.338619D+00 -0.139777D+00 -0.158583D+00  0.464500D-01
     10  -0.229352D+00 -0.205786D+00 -0.227967D-01  0.534431D-01  0.172422D+00
     11  -0.237078D+00  0.579908D+00 -0.360589D+00  0.549476D+00  0.210262D+00
     12   0.294339D+00 -0.158636D+00  0.765216D-01 -0.116843D+00  0.121565D+00
     13  -0.840018D-01  0.288845D-01  0.267324D-01 -0.147439D-01 -0.818233D-01
     14  -0.377393D+00  0.793507D-01 -0.301520D+00  0.173645D+00  0.215928D+00
     15  -0.292215D-03  0.105897D+00  0.160867D+00  0.259058D+00 -0.620097D-01
     16  -0.195454D-01 -0.459698D-01  0.755386D-01  0.192732D+00 -0.314906D-01
               706           707           708           709           710 
      1  -0.145762D+03 -0.145758D+03 -0.145747D+03 -0.145700D+03 -0.145689D+03
      2  -0.102213D-01 -0.311626D-01  0.454002D-01 -0.184523D-01 -0.188870D-01
      3   0.333078D-01  0.567814D-01  0.655407D-01  0.202719D-04  0.243917D-01
      4  -0.320699D-01 -0.155519D-01  0.425482D-01 -0.331243D-01  0.181865D-01
      5   0.411336D-01  0.100632D+00 -0.161737D+00  0.900834D-01  0.821980D-01
      6  -0.122374D+00 -0.220832D+00 -0.244710D+00  0.189798D-02 -0.683799D-01
      7   0.112484D+00  0.538531D-01 -0.145159D+00  0.112853D+00 -0.636565D-01
      8   0.652862D-01 -0.552434D-02 -0.100465D+00  0.947890D-02 -0.253855D-01
      9  -0.229098D+00 -0.159498D+00  0.337871D+00 -0.200360D+00  0.147857D+00
     10   0.372024D+00 -0.479546D+00 -0.580912D+00  0.110797D-01  0.210144D+00
     11  -0.492726D+00  0.429604D+00 -0.651984D+00  0.733663D+00  0.386100D+00
     12   0.480165D+00 -0.117657D+00 -0.516035D-01  0.480364D-03  0.655969D-01
     13  -0.557645D-01 -0.200232D-01  0.578396D-01  0.395607D-01 -0.707031D-01
     14   0.269394D+00 -0.188112D+00 -0.518560D+00 -0.146237D+00 -0.273221D-01
     15   0.252588D+00  0.717915D-01 -0.249416D+00  0.990425D-01 -0.149377D+00
     16  -0.965808D-02  0.114180D+00  0.420378D-01  0.169544D-01 -0.636029D-02
               711           712           713           714           715 
      1  -0.145674D+03 -0.145662D+03 -0.145648D+03 -0.145640D+03 -0.145569D+03
      2  -0.104004D+00  0.105758D-01  0.286541D-01  0.135801D-01 -0.640595D-01
      3  -0.760091D-01  0.260254D-02 -0.379287D-01 -0.135603D-01 -0.367919D-01
      4   0.136812D-01  0.130183D-01  0.414604D-02 -0.280339D-01  0.140561D-01
      5   0.405303D+00 -0.448724D-01 -0.124328D+00 -0.275354D-01  0.268540D+00
      6   0.270461D+00 -0.138800D-01  0.119848D+00  0.707736D-01  0.154433D+00
      7  -0.535089D-01 -0.459810D-01 -0.121972D-01  0.950940D-01 -0.547022D-01
      8   0.195887D-01 -0.108822D-03  0.156188D-01  0.407010D-01  0.751790D-02
      9   0.688316D-01  0.142694D+00  0.485572D-02 -0.206545D+00  0.842491D-01
     10   0.607557D+00  0.368299D+00  0.255318D+00  0.262933D+00  0.236014D+00
     11   0.814791D+00 -0.900225D+00 -0.748409D+00 -0.144923D-01  0.691046D+00
     12  -0.446092D+00  0.326329D+00  0.289185D+00 -0.378742D-01 -0.314638D-01
     13   0.557126D-01  0.217069D-01 -0.525993D-01  0.716025D-01 -0.479100D-01
     14   0.241906D+00  0.232701D+00  0.498135D-01  0.249429D+00  0.324932D+00
     15  -0.172742D+00 -0.297100D-01  0.118505D+00  0.204758D+00 -0.188623D+00
     16  -0.547939D-01 -0.821003D-01 -0.705900D-01 -0.410907D-01 -0.508664D-01
               716           717           718           719           720 
      1  -0.145522D+03 -0.145469D+03 -0.145390D+03 -0.145299D+03 -0.145216D+03
      2  -0.550336D-01  0.144881D-01 -0.448663D-02  0.111317D-02 -0.231943D-01
      3   0.547415D-01  0.645732D-02 -0.109668D-02  0.328201D-01  0.241021D-02
      4  -0.119283D-01 -0.997330D-03  0.478188D-02  0.416649D-02 -0.544285D-02
      5   0.168187D+00 -0.527135D-01 -0.750383D-03  0.283210D-01  0.197524D-01
      6  -0.185883D+00 -0.100587D-01 -0.123757D-01 -0.107334D+00 -0.338979D-01
      7   0.401707D-01  0.760702D-03 -0.140713D-01 -0.185985D-01  0.241043D-01
      8  -0.534702D-02 -0.316508D-01 -0.107593D-01 -0.805214D-02 -0.381739D-02
      9  -0.887696D-01  0.526957D-01  0.272133D-01 -0.598553D-02 -0.381427D-01
     10  -0.285798D+00 -0.232321D+00 -0.130185D+00 -0.323952D+00 -0.420146D-01
     11  -0.116535D+00 -0.391119D+00  0.587343D+00  0.460710D+00  0.322164D+00
     12   0.138693D+00 -0.263330D+00  0.422444D+00 -0.119894D+00 -0.147238D+00
     13  -0.338642D-01  0.467778D-01 -0.778935D-01  0.203661D-01  0.234302D-01
     14  -0.285168D+00 -0.114913D+00  0.244724D+00 -0.269211D+00  0.501505D-01
     15   0.202638D-01 -0.359543D-01 -0.105906D+00 -0.460619D-01 -0.131186D-01
     16   0.106954D+00  0.494293D-01 -0.440946D-01  0.124886D+00  0.218313D-01
 Unable to Open any file for archive entry.
 1\1\GINC-HEL25\SP\RCAM-B3LYP TD-FC\Gen\C1H4N2\SABYASACHI\21-Mar-2022\0
 \\#P TD(Nstates=10000) cam-b3lyp/Gen SCF(maxcycles=100) Int(Grid=ultra
 fine)\\xGDB7_00001_tier4.com\\0,1\N,0,1.106441,0.142513,-0.090982\N,0,
 -0.080753,-0.51252,0.006066\C,0,-1.148696,0.167456,0.008166\H,0,1.8547
 49,-0.409916,0.291533\H,0,1.109677,1.100453,0.242713\H,0,-2.089851,-0.
 366199,0.035249\H,0,-1.162208,1.260974,-0.02408\\Version=EM64L-G16RevC
 .01\State=1-A\HF=-149.7902141\RMSD=2.213e-09\PG=C01 [X(C1H4N2)]\\@
 The archive entry for this job was punched.


 ARTHROPOD AXIOM: A COMPUTER SYSTEM IS LIKE A SPIDER'S WEB.
 YOU CANNOT PULL ON ONE END WITHOUT MAKING THE OTHER END MOVE.
     -- GREG WETTSTEIN
 Job cpu time:       0 days  0 hours 10 minutes 45.0 seconds.
 Elapsed time:       0 days  0 hours  1 minutes 21.0 seconds.
 File lengths (MBytes):  RWF=    666 Int=      0 D2E=      0 Chk=    150 Scr=      1
 Normal termination of Gaussian 16 at Mon Mar 21 20:11:38 2022.
