 Entering Gaussian System, Link 0=g16
 Input=000020.com
 Output=000020.log
 Initial command:
 /home/sabyasachi/g16/l1.exe "/scratch/sabyasachi/PBS_7976286.helios/Gau-110566.inp" -scrdir="/scratch/sabyasachi/PBS_7976286.helios/"
 Entering Link 1 = /home/sabyasachi/g16/l1.exe PID=    110567.
  
 Copyright (c) 1988-2019, Gaussian, Inc.  All Rights Reserved.
  
 This is part of the Gaussian(R) 16 program.  It is based on
 the Gaussian(R) 09 system (copyright 2009, Gaussian, Inc.),
 the Gaussian(R) 03 system (copyright 2003, Gaussian, Inc.),
 the Gaussian(R) 98 system (copyright 1998, Gaussian, Inc.),
 the Gaussian(R) 94 system (copyright 1995, Gaussian, Inc.),
 the Gaussian 92(TM) system (copyright 1992, Gaussian, Inc.),
 the Gaussian 90(TM) system (copyright 1990, Gaussian, Inc.),
 the Gaussian 88(TM) system (copyright 1988, Gaussian, Inc.),
 the Gaussian 86(TM) system (copyright 1986, Carnegie Mellon
 University), and the Gaussian 82(TM) system (copyright 1983,
 Carnegie Mellon University). Gaussian is a federally registered
 trademark of Gaussian, Inc.
  
 This software contains proprietary and confidential information,
 including trade secrets, belonging to Gaussian, Inc.
  
 This software is provided under written license and may be
 used, copied, transmitted, or stored only in accord with that
 written license.
  
 The following legend is applicable only to US Government
 contracts under FAR:
  
                    RESTRICTED RIGHTS LEGEND
  
 Use, reproduction and disclosure by the US Government is
 subject to restrictions as set forth in subparagraphs (a)
 and (c) of the Commercial Computer Software - Restricted
 Rights clause in FAR 52.227-19.
  
 Gaussian, Inc.
 340 Quinnipiac St., Bldg. 40, Wallingford CT 06492
  
  
 ---------------------------------------------------------------
 Warning -- This program may not be used in any manner that
 competes with the business of Gaussian, Inc. or will provide
 assistance to any competitor of Gaussian, Inc.  The licensee
 of this program is prohibited from giving any competitor of
 Gaussian, Inc. access to this program.  By using this program,
 the user acknowledges that Gaussian, Inc. is engaged in the
 business of creating and licensing software in the field of
 computational chemistry and represents and warrants to the
 licensee that it is not a competitor of Gaussian, Inc. and that
 it will not use this program in any manner prohibited above.
 ---------------------------------------------------------------
  

 Cite this work as:
 Gaussian 16, Revision C.01,
 M. J. Frisch, G. W. Trucks, H. B. Schlegel, G. E. Scuseria, 
 M. A. Robb, J. R. Cheeseman, G. Scalmani, V. Barone, 
 G. A. Petersson, H. Nakatsuji, X. Li, M. Caricato, A. V. Marenich, 
 J. Bloino, B. G. Janesko, R. Gomperts, B. Mennucci, H. P. Hratchian, 
 J. V. Ortiz, A. F. Izmaylov, J. L. Sonnenberg, D. Williams-Young, 
 F. Ding, F. Lipparini, F. Egidi, J. Goings, B. Peng, A. Petrone, 
 T. Henderson, D. Ranasinghe, V. G. Zakrzewski, J. Gao, N. Rega, 
 G. Zheng, W. Liang, M. Hada, M. Ehara, K. Toyota, R. Fukuda, 
 J. Hasegawa, M. Ishida, T. Nakajima, Y. Honda, O. Kitao, H. Nakai, 
 T. Vreven, K. Throssell, J. A. Montgomery, Jr., J. E. Peralta, 
 F. Ogliaro, M. J. Bearpark, J. J. Heyd, E. N. Brothers, K. N. Kudin, 
 V. N. Staroverov, T. A. Keith, R. Kobayashi, J. Normand, 
 K. Raghavachari, A. P. Rendell, J. C. Burant, S. S. Iyengar, 
 J. Tomasi, M. Cossi, J. M. Millam, M. Klene, C. Adamo, R. Cammi, 
 J. W. Ochterski, R. L. Martin, K. Morokuma, O. Farkas, 
 J. B. Foresman, and D. J. Fox, Gaussian, Inc., Wallingford CT, 2019.
 
 ******************************************
 Gaussian 16:  EM64L-G16RevC.01  3-Jul-2019
                21-Mar-2022 
 ******************************************
 %mem=64gb
 %nproc=8
 Will use up to    8 processors via shared memory.
 ----------------------------------------------------------------------
 #P TD(Nstates=10000) cam-b3lyp/Gen SCF(maxcycles=100) Int(Grid=ultrafi
 ne)
 ----------------------------------------------------------------------
 1/38=1,172=1/1;
 2/12=2,17=6,18=5,40=1/2;
 3/5=7,11=9,25=1,30=1,74=-40,75=-5/1,2,3,8;
 4//1;
 5/5=2,7=100,38=5/2;
 8/6=1,10=1,108=10000/1;
 9/41=10000,42=1,70=2/14;
 6/7=2,8=2,9=2,10=2/1;
 99/5=1,9=1/99;
 Leave Link    1 at Mon Mar 21 20:10:29 2022, MaxMem=  8589934592 cpu:               0.4 elap:               0.1
 (Enter /home/sabyasachi/g16/l101.exe)
 ---------------------
 xGDB7_00001_tier4.com
 ---------------------
 Symbolic Z-matrix:
 Charge =  0 Multiplicity = 1
 6                     0.        1.16389  -0.19314 
 8                     0.        0.        0.58545 
 6                     0.       -1.16389  -0.19314 
 1                     0.        2.01548   0.48583 
 1                    -0.89039   1.2192   -0.8344 
 1                     0.89039   1.2192   -0.8344 
 1                     0.       -2.01548   0.48583 
 1                     0.89039  -1.2192   -0.8344 
 1                    -0.89039  -1.2192   -0.8344 
 
 ITRead=  0  0  0  0  0  0  0  0  0
 MicOpt= -1 -1 -1 -1 -1 -1 -1 -1 -1
 NAtoms=      9 NQM=        9 NQMF=       0 NMMI=      0 NMMIF=      0
                NMic=       0 NMicF=      0.
                    Isotopes and Nuclear Properties:
 (Nuclear quadrupole moments (NQMom) in fm**2, nuclear magnetic moments (NMagM)
  in nuclear magnetons)

  Atom         1           2           3           4           5           6           7           8           9
 IAtWgt=          12          16          12           1           1           1           1           1           1
 AtmWgt=  12.0000000  15.9949146  12.0000000   1.0078250   1.0078250   1.0078250   1.0078250   1.0078250   1.0078250
 NucSpn=           0           0           0           1           1           1           1           1           1
 AtZEff=  -0.0000000  -0.0000000  -0.0000000  -0.0000000  -0.0000000  -0.0000000  -0.0000000  -0.0000000  -0.0000000
 NQMom=    0.0000000   0.0000000   0.0000000   0.0000000   0.0000000   0.0000000   0.0000000   0.0000000   0.0000000
 NMagM=    0.0000000   0.0000000   0.0000000   2.7928460   2.7928460   2.7928460   2.7928460   2.7928460   2.7928460
 AtZNuc=   6.0000000   8.0000000   6.0000000   1.0000000   1.0000000   1.0000000   1.0000000   1.0000000   1.0000000
 Leave Link  101 at Mon Mar 21 20:10:29 2022, MaxMem=  8589934592 cpu:               0.6 elap:               0.1
 (Enter /home/sabyasachi/g16/l202.exe)
                          Input orientation:                          
 ---------------------------------------------------------------------
 Center     Atomic      Atomic             Coordinates (Angstroms)
 Number     Number       Type             X           Y           Z
 ---------------------------------------------------------------------
      1          6           0        0.000000    1.163894   -0.193136
      2          8           0        0.000000    0.000000    0.585449
      3          6           0        0.000000   -1.163894   -0.193136
      4          1           0        0.000000    2.015478    0.485827
      5          1           0       -0.890390    1.219204   -0.834404
      6          1           0        0.890390    1.219204   -0.834404
      7          1           0        0.000000   -2.015478    0.485827
      8          1           0        0.890390   -1.219204   -0.834404
      9          1           0       -0.890390   -1.219204   -0.834404
 ---------------------------------------------------------------------
                    Distance matrix (angstroms):
                    1          2          3          4          5
     1  C    0.000000
     2  O    1.400301   0.000000
     3  C    2.327788   1.400301   0.000000
     4  H    1.089122   2.017939   3.251061   0.000000
     5  H    1.098671   2.072495   2.623581   1.780409   0.000000
     6  H    1.098671   2.072495   2.623581   1.780409   1.780780
     7  H    3.251061   2.017939   1.089122   4.030956   3.605409
     8  H    2.623581   2.072495   1.098671   3.605409   3.019439
     9  H    2.623581   2.072495   1.098671   3.605409   2.438408
                    6          7          8          9
     6  H    0.000000
     7  H    3.605409   0.000000
     8  H    2.438408   1.780409   0.000000
     9  H    3.019439   1.780409   1.780780   0.000000
 Stoichiometry    C2H6O
 Framework group  C2V[C2(O),SGV(C2H2),X(H4)]
 Deg. of freedom     7
 Full point group                 C2V     NOp   4
 Largest Abelian subgroup         C2V     NOp   4
 Largest concise Abelian subgroup C2V     NOp   4
                         Standard orientation:                         
 ---------------------------------------------------------------------
 Center     Atomic      Atomic             Coordinates (Angstroms)
 Number     Number       Type             X           Y           Z
 ---------------------------------------------------------------------
      1          6           0        0.000000    1.163894   -0.193136
      2          8           0       -0.000000   -0.000000    0.585449
      3          6           0       -0.000000   -1.163894   -0.193136
      4          1           0        0.000000    2.015478    0.485827
      5          1           0       -0.890390    1.219204   -0.834404
      6          1           0        0.890390    1.219204   -0.834404
      7          1           0       -0.000000   -2.015478    0.485827
      8          1           0        0.890390   -1.219204   -0.834404
      9          1           0       -0.890390   -1.219204   -0.834404
 ---------------------------------------------------------------------
 Rotational constants (GHZ):          39.6793505          10.1303106           8.9873277
 Leave Link  202 at Mon Mar 21 20:10:29 2022, MaxMem=  8589934592 cpu:               0.1 elap:               0.0
 (Enter /home/sabyasachi/g16/l301.exe)
 General basis read from cards:  (5D, 7F)
 Centers:       4      5      6      7      8      9
 S 3 1.00
     Exponent=  1.3010701000D+01 Coefficients=  1.9682158000D-02
     Exponent=  1.9622572000D+00 Coefficients=  1.3796524000D-01
     Exponent=  4.4453796000D-01 Coefficients=  4.7831935000D-01
 S 1 1.00
     Exponent=  1.2194962000D-01 Coefficients=  1.0000000000D+00
 P 1 1.00
     Exponent=  8.0000000000D-01 Coefficients=  1.0000000000D+00
 P 1 1.00
     Exponent=  1.1704099050D-01 Coefficients=  1.0000000000D+00
 ****
 Centers:       1      3
 S 5 1.00
     Exponent=  1.2384016938D+03 Coefficients=  5.4568832082D-03
     Exponent=  1.8629004992D+02 Coefficients=  4.0638409211D-02
     Exponent=  4.2251176346D+01 Coefficients=  1.8025593888D-01
     Exponent=  1.1676557932D+01 Coefficients=  4.6315121755D-01
     Exponent=  3.5930506482D+00 Coefficients=  4.4087173314D-01
 S 1 1.00
     Exponent=  4.0245147363D-01 Coefficients=  1.0000000000D+00
 S 1 1.00
     Exponent=  1.3090182668D-01 Coefficients=  1.0000000000D+00
 S 1 1.00
     Exponent=  6.7053540256D-02 Coefficients=  1.0000000000D+00
 P 3 1.00
     Exponent=  9.4680970621D+00 Coefficients=  3.8387871728D-02
     Exponent=  2.0103545142D+00 Coefficients=  2.1117025112D-01
     Exponent=  5.4771004707D-01 Coefficients=  5.1328172114D-01
 P 1 1.00
     Exponent=  1.5268613795D-01 Coefficients=  1.0000000000D+00
 D 1 1.00
     Exponent=  8.0000000000D-01 Coefficients=  1.0000000000D+00
 D 1 1.00
     Exponent=  1.1713185140D-01 Coefficients=  1.0000000000D+00
 ****
 Centers:       2
 S 5 1.00
     Exponent=  2.2661767785D+03 Coefficients= -5.3431809926D-03
     Exponent=  3.4087010191D+02 Coefficients= -3.9890039230D-02
     Exponent=  7.7363135167D+01 Coefficients= -1.7853911985D-01
     Exponent=  2.1479644940D+01 Coefficients= -4.6427684959D-01
     Exponent=  6.6589433124D+00 Coefficients= -4.4309745172D-01
 S 1 1.00
     Exponent=  8.0975975668D-01 Coefficients=  1.0000000000D+00
 S 1 1.00
     Exponent=  2.5530772234D-01 Coefficients=  1.0000000000D+00
 S 1 1.00
     Exponent=  7.6572453250D-02 Coefficients=  1.0000000000D+00
 P 3 1.00
     Exponent=  1.7721504317D+01 Coefficients=  4.3394573193D-02
     Exponent=  3.8635505440D+00 Coefficients=  2.3094120765D-01
     Exponent=  1.0480920883D+00 Coefficients=  5.1375311064D-01
 P 1 1.00
     Exponent=  2.7641544411D-01 Coefficients=  1.0000000000D+00
 P 1 1.00
     Exponent=  6.9002276350D-02 Coefficients=  1.0000000000D+00
 D 1 1.00
     Exponent=  1.2000000000D+00 Coefficients=  1.0000000000D+00
 D 1 1.00
     Exponent=  1.7992024323D-01 Coefficients=  1.0000000000D+00
 ****
 Ernie: Thresh=  0.10000D-02 Tol=  0.10000D-05 Strict=F.
 There are    43 symmetry adapted cartesian basis functions of A1  symmetry.
 There are    18 symmetry adapted cartesian basis functions of A2  symmetry.
 There are    21 symmetry adapted cartesian basis functions of B1  symmetry.
 There are    35 symmetry adapted cartesian basis functions of B2  symmetry.
 There are    39 symmetry adapted basis functions of A1  symmetry.
 There are    18 symmetry adapted basis functions of A2  symmetry.
 There are    21 symmetry adapted basis functions of B1  symmetry.
 There are    33 symmetry adapted basis functions of B2  symmetry.
   111 basis functions,   159 primitive gaussians,   117 cartesian basis functions
    13 alpha electrons       13 beta electrons
       nuclear repulsion energy        84.2993183068 Hartrees.
 IExCor=20419 DFT=T Ex+Corr=CAM-B3LYP ExCW=0 ScaHFX=  1.000000
 ScaDFX=  1.000000  1.000000  1.000000  0.810000 ScalE2=  1.000000  1.000000
 IRadAn=      5 IRanWt=     -1 IRanGd=            0 ICorTp=0 IEmpDi=  4
 HFx  wShort=  0.000000 wLong=  0.330000 cFull=  0.190000 cShort=  0.000000 cLong=  0.460000
 DFx  wShort=  0.000000 wLong=  0.330000 cFull=  0.190000 cShort=  0.000000 cLong=  0.460000
 NAtoms=    9 NActive=    9 NUniq=    4 SFac= 4.00D+00 NAtFMM=   60 NAOKFM=F Big=F
 Integral buffers will be    131072 words long.
 Raffenetti 1 integral format.
 Two-electron integral symmetry is turned on.
 Leave Link  301 at Mon Mar 21 20:10:29 2022, MaxMem=  8589934592 cpu:               0.6 elap:               0.1
 (Enter /home/sabyasachi/g16/l302.exe)
 NPDir=0 NMtPBC=     1 NCelOv=     1 NCel=       1 NClECP=     1 NCelD=      1
         NCelK=      1 NCelE2=     1 NClLst=     1 CellRange=     0.0.
 One-electron integrals computed using PRISM.
 One-electron integral symmetry used in STVInt
 NBasis=   111 RedAO= T EigKep=  3.93D-04  NBF=    39    18    21    33
 NBsUse=   111 1.00D-06 EigRej= -1.00D+00 NBFU=    39    18    21    33
 Precomputing XC quadrature grid using
 IXCGrd= 4 IRadAn=           5 IRanWt=          -1 IRanGd=           0 AccXCQ= 0.00D+00.
 Generated NRdTot=       0 NPtTot=           0 NUsed=           0 NTot=          32
 NSgBfM=   117   117   117   117   117 MxSgAt=     9 MxSgA2=     9.
 Leave Link  302 at Mon Mar 21 20:10:29 2022, MaxMem=  8589934592 cpu:               1.1 elap:               0.2
 (Enter /home/sabyasachi/g16/l303.exe)
 DipDrv:  MaxL=1.
 Leave Link  303 at Mon Mar 21 20:10:29 2022, MaxMem=  8589934592 cpu:               0.2 elap:               0.0
 (Enter /home/sabyasachi/g16/l308.exe)
 Leave Link  308 at Mon Mar 21 20:10:29 2022, MaxMem=  8589934592 cpu:               0.2 elap:               0.1
 (Enter /home/sabyasachi/g16/l401.exe)
 ExpMin= 6.71D-02 ExpMax= 2.27D+03 ExpMxC= 3.41D+02 IAcc=3 IRadAn=         5 AccDes= 0.00D+00
 Harris functional with IExCor=20419 and IRadAn=       5 diagonalized for initial guess.
 HarFok:  IExCor=20419 AccDes= 0.00D+00 IRadAn=         5 IDoV= 1 UseB2=F ITyADJ=14
 ICtDFT=  3500011 ScaDFX=  1.000000  1.000000  1.000000  1.000000
 FoFCou: FMM=F IPFlag=           0 FMFlag=      100000 FMFlg1=           0
         NFxFlg=           0 DoJE=T BraDBF=F KetDBF=T FulRan=T
         wScrn=  0.000000 ICntrl=       500 IOpCl=  0 I1Cent=   200000004 NGrid=           0
         NMat0=    1 NMatS0=      1 NMatT0=    0 NMatD0=    1 NMtDS0=    0 NMtDT0=    0
 Petite list used in FoFCou.
 Harris En= -148.827625030984    
 JPrj=0 DoOrth=F DoCkMO=F.
 Initial guess orbital symmetries:
       Occupied  (A1) (B2) (A1) (A1) (B2) (A1) (B2) (A1) (B1) (A2)
                 (B2) (A1) (B1)
       Virtual   (A1) (B2) (A1) (B1) (A1) (B2) (B1) (A1) (A2) (A1)
                 (B2) (A2) (B2) (B1) (B2) (A1) (A1) (B1) (A1) (B2)
                 (A1) (A1) (B1) (A2) (B1) (B2) (A2) (B2) (A2) (B2)
                 (A1) (B1) (B2) (A1) (A1) (A2) (B2) (B1) (A1) (B2)
                 (A2) (B2) (B1) (A1) (B2) (A1) (A2) (A1) (A1) (B1)
                 (B2) (B2) (A1) (A2) (A1) (B1) (B2) (A1) (A2) (B2)
                 (B2) (A1) (B1) (A2) (B2) (B1) (A2) (B1) (A1) (B2)
                 (A1) (B1) (A1) (A2) (B2) (A1) (B2) (A2) (B1) (A1)
                 (B2) (B2) (A1) (B1) (A2) (A1) (B2) (A1) (B2) (A1)
                 (A2) (B1) (B2) (B1) (A1) (A2) (A1) (B2)
 The electronic state of the initial guess is 1-A1.
 Leave Link  401 at Mon Mar 21 20:10:30 2022, MaxMem=  8589934592 cpu:               1.8 elap:               0.3
 (Enter /home/sabyasachi/g16/l502.exe)
 Keep R1 ints in memory in symmetry-blocked form, NReq=48420512.
 FoFCou: FMM=F IPFlag=           0 FMFlag=           0 FMFlg1=           0
         NFxFlg=           0 DoJE=F BraDBF=F KetDBF=F FulRan=T
         wScrn=  0.000000 ICntrl=       600 IOpCl=  0 I1Cent=           0 NGrid=           0
         NMat0=    1 NMatS0=   6216 NMatT0=    0 NMatD0=    1 NMtDS0=    0 NMtDT0=    0
 Petite list used in FoFCou.
 Closed shell SCF:
 Using DIIS extrapolation, IDIIS=  1040.
 NGot=  8589934592 LenX=  8585009726 LenY=  8584995596
 Requested convergence on RMS density matrix=1.00D-08 within 100 cycles.
 Requested convergence on MAX density matrix=1.00D-06.
 Requested convergence on             energy=1.00D-06.
 No special actions if energy rises.
 Integral accuracy reduced to 1.0D-05 until final iterations.

 Cycle   1  Pass 0  IDiag  1:
 E= -154.803728934669    
 DIIS: error= 2.97D-02 at cycle   1 NSaved=   1.
 NSaved= 1 IEnMin= 1 EnMin= -154.803728934669     IErMin= 1 ErrMin= 2.97D-02
 ErrMax= 2.97D-02  0.00D+00 EMaxC= 1.00D-01 BMatC= 8.44D-02 BMatP= 8.44D-02
 IDIUse=3 WtCom= 7.03D-01 WtEn= 2.97D-01
 Coeff-Com:  0.100D+01
 Coeff-En:   0.100D+01
 Coeff:      0.100D+01
 Gap=     0.453 Goal=   None    Shift=    0.000
 GapD=    0.453 DampG=2.000 DampE=0.500 DampFc=1.0000 IDamp=-1.
 RMSDP=3.59D-03 MaxDP=9.15D-02              OVMax= 8.04D-02

 Cycle   2  Pass 0  IDiag  1:
 E= -154.797958415021     Delta-E=        0.005770519648 Rises=F Damp=F
 DIIS: error= 2.59D-02 at cycle   2 NSaved=   2.
 NSaved= 2 IEnMin= 1 EnMin= -154.803728934669     IErMin= 2 ErrMin= 2.59D-02
 ErrMax= 2.59D-02  0.00D+00 EMaxC= 1.00D-01 BMatC= 6.90D-02 BMatP= 8.44D-02
 IDIUse=3 WtCom= 7.41D-01 WtEn= 2.59D-01
 Coeff-Com:  0.470D+00 0.530D+00
 Coeff-En:   0.534D+00 0.466D+00
 Coeff:      0.487D+00 0.513D+00
 Gap=     0.383 Goal=   None    Shift=    0.000
 RMSDP=1.74D-03 MaxDP=6.06D-02 DE= 5.77D-03 OVMax= 5.77D-02

 Cycle   3  Pass 0  IDiag  1:
 E= -154.843232878485     Delta-E=       -0.045274463465 Rises=F Damp=F
 DIIS: error= 5.53D-03 at cycle   3 NSaved=   3.
 NSaved= 3 IEnMin= 3 EnMin= -154.843232878485     IErMin= 3 ErrMin= 5.53D-03
 ErrMax= 5.53D-03  0.00D+00 EMaxC= 1.00D-01 BMatC= 2.45D-03 BMatP= 6.90D-02
 IDIUse=3 WtCom= 9.45D-01 WtEn= 5.53D-02
 Coeff-Com:  0.486D-02 0.156D+00 0.839D+00
 Coeff-En:   0.000D+00 0.000D+00 0.100D+01
 Coeff:      0.460D-02 0.148D+00 0.848D+00
 Gap=     0.384 Goal=   None    Shift=    0.000
 RMSDP=3.94D-04 MaxDP=1.21D-02 DE=-4.53D-02 OVMax= 1.40D-02

 Cycle   4  Pass 0  IDiag  1:
 E= -154.844977330943     Delta-E=       -0.001744452458 Rises=F Damp=F
 DIIS: error= 7.56D-04 at cycle   4 NSaved=   4.
 NSaved= 4 IEnMin= 4 EnMin= -154.844977330943     IErMin= 4 ErrMin= 7.56D-04
 ErrMax= 7.56D-04  0.00D+00 EMaxC= 1.00D-01 BMatC= 8.09D-05 BMatP= 2.45D-03
 IDIUse=3 WtCom= 9.92D-01 WtEn= 7.56D-03
 Coeff-Com: -0.178D-02 0.295D-01 0.267D+00 0.706D+00
 Coeff-En:   0.000D+00 0.000D+00 0.000D+00 0.100D+01
 Coeff:     -0.177D-02 0.292D-01 0.265D+00 0.708D+00
 Gap=     0.380 Goal=   None    Shift=    0.000
 RMSDP=8.66D-05 MaxDP=1.58D-03 DE=-1.74D-03 OVMax= 2.00D-03

 Cycle   5  Pass 0  IDiag  1:
 E= -154.845042440273     Delta-E=       -0.000065109330 Rises=F Damp=F
 DIIS: error= 1.53D-04 at cycle   5 NSaved=   5.
 NSaved= 5 IEnMin= 5 EnMin= -154.845042440273     IErMin= 5 ErrMin= 1.53D-04
 ErrMax= 1.53D-04  0.00D+00 EMaxC= 1.00D-01 BMatC= 2.79D-06 BMatP= 8.09D-05
 IDIUse=3 WtCom= 9.98D-01 WtEn= 1.53D-03
 Coeff-Com: -0.132D-02-0.315D-03 0.434D-01 0.216D+00 0.743D+00
 Coeff-En:   0.000D+00 0.000D+00 0.000D+00 0.000D+00 0.100D+01
 Coeff:     -0.132D-02-0.314D-03 0.434D-01 0.215D+00 0.743D+00
 Gap=     0.380 Goal=   None    Shift=    0.000
 RMSDP=2.77D-05 MaxDP=5.36D-04 DE=-6.51D-05 OVMax= 4.32D-04

 Cycle   6  Pass 0  IDiag  1:
 E= -154.845045044244     Delta-E=       -0.000002603972 Rises=F Damp=F
 DIIS: error= 4.25D-05 at cycle   6 NSaved=   6.
 NSaved= 6 IEnMin= 6 EnMin= -154.845045044244     IErMin= 6 ErrMin= 4.25D-05
 ErrMax= 4.25D-05  0.00D+00 EMaxC= 1.00D-01 BMatC= 1.59D-07 BMatP= 2.79D-06
 IDIUse=1 WtCom= 1.00D+00 WtEn= 0.00D+00
 Coeff-Com:  0.176D-04-0.358D-02-0.165D-01-0.209D-01 0.153D+00 0.888D+00
 Coeff:      0.176D-04-0.358D-02-0.165D-01-0.209D-01 0.153D+00 0.888D+00
 Gap=     0.380 Goal=   None    Shift=    0.000
 RMSDP=7.46D-06 MaxDP=1.18D-04 DE=-2.60D-06 OVMax= 1.14D-04

 Initial convergence to 1.0D-05 achieved.  Increase integral accuracy.
 Cycle   7  Pass 1  IDiag  1:
 E= -154.845051841122     Delta-E=       -0.000006796878 Rises=F Damp=F
 DIIS: error= 4.70D-06 at cycle   1 NSaved=   1.
 NSaved= 1 IEnMin= 1 EnMin= -154.845051841122     IErMin= 1 ErrMin= 4.70D-06
 ErrMax= 4.70D-06  0.00D+00 EMaxC= 1.00D-01 BMatC= 1.36D-09 BMatP= 1.36D-09
 IDIUse=1 WtCom= 1.00D+00 WtEn= 0.00D+00
 Coeff-Com:  0.100D+01
 Coeff:      0.100D+01
 Gap=     0.380 Goal=   None    Shift=    0.000
 RMSDP=7.46D-06 MaxDP=1.18D-04 DE=-6.80D-06 OVMax= 2.06D-05

 Cycle   8  Pass 1  IDiag  1:
 E= -154.845051843490     Delta-E=       -0.000000002368 Rises=F Damp=F
 DIIS: error= 1.95D-06 at cycle   2 NSaved=   2.
 NSaved= 2 IEnMin= 2 EnMin= -154.845051843490     IErMin= 2 ErrMin= 1.95D-06
 ErrMax= 1.95D-06  0.00D+00 EMaxC= 1.00D-01 BMatC= 3.44D-10 BMatP= 1.36D-09
 IDIUse=1 WtCom= 1.00D+00 WtEn= 0.00D+00
 Coeff-Com:  0.274D+00 0.726D+00
 Coeff:      0.274D+00 0.726D+00
 Gap=     0.380 Goal=   None    Shift=    0.000
 RMSDP=2.87D-07 MaxDP=4.63D-06 DE=-2.37D-09 OVMax= 6.68D-06

 Cycle   9  Pass 1  IDiag  1:
 E= -154.845051843840     Delta-E=       -0.000000000349 Rises=F Damp=F
 DIIS: error= 7.32D-07 at cycle   3 NSaved=   3.
 NSaved= 3 IEnMin= 3 EnMin= -154.845051843840     IErMin= 3 ErrMin= 7.32D-07
 ErrMax= 7.32D-07  0.00D+00 EMaxC= 1.00D-01 BMatC= 7.46D-11 BMatP= 3.44D-10
 IDIUse=1 WtCom= 1.00D+00 WtEn= 0.00D+00
 Coeff-Com: -0.437D-01 0.265D+00 0.778D+00
 Coeff:     -0.437D-01 0.265D+00 0.778D+00
 Gap=     0.380 Goal=   None    Shift=    0.000
 RMSDP=1.33D-07 MaxDP=2.43D-06 DE=-3.49D-10 OVMax= 3.12D-06

 Cycle  10  Pass 1  IDiag  1:
 E= -154.845051843912     Delta-E=       -0.000000000072 Rises=F Damp=F
 DIIS: error= 4.63D-07 at cycle   4 NSaved=   4.
 NSaved= 4 IEnMin= 4 EnMin= -154.845051843912     IErMin= 4 ErrMin= 4.63D-07
 ErrMax= 4.63D-07  0.00D+00 EMaxC= 1.00D-01 BMatC= 1.10D-11 BMatP= 7.46D-11
 IDIUse=1 WtCom= 1.00D+00 WtEn= 0.00D+00
 Coeff-Com: -0.490D-01 0.472D-01 0.347D+00 0.655D+00
 Coeff:     -0.490D-01 0.472D-01 0.347D+00 0.655D+00
 Gap=     0.380 Goal=   None    Shift=    0.000
 RMSDP=3.29D-08 MaxDP=1.16D-06 DE=-7.21D-11 OVMax= 1.56D-06

 Cycle  11  Pass 1  IDiag  1:
 E= -154.845051843919     Delta-E=       -0.000000000007 Rises=F Damp=F
 DIIS: error= 7.90D-08 at cycle   5 NSaved=   5.
 NSaved= 5 IEnMin= 5 EnMin= -154.845051843919     IErMin= 5 ErrMin= 7.90D-08
 ErrMax= 7.90D-08  0.00D+00 EMaxC= 1.00D-01 BMatC= 7.93D-13 BMatP= 1.10D-11
 IDIUse=1 WtCom= 1.00D+00 WtEn= 0.00D+00
 Coeff-Com: -0.164D-01-0.344D-02 0.619D-01 0.256D+00 0.702D+00
 Coeff:     -0.164D-01-0.344D-02 0.619D-01 0.256D+00 0.702D+00
 Gap=     0.380 Goal=   None    Shift=    0.000
 RMSDP=1.05D-08 MaxDP=2.12D-07 DE=-6.93D-12 OVMax= 3.10D-07

 Cycle  12  Pass 1  IDiag  1:
 E= -154.845051843919     Delta-E=       -0.000000000000 Rises=F Damp=F
 DIIS: error= 1.37D-08 at cycle   6 NSaved=   6.
 NSaved= 6 IEnMin= 6 EnMin= -154.845051843919     IErMin= 6 ErrMin= 1.37D-08
 ErrMax= 1.37D-08  0.00D+00 EMaxC= 1.00D-01 BMatC= 1.50D-14 BMatP= 7.93D-13
 IDIUse=1 WtCom= 1.00D+00 WtEn= 0.00D+00
 Coeff-Com:  0.708D-03-0.262D-02-0.135D-01-0.118D-01 0.101D+00 0.926D+00
 Coeff:      0.708D-03-0.262D-02-0.135D-01-0.118D-01 0.101D+00 0.926D+00
 Gap=     0.380 Goal=   None    Shift=    0.000
 RMSDP=2.74D-09 MaxDP=3.77D-08 DE=-2.84D-13 OVMax= 8.69D-08

 SCF Done:  E(RCAM-B3LYP) =  -154.845051844     A.U. after   12 cycles
            NFock= 12  Conv=0.27D-08     -V/T= 2.0104
 KE= 1.532437790039D+02 PE=-5.294390406419D+02 EE= 1.370508914872D+02
 Leave Link  502 at Mon Mar 21 20:10:31 2022, MaxMem=  8589934592 cpu:              11.6 elap:               1.5
 (Enter /home/sabyasachi/g16/l801.exe)
 DoSCS=F DFT=T ScalE2(SS,OS)=  1.000000  1.000000
 ExpMin= 6.71D-02 ExpMax= 2.27D+03 ExpMxC= 3.41D+02 IAcc=3 IRadAn=         5 AccDes= 0.00D+00
 HarFok:  IExCor=  205 AccDes= 0.00D+00 IRadAn=         5 IDoV=-2 UseB2=F ITyADJ=14
 ICtDFT= 12500011 ScaDFX=  1.000000  1.000000  1.000000  1.000000
 Largest valence mixing into a core orbital is  7.38D-05
 Largest core mixing into a valence orbital is  1.57D-05
 Range of M.O.s used for correlation:     4   111
 NBasis=   111 NAE=    13 NBE=    13 NFC=     3 NFV=     0
 NROrb=    108 NOA=    10 NOB=    10 NVA=    98 NVB=    98

 **** Warning!!: The largest alpha MO coefficient is  0.14807255D+02

 Leave Link  801 at Mon Mar 21 20:10:31 2022, MaxMem=  8589934592 cpu:               0.5 elap:               0.1
 (Enter /home/sabyasachi/g16/l914.exe)
 RHF ground state
 Keep R1, R2, and R3 ints in memory in symmetry-blocked form, NReq=1109062584.
 FoFCou: FMM=F IPFlag=           0 FMFlag=           0 FMFlg1=           0
         NFxFlg=           0 DoJE=F BraDBF=F KetDBF=F FulRan=T
         wScrn=  0.000000 ICntrl=       600 IOpCl=  0 I1Cent=           0 NGrid=           0
         NMat0=    1 NMatS0=   6216 NMatT0=    0 NMatD0=    1 NMtDS0=    0 NMtDT0=    0
 Petite list used in FoFCou.
 MDV=  8589934592 DFT=T DoStab=F Mixed=T DoRPA=T DoScal=F NonHer=T
 Making orbital integer symmetry assigments:
 Orbital symmetries:
       Occupied  (A1) (B2) (A1) (A1) (B2) (A1) (B2) (B1) (A1) (A2)
                 (B2) (A1) (B1)
       Virtual   (A1) (B2) (A1) (B1) (A1) (B2) (B1) (A1) (A2) (A1)
                 (B2) (A2) (B1) (B2) (B2) (A1) (A1) (B1) (A1) (B2)
                 (A1) (B1) (A1) (A2) (B1) (B2) (A2) (B2) (A2) (B2)
                 (A1) (B1) (B2) (A1) (A1) (A2) (B2) (B1) (B2) (A1)
                 (A2) (B2) (B1) (A1) (B2) (A1) (A2) (A1) (A1) (B1)
                 (B2) (B2) (A1) (A2) (A1) (B1) (B2) (A1) (A2) (B2)
                 (B2) (A1) (B1) (A2) (B2) (B1) (A2) (B1) (A1) (B2)
                 (A1) (B1) (A1) (A2) (B2) (A1) (B2) (B1) (A2) (A1)
                 (B2) (B2) (A1) (B1) (A2) (A1) (B2) (A1) (B2) (A2)
                 (A1) (B1) (B2) (B1) (A1) (A2) (A1) (B2)
   980 initial guesses have been made.
 Convergence on wavefunction:    0.001000000000000
 Davidson Disk Diagonalization:  ConvIn= 1.00D-03 SkipCon=T Conv= 1.00D-03.
 Max sub-space:  5880 roots to seek:  1960 dimension of matrix:         1960
 *** WARNING: Number of orthogonal guesses is          980
 Iteration     1 Dimension   980 NMult     0 NNew    980
 CISAX will form   980 AO SS matrices at one time.
 NMat=   980 NSing=   980 JSym2X=-1.
 New state      4 was old state      5
 New state      5 was old state      6
 New state      6 was old state      4
 New state      7 was old state      8
 New state      8 was old state      7
 New state      9 was old state     11
 New state     11 was old state      9
 New state     12 was old state     13
 New state     13 was old state     14
 New state     14 was old state     12
 New state     17 was old state     18
 New state     18 was old state     19
 New state     19 was old state     20
 New state     20 was old state     17
 New state     22 was old state     24
 New state     24 was old state     25
 New state     25 was old state     22
 New state     27 was old state     30
 New state     28 was old state     31
 New state     29 was old state     28
 New state     30 was old state     29
 New state     31 was old state     27
 New state     32 was old state     33
 New state     33 was old state     32
 New state     34 was old state     39
 New state     35 was old state     34
 New state     37 was old state     35
 New state     38 was old state     45
 New state     39 was old state     38
 New state     40 was old state     43
 New state     41 was old state     37
 New state     43 was old state     44
 New state     44 was old state     40
 New state     45 was old state     41
 New state     46 was old state     54
 New state     47 was old state     48
 New state     48 was old state     46
 New state     49 was old state     51
 New state     51 was old state     58
 New state     52 was old state     59
 New state     53 was old state     52
 New state     54 was old state     47
 New state     55 was old state     57
 New state     56 was old state     49
 New state     57 was old state     56
 New state     58 was old state     60
 New state     59 was old state     61
 New state     60 was old state     55
 New state     61 was old state     68
 New state     62 was old state     64
 New state     64 was old state     66
 New state     65 was old state     67
 New state     66 was old state     70
 New state     67 was old state     72
 New state     68 was old state     62
 New state     69 was old state     77
 New state     70 was old state     65
 New state     71 was old state     69
 New state     72 was old state     73
 New state     73 was old state     75
 New state     75 was old state     81
 New state     77 was old state     71
 New state     78 was old state     87
 New state     79 was old state     89
 New state     80 was old state     78
 New state     81 was old state     80
 New state     83 was old state     79
 New state     84 was old state     93
 New state     85 was old state     91
 New state     86 was old state     88
 New state     87 was old state     90
 New state     88 was old state     83
 New state     89 was old state     85
 New state     90 was old state     84
 New state     91 was old state     98
 New state     92 was old state     86
 New state     93 was old state     92
 New state     94 was old state     96
 New state     95 was old state     99
 New state     96 was old state     97
 New state     97 was old state    100
 New state     98 was old state     94
 New state     99 was old state    101
 New state    100 was old state     95
 New state    101 was old state    102
 New state    102 was old state    127
 New state    104 was old state    117
 New state    105 was old state    104
 New state    106 was old state    111
 New state    107 was old state    109
 New state    108 was old state    105
 New state    109 was old state    113
 New state    110 was old state    107
 New state    111 was old state    108
 New state    112 was old state    106
 New state    113 was old state    122
 New state    114 was old state    112
 New state    115 was old state    110
 New state    117 was old state    114
 New state    118 was old state    120
 New state    120 was old state    125
 New state    121 was old state    118
 New state    122 was old state    121
 New state    123 was old state    115
 New state    124 was old state    123
 New state    125 was old state    129
 New state    126 was old state    131
 New state    127 was old state    133
 New state    128 was old state    138
 New state    129 was old state    135
 New state    130 was old state    124
 New state    131 was old state    134
 New state    132 was old state    141
 New state    133 was old state    130
 New state    134 was old state    128
 New state    135 was old state    137
 New state    137 was old state    126
 New state    138 was old state    163
 New state    139 was old state    132
 New state    141 was old state    142
 New state    142 was old state    139
 New state    145 was old state    146
 New state    146 was old state    145
 New state    147 was old state    148
 New state    148 was old state    150
 New state    149 was old state    147
 New state    150 was old state    151
 New state    151 was old state    156
 New state    153 was old state    149
 New state    154 was old state    158
 New state    155 was old state    153
 New state    156 was old state    154
 New state    157 was old state    166
 New state    158 was old state    159
 New state    159 was old state    157
 New state    160 was old state    172
 New state    161 was old state    155
 New state    162 was old state    165
 New state    163 was old state    174
 New state    164 was old state    171
 New state    165 was old state    161
 New state    166 was old state    162
 New state    167 was old state    170
 New state    168 was old state    173
 New state    169 was old state    180
 New state    170 was old state    168
 New state    171 was old state    164
 New state    172 was old state    169
 New state    173 was old state    181
 New state    174 was old state    175
 New state    175 was old state    184
 New state    176 was old state    203
 New state    177 was old state    167
 New state    178 was old state    176
 New state    179 was old state    178
 New state    180 was old state    182
 New state    181 was old state    191
 New state    182 was old state    177
 New state    183 was old state    179
 New state    184 was old state    190
 New state    185 was old state    195
 New state    188 was old state    197
 New state    189 was old state    185
 New state    190 was old state    194
 New state    191 was old state    192
 New state    192 was old state    193
 New state    193 was old state    198
 New state    194 was old state    202
 New state    195 was old state    196
 New state    196 was old state    212
 New state    197 was old state    204
 New state    198 was old state    189
 New state    199 was old state    188
 New state    200 was old state    206
 New state    201 was old state    183
 New state    202 was old state    218
 New state    203 was old state    213
 New state    204 was old state    200
 New state    205 was old state    215
 New state    206 was old state    207
 New state    207 was old state    208
 New state    208 was old state    201
 New state    209 was old state    205
 New state    210 was old state    221
 New state    211 was old state    217
 New state    212 was old state    216
 New state    213 was old state    214
 New state    214 was old state    209
 New state    215 was old state    219
 New state    216 was old state    210
 New state    217 was old state    211
 New state    218 was old state    232
 New state    219 was old state    238
 New state    220 was old state    226
 New state    221 was old state    236
 New state    222 was old state    229
 New state    223 was old state    220
 New state    224 was old state    225
 New state    225 was old state    223
 New state    226 was old state    228
 New state    227 was old state    224
 New state    228 was old state    230
 New state    229 was old state    233
 New state    230 was old state    231
 New state    231 was old state    222
 New state    232 was old state    241
 New state    233 was old state    235
 New state    235 was old state    239
 New state    236 was old state    227
 New state    237 was old state    243
 New state    238 was old state    246
 New state    239 was old state    245
 New state    240 was old state    237
 New state    241 was old state    257
 New state    242 was old state    252
 New state    243 was old state    264
 New state    245 was old state    248
 New state    246 was old state    240
 New state    248 was old state    250
 New state    249 was old state    242
 New state    250 was old state    254
 New state    252 was old state    256
 New state    253 was old state    255
 New state    254 was old state    261
 New state    255 was old state    249
 New state    256 was old state    260
 New state    257 was old state    277
 New state    258 was old state    259
 New state    259 was old state    253
 New state    260 was old state    280
 New state    261 was old state    273
 New state    262 was old state    278
 New state    263 was old state    258
 New state    264 was old state    262
 New state    266 was old state    270
 New state    267 was old state    274
 New state    268 was old state    263
 New state    269 was old state    266
 New state    270 was old state    268
 New state    271 was old state    275
 New state    272 was old state    269
 New state    273 was old state    267
 New state    274 was old state    272
 New state    275 was old state    271
 New state    276 was old state    279
 New state    277 was old state    281
 New state    278 was old state    285
 New state    279 was old state    276
 New state    280 was old state    284
 New state    281 was old state    286
 New state    282 was old state    287
 New state    284 was old state    282
 New state    285 was old state    290
 New state    286 was old state    298
 New state    287 was old state    304
 New state    288 was old state    294
 New state    289 was old state    300
 New state    290 was old state    288
 New state    291 was old state    292
 New state    292 was old state    291
 New state    293 was old state    296
 New state    294 was old state    293
 New state    295 was old state    289
 New state    296 was old state    301
 New state    297 was old state    295
 New state    298 was old state    299
 New state    299 was old state    297
 New state    300 was old state    313
 New state    301 was old state    305
 New state    303 was old state    309
 New state    304 was old state    303
 New state    305 was old state    315
 New state    306 was old state    308
 New state    308 was old state    311
 New state    309 was old state    320
 New state    310 was old state    306
 New state    311 was old state    312
 New state    312 was old state    310
 New state    313 was old state    332
 New state    314 was old state    316
 New state    315 was old state    314
 New state    316 was old state    333
 New state    317 was old state    328
 New state    318 was old state    330
 New state    320 was old state    318
 New state    321 was old state    323
 New state    322 was old state    317
 New state    323 was old state    322
 New state    324 was old state    326
 New state    325 was old state    324
 New state    326 was old state    321
 New state    328 was old state    329
 New state    329 was old state    343
 New state    330 was old state    325
 New state    331 was old state    339
 New state    332 was old state    336
 New state    333 was old state    335
 New state    334 was old state    331
 New state    335 was old state    334
 New state    336 was old state    347
 New state    337 was old state    344
 New state    338 was old state    346
 New state    339 was old state    342
 New state    340 was old state    341
 New state    341 was old state    345
 New state    342 was old state    338
 New state    343 was old state    350
 New state    344 was old state    337
 New state    345 was old state    340
 New state    346 was old state    349
 New state    347 was old state    356
 New state    349 was old state    351
 New state    350 was old state    374
 New state    351 was old state    354
 New state    352 was old state    357
 New state    353 was old state    355
 New state    354 was old state    353
 New state    355 was old state    359
 New state    356 was old state    352
 New state    357 was old state    387
 New state    359 was old state    371
 New state    360 was old state    361
 New state    361 was old state    369
 New state    363 was old state    360
 New state    364 was old state    367
 New state    365 was old state    364
 New state    366 was old state    365
 New state    367 was old state    373
 New state    368 was old state    363
 New state    369 was old state    370
 New state    370 was old state    378
 New state    371 was old state    372
 New state    372 was old state    366
 New state    373 was old state    368
 New state    374 was old state    376
 New state    375 was old state    385
 New state    376 was old state    380
 New state    377 was old state    384
 New state    378 was old state    382
 New state    379 was old state    386
 New state    380 was old state    391
 New state    381 was old state    377
 New state    382 was old state    381
 New state    383 was old state    375
 New state    384 was old state    388
 New state    385 was old state    397
 New state    386 was old state    383
 New state    387 was old state    390
 New state    388 was old state    392
 New state    389 was old state    379
 New state    390 was old state    396
 New state    391 was old state    402
 New state    392 was old state    394
 New state    393 was old state    389
 New state    394 was old state    404
 New state    395 was old state    407
 New state    396 was old state    408
 New state    397 was old state    393
 New state    398 was old state    403
 New state    399 was old state    398
 New state    400 was old state    395
 New state    402 was old state    410
 New state    403 was old state    400
 New state    404 was old state    409
 New state    405 was old state    399
 New state    406 was old state    415
 New state    407 was old state    437
 New state    408 was old state    405
 New state    409 was old state    406
 New state    410 was old state    411
 New state    411 was old state    412
 New state    412 was old state    419
 No map to state    415
 New state    416 was old state    421
 New state    417 was old state    416
 New state    418 was old state    417
 New state    419 was old state    420
 New state    420 was old state    418
 New state    421 was old state    424
 New state    423 was old state    429
 New state    424 was old state    425
 New state    425 was old state    428
 New state    426 was old state    434
 New state    427 was old state    432
 New state    428 was old state    430
 New state    429 was old state    431
 No map to state    430
 New state    431 was old state    435
 New state    432 was old state    426
 New state    433 was old state    427
 New state    434 was old state    423
 New state    435 was old state    449
 New state    436 was old state    433
 New state    437 was old state    436
 New state    438 was old state    443
 New state    440 was old state    441
 New state    441 was old state    440
 New state    443 was old state    438
 New state    444 was old state    445
 New state    445 was old state    448
 New state    446 was old state    444
 New state    447 was old state    453
 New state    448 was old state    454
 New state    449 was old state    451
 New state    450 was old state    446
 New state    451 was old state    447
 New state    452 was old state    456
 New state    453 was old state    452
 New state    454 was old state    455
 New state    455 was old state    460
 New state    456 was old state    457
 New state    457 was old state    466
 New state    458 was old state    450
 New state    459 was old state    458
 New state    460 was old state    467
 New state    461 was old state    462
 New state    462 was old state    463
 New state    463 was old state    468
 New state    464 was old state    459
 New state    465 was old state    461
 New state    466 was old state    470
 New state    467 was old state    464
 New state    468 was old state    472
 New state    469 was old state    465
 New state    470 was old state    473
 New state    471 was old state    469
 New state    472 was old state    479
 New state    473 was old state    483
 New state    474 was old state    476
 New state    475 was old state    471
 New state    476 was old state    475
 New state    477 was old state    487
 New state    478 was old state    477
 New state    479 was old state    474
 New state    480 was old state    478
 New state    481 was old state    496
 New state    483 was old state    488
 New state    484 was old state    485
 New state    485 was old state    481
 New state    486 was old state    494
 New state    487 was old state    480
 New state    488 was old state    492
 New state    489 was old state    500
 New state    491 was old state    489
 New state    492 was old state    486
 New state    493 was old state    484
 New state    494 was old state    491
 New state    495 was old state    493
 New state    496 was old state    498
 New state    497 was old state    495
 New state    498 was old state    497
 New state    499 was old state    502
 New state    500 was old state    507
 New state    501 was old state    499
 New state    502 was old state    511
 New state    503 was old state    504
 New state    504 was old state    501
 New state    505 was old state    506
 New state    506 was old state    505
 New state    507 was old state    503
 New state    508 was old state    509
 New state    509 was old state    508
 New state    510 was old state    523
 New state    511 was old state    519
 New state    512 was old state    510
 New state    513 was old state    515
 New state    515 was old state    536
 New state    516 was old state    512
 New state    517 was old state    522
 New state    518 was old state    517
 New state    519 was old state    516
 New state    520 was old state    527
 New state    522 was old state    528
 New state    523 was old state    525
 New state    525 was old state    529
 New state    526 was old state    518
 New state    527 was old state    520
 New state    528 was old state    531
 New state    529 was old state    533
 New state    530 was old state    534
 New state    531 was old state    530
 New state    532 was old state    526
 New state    533 was old state    537
 New state    534 was old state    532
 New state    536 was old state    540
 New state    537 was old state    541
 New state    538 was old state    539
 New state    539 was old state    546
 New state    540 was old state    542
 New state    541 was old state    538
 New state    542 was old state    549
 New state    543 was old state    544
 New state    544 was old state    543
 New state    545 was old state    551
 New state    546 was old state    545
 New state    547 was old state    552
 New state    548 was old state    550
 New state    549 was old state    548
 New state    550 was old state    568
 New state    551 was old state    547
 New state    552 was old state    555
 New state    553 was old state    556
 New state    555 was old state    553
 New state    556 was old state    559
 New state    558 was old state    574
 New state    559 was old state    562
 New state    560 was old state    563
 New state    561 was old state    564
 New state    562 was old state    560
 New state    563 was old state    558
 New state    564 was old state    565
 New state    565 was old state    566
 New state    566 was old state    569
 New state    567 was old state    570
 New state    568 was old state    571
 New state    569 was old state    567
 New state    570 was old state    561
 New state    571 was old state    575
 New state    572 was old state    573
 New state    573 was old state    572
 New state    574 was old state    576
 New state    575 was old state    577
 New state    576 was old state    583
 New state    577 was old state    581
 New state    578 was old state    582
 New state    579 was old state    578
 New state    580 was old state    579
 New state    581 was old state    580
 New state    582 was old state    589
 New state    583 was old state    584
 New state    584 was old state    586
 New state    586 was old state    587
 New state    587 was old state    588
 New state    588 was old state    591
 New state    589 was old state    590
 New state    590 was old state    595
 New state    591 was old state    592
 No map to state    592
 New state    595 was old state    597
 New state    597 was old state    598
 New state    598 was old state    605
 New state    602 was old state    603
 New state    603 was old state    602
 New state    605 was old state    608
 New state    606 was old state    607
 New state    607 was old state    606
 New state    608 was old state    609
 New state    609 was old state    612
 New state    610 was old state    611
 New state    611 was old state    610
 New state    612 was old state    615
 New state    613 was old state    617
 New state    614 was old state    613
 New state    615 was old state    614
 New state    616 was old state    624
 New state    617 was old state    616
 New state    618 was old state    621
 New state    619 was old state    623
 New state    620 was old state    618
 New state    621 was old state    622
 New state    622 was old state    620
 New state    623 was old state    619
 New state    624 was old state    627
 New state    625 was old state    626
 New state    626 was old state    628
 New state    627 was old state    631
 New state    628 was old state    625
 New state    631 was old state    632
 New state    632 was old state    638
 New state    634 was old state    640
 New state    635 was old state    636
 New state    636 was old state    637
 New state    637 was old state    635
 New state    638 was old state    641
 New state    639 was old state    642
 New state    640 was old state    634
 New state    641 was old state    639
 New state    642 was old state    643
 New state    643 was old state    648
 New state    644 was old state    645
 New state    645 was old state    644
 New state    647 was old state    649
 New state    648 was old state    647
 New state    649 was old state    652
 New state    651 was old state    655
 New state    652 was old state    653
 New state    653 was old state    659
 New state    654 was old state    651
 New state    655 was old state    654
 New state    657 was old state    666
 New state    658 was old state    660
 New state    659 was old state    657
 New state    660 was old state    658
 New state    661 was old state    662
 New state    662 was old state    661
 New state    663 was old state    667
 New state    664 was old state    670
 New state    665 was old state    668
 New state    666 was old state    671
 New state    667 was old state    665
 New state    668 was old state    673
 New state    670 was old state    680
 New state    671 was old state    663
 New state    672 was old state    664
 New state    673 was old state    672
 New state    674 was old state    679
 New state    677 was old state    674
 New state    678 was old state    677
 New state    679 was old state    678
 New state    680 was old state    682
 New state    682 was old state    686
 New state    685 was old state    688
 New state    686 was old state    685
 New state    687 was old state    695
 New state    688 was old state    693
 New state    690 was old state    687
 New state    691 was old state    692
 New state    692 was old state    697
 New state    693 was old state    696
 New state    694 was old state    698
 New state    695 was old state    690
 New state    696 was old state    694
 New state    697 was old state    691
 New state    698 was old state    700
 New state    699 was old state    704
 New state    700 was old state    699
 New state    701 was old state    703
 New state    703 was old state    705
 New state    704 was old state    701
 New state    705 was old state    708
 New state    707 was old state    710
 New state    708 was old state    707
 New state    709 was old state    715
 New state    710 was old state    716
 New state    711 was old state    714
 New state    712 was old state    709
 New state    713 was old state    711
 New state    714 was old state    712
 New state    715 was old state    713
 New state    716 was old state    718
 New state    718 was old state    723
 New state    720 was old state    721
 New state    721 was old state    722
 New state    722 was old state    724
 New state    723 was old state    725
 New state    724 was old state    720
 New state    725 was old state    731
 New state    726 was old state    738
 New state    727 was old state    729
 New state    729 was old state    730
 New state    730 was old state    732
 New state    731 was old state    734
 New state    732 was old state    726
 New state    734 was old state    727
 New state    736 was old state    737
 New state    737 was old state    736
 New state    738 was old state    739
 New state    739 was old state    743
 New state    740 was old state    741
 New state    741 was old state    740
 New state    743 was old state    755
 New state    745 was old state    749
 New state    747 was old state    745
 New state    748 was old state    747
 New state    749 was old state    756
 New state    751 was old state    757
 New state    752 was old state    753
 New state    753 was old state    748
 New state    754 was old state    752
 New state    755 was old state    751
 New state    756 was old state    754
 New state    757 was old state    758
 New state    758 was old state    768
 New state    759 was old state    763
 New state    760 was old state    765
 New state    761 was old state    759
 New state    762 was old state    760
 New state    763 was old state    764
 New state    764 was old state    761
 New state    765 was old state    762
 New state    768 was old state    772
 New state    772 was old state    773
 New state    773 was old state    803
 New state    774 was old state    775
 New state    775 was old state    776
 New state    776 was old state    774
 New state    778 was old state    779
 New state    779 was old state    778
 New state    780 was old state    781
 New state    781 was old state    780
 New state    782 was old state    785
 New state    783 was old state    782
 New state    785 was old state    783
 New state    787 was old state    793
 New state    788 was old state    792
 New state    789 was old state    790
 New state    790 was old state    787
 New state    791 was old state    789
 New state    792 was old state    797
 New state    793 was old state    794
 New state    794 was old state    795
 New state    795 was old state    791
 New state    796 was old state    788
 New state    797 was old state    796
 New state    798 was old state    799
 New state    799 was old state    798
 New state    800 was old state    802
 New state    801 was old state    800
 New state    802 was old state    801
 New state    803 was old state    809
 New state    807 was old state    813
 New state    808 was old state    810
 No map to state    809
 New state    810 was old state    812
 New state    812 was old state    808
 New state    813 was old state    807
 New state    814 was old state    818
 New state    815 was old state    816
 New state    816 was old state    817
 New state    817 was old state    821
 New state    818 was old state    820
 New state    819 was old state    815
 New state    820 was old state    814
 New state    821 was old state    819
 New state    824 was old state    825
 New state    825 was old state    826
 New state    826 was old state    824
 New state    828 was old state    829
 New state    829 was old state    838
 New state    830 was old state    828
 New state    831 was old state    832
 New state    832 was old state    836
 New state    833 was old state    839
 New state    834 was old state    831
 New state    835 was old state    830
 New state    836 was old state    834
 New state    837 was old state    833
 New state    838 was old state    841
 New state    839 was old state    840
 New state    840 was old state    837
 New state    841 was old state    835
 New state    846 was old state    847
 New state    847 was old state    849
 New state    848 was old state    850
 New state    849 was old state    848
 New state    850 was old state    846
 New state    851 was old state    852
 New state    852 was old state    851
 New state    855 was old state    856
 New state    856 was old state    855
 New state    859 was old state    861
 New state    860 was old state    859
 New state    861 was old state    860
 New state    867 was old state    868
 New state    868 was old state    867
 New state    871 was old state    875
 New state    872 was old state    873
 New state    873 was old state    874
 New state    874 was old state    871
 New state    875 was old state    872
 New state    876 was old state    879
 New state    877 was old state    878
 New state    878 was old state    877
 New state    879 was old state    881
 New state    880 was old state    876
 New state    881 was old state    882
 New state    882 was old state    883
 New state    883 was old state    880
 New state    886 was old state    888
 New state    888 was old state    886
 New state    889 was old state    891
 New state    890 was old state    889
 New state    891 was old state    892
 New state    892 was old state    890
 New state    894 was old state    897
 New state    895 was old state    896
 New state    896 was old state    894
 New state    897 was old state    895
 New state    899 was old state    900
 New state    900 was old state    899
 New state    902 was old state    907
 New state    903 was old state    906
 New state    905 was old state    912
 New state    906 was old state    902
 New state    907 was old state    910
 New state    908 was old state    909
 New state    909 was old state    905
 New state    910 was old state    903
 New state    911 was old state    908
 New state    912 was old state    914
 New state    913 was old state    915
 New state    914 was old state    913
 New state    915 was old state    911
 New state    916 was old state    917
 New state    917 was old state    918
 New state    918 was old state    916
 New state    919 was old state    921
 New state    920 was old state    919
 New state    921 was old state    920
 New state    922 was old state    926
 New state    924 was old state    925
 New state    925 was old state    924
 New state    926 was old state    922
 New state    928 was old state    929
 New state    929 was old state    928
 New state    931 was old state    934
 New state    932 was old state    931
 New state    933 was old state    932
 New state    934 was old state    933
 New state    935 was old state    936
 New state    936 was old state    935
 New state    937 was old state    939
 New state    939 was old state    937
 New state    941 was old state    943
 New state    942 was old state    941
 New state    943 was old state    947
 New state    944 was old state    942
 New state    945 was old state    946
 New state    946 was old state    945
 New state    947 was old state    944
 New state    950 was old state    951
 New state    951 was old state    950
 New state    954 was old state    956
 New state    956 was old state    954
 New state    957 was old state    959
 New state    958 was old state    957
 New state    959 was old state    958
 New state    960 was old state    961
 New state    961 was old state    962
 New state    962 was old state    960
 New state    963 was old state    964
 New state    964 was old state    965
 New state    965 was old state    963
 New state    969 was old state    973
 New state    970 was old state    969
 New state    972 was old state    970
 New state    973 was old state    972
 New state    975 was old state    977
 New state    977 was old state    975
 Excitation Energies [eV] at current iteration:
 Root      1 :     7.121695077888688
 Root      2 :     8.150184437951605
 Root      3 :     8.196829026735498
 Root      4 :     8.760750754326812
 Root      5 :     8.821726206035441
 Root      6 :     8.861702977498794
 Root      7 :     9.529313916286990
 Root      8 :     9.724087437955165
 Root      9 :     9.806043316282318
 Root     10 :     9.812019499956083
 Root     11 :    10.095734987431160
 Root     12 :    10.444903173686890
 Root     13 :    10.449008372945900
 Root     14 :    10.517492598972040
 Root     15 :    10.555008145399830
 Root     16 :    10.740115723458670
 Root     17 :    11.007609689520980
 Root     18 :    11.076363456743350
 Root     19 :    11.152871962501390
 Root     20 :    11.342040384113710
 Root     21 :    11.356617982260100
 Root     22 :    11.484172072976770
 Root     23 :    11.613877953728450
 Root     24 :    11.697597854460160
 Root     25 :    11.745845153063690
 Root     26 :    11.812206606959170
 Root     27 :    11.949530737172780
 Root     28 :    12.019426616844590
 Root     29 :    12.176378633069450
 Root     30 :    12.289393868015000
 Root     31 :    12.328498434336670
 Root     32 :    12.673934932614800
 Root     33 :    12.680943234660230
 Root     34 :    12.734213409022520
 Root     35 :    12.918101538128830
 Root     36 :    12.933585106741360
 Root     37 :    13.086893388650580
 Root     38 :    13.089624826008470
 Root     39 :    13.159346530079420
 Root     40 :    13.172276489326830
 Root     41 :    13.305072771309750
 Root     42 :    13.322347547817560
 Root     43 :    13.333092452525740
 Root     44 :    13.365600455275030
 Root     45 :    13.373015271769100
 Root     46 :    13.623841508589870
 Root     47 :    13.636940615003180
 Root     48 :    13.697825455689760
 Root     49 :    13.866132578354150
 Root     50 :    13.949997418120480
 Root     51 :    14.038662311403040
 Root     52 :    14.140161517520010
 Root     53 :    14.228061416924390
 Root     54 :    14.266471149918700
 Root     55 :    14.268661912690380
 Root     56 :    14.274085662999470
 Root     57 :    14.439832759278690
 Root     58 :    14.484056033128320
 Root     59 :    14.536229651800580
 Root     60 :    14.594327131085400
 Root     61 :    14.690001827875970
 Root     62 :    14.695802544231220
 Root     63 :    14.783356435305410
 Root     64 :    14.834044535164470
 Root     65 :    14.880423676174850
 Root     66 :    14.886455190140930
 Root     67 :    14.979503115071700
 Root     68 :    14.980723584999340
 Root     69 :    14.998177393230340
 Root     70 :    15.087137026538890
 Root     71 :    15.129872582392330
 Root     72 :    15.179866977868700
 Root     73 :    15.200854831838550
 Root     74 :    15.208060093121490
 Root     75 :    15.260308211466660
 Root     76 :    15.330630858990880
 Root     77 :    15.394622025009910
 Root     78 :    15.576628392743090
 Root     79 :    15.632452931800050
 Root     80 :    15.716831122931970
 Root     81 :    15.774465786149580
 Root     82 :    15.808219406260610
 Root     83 :    15.812107301542980
 Root     84 :    15.836634036707710
 Root     85 :    15.886447599213260
 Root     86 :    15.891214252199530
 Root     87 :    15.902384133522940
 Root     88 :    16.069058195472500
 Root     89 :    16.075106155920280
 Root     90 :    16.128260185051250
 Root     91 :    16.173982477576240
 Root     92 :    16.229330537148300
 Root     93 :    16.290644975460540
 Root     94 :    16.414058935351750
 Root     95 :    16.457969071068580
 Root     96 :    16.463125839492940
 Root     97 :    16.494424894487170
 Root     98 :    16.559988174702420
 Root     99 :    16.580940919899370
 Root    100 :    16.664517917203810
 Root    101 :    16.720549033715960
 Root    102 :    16.854723897511280
 Root    103 :    16.985837919363890
 Root    104 :    17.020091629134160
 Root    105 :    17.020830597185750
 Root    106 :    17.073811460665230
 Root    107 :    17.164457674897090
 Root    108 :    17.229449545131770
 Root    109 :    17.249887551097890
 Root    110 :    17.269457603517660
 Root    111 :    17.323158416755310
 Root    112 :    17.347360489452450
 Root    113 :    17.423067193436290
 Root    114 :    17.426971141549560
 Root    115 :    17.467679020121600
 Root    116 :    17.476732902841950
 Root    117 :    17.514186888380490
 Root    118 :    17.544500510457360
 Root    119 :    17.594601974093970
 Root    120 :    17.647246463283820
 Root    121 :    17.737577761909360
 Root    122 :    17.779513628264890
 Root    123 :    17.829292722677540
 Root    124 :    17.878381486890040
 Root    125 :    17.936043204050710
 Root    126 :    17.989102003117340
 Root    127 :    18.010648061195910
 Root    128 :    18.034960359605750
 Root    129 :    18.073203748152260
 Root    130 :    18.134671544793350
 Root    131 :    18.158569388718420
 Root    132 :    18.176255970477250
 Root    133 :    18.253154278749540
 Root    134 :    18.290691582974680
 Root    135 :    18.298522965156380
 Root    136 :    18.300165357021000
 Root    137 :    18.381833430303760
 Root    138 :    18.468358752165800
 Root    139 :    18.495622370375820
 Root    140 :    18.538559900490830
 Root    141 :    18.641577259289380
 Root    142 :    18.665594967976120
 Root    143 :    18.696592966350480
 Root    144 :    18.764932312048510
 Root    145 :    18.846602017055320
 Root    146 :    18.863586935004960
 Root    147 :    19.005034405208000
 Root    148 :    19.110738512262810
 Root    149 :    19.114307811999480
 Root    150 :    19.155521658451530
 Root    151 :    19.226446506655940
 Root    152 :    19.306010611210340
 Root    153 :    19.313648559874820
 Root    154 :    19.338885119966020
 Root    155 :    19.380288749538500
 Root    156 :    19.432394888340840
 Root    157 :    19.486955939088310
 Root    158 :    19.488509654532080
 Root    159 :    19.538059733718190
 Root    160 :    19.629079910511760
 Root    161 :    19.644471678538030
 Root    162 :    19.663575817839860
 Root    163 :    19.667705797821240
 Root    164 :    19.686214149149120
 Root    165 :    19.741558206456430
 Root    166 :    19.754908301109060
 Root    167 :    19.808468022594270
 Root    168 :    19.863425537542290
 Root    169 :    19.921603540909490
 Root    170 :    19.991043583120560
 Root    171 :    20.027928749883630
 Root    172 :    20.057621125222380
 Root    173 :    20.100258893197960
 Root    174 :    20.175777576472450
 Root    175 :    20.217947675513640
 Root    176 :    20.218026806874200
 Root    177 :    20.270691101262020
 Root    178 :    20.334381911393970
 Root    179 :    20.346380162613950
 Root    180 :    20.382980549713160
 Root    181 :    20.483410377162170
 Root    182 :    20.488115755026250
 Root    183 :    20.512042146155910
 Root    184 :    20.678080246728170
 Root    185 :    20.685757949860470
 Root    186 :    20.686371827263610
 Root    187 :    20.693211229553450
 Root    188 :    20.719878425184570
 Root    189 :    20.724972389781360
 Root    190 :    20.836257105539540
 Root    191 :    20.866866012037840
 Root    192 :    20.891281517777570
 Root    193 :    20.911485066949140
 Root    194 :    20.945145465263540
 Root    195 :    20.959228699283270
 Root    196 :    20.997022392871170
 Root    197 :    21.032521253204400
 Root    198 :    21.065280046562530
 Root    199 :    21.085871936606220
 Root    200 :    21.189095441030940
 Root    201 :    21.209217030177850
 Root    202 :    21.260450669104780
 Root    203 :    21.266946708666140
 Root    204 :    21.287491656734230
 Root    205 :    21.318344815667360
 Root    206 :    21.333568053192500
 Root    207 :    21.458996032674530
 Root    208 :    21.508564784899480
 Root    209 :    21.509971964948820
 Root    210 :    21.513331386108580
 Root    211 :    21.641830274840770
 Root    212 :    21.682334640186770
 Root    213 :    21.699389587845270
 Root    214 :    21.747738522582690
 Root    215 :    21.782396003366720
 Root    216 :    21.794573059028590
 Root    217 :    21.900845687881200
 Root    218 :    21.932048011137760
 Root    219 :    22.008967541795450
 Root    220 :    22.013884271176040
 Root    221 :    22.068132383285950
 Root    222 :    22.077934431285410
 Root    223 :    22.100018478151880
 Root    224 :    22.158248054286130
 Root    225 :    22.174332794194320
 Root    226 :    22.181230754638710
 Root    227 :    22.195913365710940
 Root    228 :    22.204708765108290
 Root    229 :    22.242888944303630
 Root    230 :    22.255634409655710
 Root    231 :    22.287512274233230
 Root    232 :    22.287717853864730
 Root    233 :    22.414350350103540
 Root    234 :    22.431820684751890
 Root    235 :    22.437813765925260
 Root    236 :    22.440892651028590
 Root    237 :    22.514941027635950
 Root    238 :    22.525425721786550
 Root    239 :    22.600998334822040
 Root    240 :    22.705306245376650
 Root    241 :    22.706163573565410
 Root    242 :    22.727257845761620
 Root    243 :    22.814919554651240
 Root    244 :    22.852791608250210
 Root    245 :    22.873474762535230
 Root    246 :    22.896450109798740
 Root    247 :    22.951740776197550
 Root    248 :    22.995669110842080
 Root    249 :    23.037773424025250
 Root    250 :    23.056087177253870
 Root    251 :    23.100581470947710
 Root    252 :    23.193222685907810
 Root    253 :    23.199914968226420
 Root    254 :    23.231451654802730
 Root    255 :    23.235282262450320
 Root    256 :    23.407928142865310
 Root    257 :    23.461154859624080
 Root    258 :    23.472979009793390
 Root    259 :    23.486989492794320
 Root    260 :    23.551940016446760
 Root    261 :    23.597646210901380
 Root    262 :    23.667316851692480
 Root    263 :    23.703613365607510
 Root    264 :    23.721716730112590
 Root    265 :    23.795371897691300
 Root    266 :    23.813884838061330
 Root    267 :    23.822186225276640
 Root    268 :    23.825775702537380
 Root    269 :    23.851359382753060
 Root    270 :    23.898860697471130
 Root    271 :    23.904586026824710
 Root    272 :    23.997242439618810
 Root    273 :    24.051434919032050
 Root    274 :    24.090400988438700
 Root    275 :    24.116891806986030
 Root    276 :    24.176436181680830
 Root    277 :    24.218414805547940
 Root    278 :    24.254958864465480
 Root    279 :    24.269925648520920
 Root    280 :    24.284047710331880
 Root    281 :    24.362911092356250
 Root    282 :    24.414490286122550
 Root    283 :    24.465251717560660
 Root    284 :    24.509484722783140
 Root    285 :    24.547240174120320
 Root    286 :    24.678555905298960
 Root    287 :    24.781960704483610
 Root    288 :    24.794380601546180
 Root    289 :    24.801417010102130
 Root    290 :    24.914776354879200
 Root    291 :    24.952359234385750
 Root    292 :    24.959471162375020
 Root    293 :    25.044567959047250
 Root    294 :    25.050491240093940
 Root    295 :    25.099702415592990
 Root    296 :    25.151129156771970
 Root    297 :    25.182373104381530
 Root    298 :    25.185680082219650
 Root    299 :    25.234157013250230
 Root    300 :    25.235037286306390
 Root    301 :    25.341640437668990
 Root    302 :    25.367931899305620
 Root    303 :    25.410778437985080
 Root    304 :    25.418959195301620
 Root    305 :    25.480453820280260
 Root    306 :    25.516149349836700
 Root    307 :    25.601565862237590
 Root    308 :    25.607605181048400
 Root    309 :    25.682202410446370
 Root    310 :    25.900222443414110
 Root    311 :    25.931269973886120
 Root    312 :    25.954891246288870
 Root    313 :    25.966458235311130
 Root    314 :    25.966603120879870
 Root    315 :    26.059135259251680
 Root    316 :    26.064801438342790
 Root    317 :    26.362142434197570
 Root    318 :    26.424638675480590
 Root    319 :    26.438229367371000
 Root    320 :    26.507911907065240
 Root    321 :    26.540557259302030
 Root    322 :    26.587810931274210
 Root    323 :    26.600738394652090
 Root    324 :    26.664119786325810
 Root    325 :    26.682654270643650
 Root    326 :    26.710873714824330
 Root    327 :    26.758354085193160
 Root    328 :    26.808337259800250
 Root    329 :    26.882378128213550
 Root    330 :    26.921819628368500
 Root    331 :    27.037924227363350
 Root    332 :    27.123453692204780
 Root    333 :    27.198822298161000
 Root    334 :    27.230601911022970
 Root    335 :    27.309922712578350
 Root    336 :    27.362579531431930
 Root    337 :    27.498651010514940
 Root    338 :    27.530653120840750
 Root    339 :    27.550298235342100
 Root    340 :    27.609533652959370
 Root    341 :    27.653231251652290
 Root    342 :    27.697997945307770
 Root    343 :    27.699861886376920
 Root    344 :    27.769754054482990
 Root    345 :    27.820667063372000
 Root    346 :    27.859689919792380
 Root    347 :    27.885784033557170
 Root    348 :    27.992579014119620
 Root    349 :    28.149279325196760
 Root    350 :    28.170327763629750
 Root    351 :    28.171323834426870
 Root    352 :    28.192658766202290
 Root    353 :    28.246839442190660
 Root    354 :    28.304877621005030
 Root    355 :    28.354809038388610
 Root    356 :    28.366776209862550
 Root    357 :    28.433297781155260
 Root    358 :    28.458967161501650
 Root    359 :    28.515658657335520
 Root    360 :    28.760042617729050
 Root    361 :    28.836629131284070
 Root    362 :    28.914187864391770
 Root    363 :    28.955617905812480
 Root    364 :    29.061210192738630
 Root    365 :    29.108430568377130
 Root    366 :    29.115019330632650
 Root    367 :    29.180853174672300
 Root    368 :    29.289840028896470
 Root    369 :    29.315249235376000
 Root    370 :    29.446531191431240
 Root    371 :    29.497466249810980
 Root    372 :    29.535083768881180
 Root    373 :    29.585967244181610
 Root    374 :    29.680308523595720
 Root    375 :    29.711328150802190
 Root    376 :    29.754905085927660
 Root    377 :    29.787541974197980
 Root    378 :    29.840982668883400
 Root    379 :    29.862233698706840
 Root    380 :    29.960216678975640
 Root    381 :    30.003193746203280
 Root    382 :    30.055683255996690
 Root    383 :    30.080851325310880
 Root    384 :    30.107522016587300
 Root    385 :    30.155701782142810
 Root    386 :    30.278415622594410
 Root    387 :    30.300198853276320
 Root    388 :    30.327434459537900
 Root    389 :    30.350993153813820
 Root    390 :    30.457086880981120
 Root    391 :    30.472514486022240
 Root    392 :    30.517738037872600
 Root    393 :    30.625041113305380
 Root    394 :    30.794028015602350
 Root    395 :    30.808142079032020
 Root    396 :    30.868896023451570
 Root    397 :    30.929727828043340
 Root    398 :    30.961319660754750
 Root    399 :    31.081638700638240
 Root    400 :    31.098063280064740
 Root    401 :    31.128529873187090
 Root    402 :    31.153291765131010
 Root    403 :    31.181117244035380
 Root    404 :    31.182080630464590
 Root    405 :    31.311246140888610
 Root    406 :    31.313185693440020
 Root    407 :    31.753175881039700
 Root    408 :    31.769020948719160
 Root    409 :    31.846426936543210
 Root    410 :    31.850137630707420
 Root    411 :    31.984906303818010
 Root    412 :    32.123828614048460
 Root    413 :    32.183214063724140
 Root    414 :    32.216570399426540
 Root    415 :    32.387800232259210
 Root    416 :    32.466161579351110
 Root    417 :    32.520440262046690
 Root    418 :    32.523225743572870
 Root    419 :    32.571736973432910
 Root    420 :    32.792664292150750
 Root    421 :    32.805528403796700
 Root    422 :    32.812881876506070
 Root    423 :    32.963200185384410
 Root    424 :    33.000678775498280
 Root    425 :    33.029081744817650
 Root    426 :    33.254730278831610
 Root    427 :    33.259853526427820
 Root    428 :    33.406596694183920
 Root    429 :    33.419853712325950
 Root    430 :    33.476642828302440
 Root    431 :    33.495904833700420
 Root    432 :    33.512037415862790
 Root    433 :    33.590496836016650
 Root    434 :    33.595955004118420
 Root    435 :    33.883483448200550
 Root    436 :    33.903527480327980
 Root    437 :    34.063431033808480
 Root    438 :    34.223076772246460
 Root    439 :    34.344688075080380
 Root    440 :    34.350617296271670
 Root    441 :    34.426183477160640
 Root    442 :    34.482331821868370
 Root    443 :    34.530863170897040
 Root    444 :    34.568229228972880
 Root    445 :    34.622454063042610
 Root    446 :    34.671097388158950
 Root    447 :    34.681757754426740
 Root    448 :    34.785473216653080
 Root    449 :    34.829819972307460
 Root    450 :    34.993040891164980
 Root    451 :    35.047303691735730
 Root    452 :    35.092425286610410
 Root    453 :    35.121721341798630
 Root    454 :    35.188102065629280
 Root    455 :    35.270840319669480
 Root    456 :    35.336045019011340
 Root    457 :    35.345141746841090
 Root    458 :    35.345351982759940
 Root    459 :    35.518580353705030
 Root    460 :    35.609304991844520
 Root    461 :    35.649048370329680
 Root    462 :    35.808338427527950
 Root    463 :    35.825950189837350
 Root    464 :    35.935025347274380
 Root    465 :    35.970780499452100
 Root    466 :    35.986713520583600
 Root    467 :    36.121701664135140
 Root    468 :    36.144866720113850
 Root    469 :    36.193983215109180
 Root    470 :    36.287836949995520
 Root    471 :    36.303437645698430
 Root    472 :    36.365461122770610
 Root    473 :    36.452146663944530
 Root    474 :    36.524631663302170
 Root    475 :    36.579440178304450
 Root    476 :    36.608268269021810
 Root    477 :    36.637343935229140
 Root    478 :    36.649879603015210
 Root    479 :    36.790491873425200
 Root    480 :    36.836489461148300
 Root    481 :    36.938050522693420
 Root    482 :    36.962821901603950
 Root    483 :    37.039426225509390
 Root    484 :    37.073758600943340
 Root    485 :    37.202678139811220
 Root    486 :    37.264733941444420
 Root    487 :    37.272547769901830
 Root    488 :    37.299421492396340
 Root    489 :    37.472729418466980
 Root    490 :    37.476443421634560
 Root    491 :    37.506239733468960
 Root    492 :    37.521109173319830
 Root    493 :    37.544947830601990
 Root    494 :    37.622805110679810
 Root    495 :    37.662008873317480
 Root    496 :    37.768553056366720
 Root    497 :    37.951920339664280
 Root    498 :    38.232381559748110
 Root    499 :    38.265992680264710
 Root    500 :    38.268363264382310
 Root    501 :    38.280598344396550
 Root    502 :    38.341893140803780
 Root    503 :    38.483946817425990
 Root    504 :    38.577655841097570
 Root    505 :    38.868683603070570
 Root    506 :    38.880437256310630
 Root    507 :    39.085320436876440
 Root    508 :    39.101177917178780
 Root    509 :    39.168328209624730
 Root    510 :    39.266238750532680
 Root    511 :    39.274394172491160
 Root    512 :    39.343100382600130
 Root    513 :    39.433965266178260
 Root    514 :    39.434275083020300
 Root    515 :    39.514142879551930
 Root    516 :    39.517895461798820
 Root    517 :    39.532112063487480
 Root    518 :    39.546481177188710
 Root    519 :    39.550972675934190
 Root    520 :    39.682264387704730
 Root    521 :    39.803201253162880
 Root    522 :    39.809210275232620
 Root    523 :    39.922461388792080
 Root    524 :    40.022482346605730
 Root    525 :    40.153744314701840
 Root    526 :    40.325762818548990
 Root    527 :    40.332978937947110
 Root    528 :    40.393684307876040
 Root    529 :    40.469936564476520
 Root    530 :    40.566252589080340
 Root    531 :    40.613905173415670
 Root    532 :    40.807353801340250
[...]
     14   0.138992D+00  0.000000D+00  0.000000D+00  0.000000D+00  0.000000D+00
     15   0.000000D+00  0.000000D+00 -0.511322D-01 -0.134463D+00  0.000000D+00
     16   0.000000D+00  0.000000D+00  0.000000D+00  0.000000D+00  0.000000D+00
               911           912           913           914           915 
      1  -0.151391D+03 -0.151387D+03 -0.151386D+03 -0.151379D+03 -0.151377D+03
      2   0.000000D+00  0.000000D+00 -0.539006D-01  0.191403D+00  0.000000D+00
      3  -0.122984D-01 -0.112610D+00  0.000000D+00  0.000000D+00  0.946694D-01
      4   0.000000D+00  0.000000D+00  0.000000D+00  0.000000D+00  0.000000D+00
      5   0.000000D+00  0.000000D+00  0.188569D+00 -0.553612D+00  0.000000D+00
      6   0.273284D-01  0.379677D+00  0.000000D+00  0.000000D+00 -0.303215D+00
      7   0.000000D+00  0.000000D+00  0.000000D+00  0.000000D+00  0.000000D+00
      8  -0.539514D-01 -0.323411D+00  0.000000D+00  0.000000D+00  0.266195D+00
      9   0.000000D+00  0.000000D+00  0.264073D+00 -0.412419D+00  0.000000D+00
     10   0.000000D+00  0.000000D+00  0.000000D+00  0.000000D+00  0.000000D+00
     11   0.000000D+00  0.000000D+00  0.000000D+00  0.000000D+00  0.000000D+00
     12   0.000000D+00  0.000000D+00  0.000000D+00  0.000000D+00  0.000000D+00
     13   0.000000D+00  0.000000D+00  0.000000D+00  0.000000D+00  0.000000D+00
     14   0.000000D+00  0.000000D+00  0.000000D+00  0.000000D+00  0.000000D+00
     15   0.000000D+00  0.000000D+00  0.588923D+00 -0.327684D+00  0.000000D+00
     16   0.698925D-01  0.779379D+00  0.000000D+00  0.000000D+00 -0.319372D+00
               916           917           918           919           920 
      1  -0.151372D+03 -0.151371D+03 -0.151360D+03 -0.151352D+03 -0.151347D+03
      2   0.000000D+00  0.000000D+00  0.000000D+00  0.000000D+00  0.000000D+00
      3   0.000000D+00  0.000000D+00  0.000000D+00  0.000000D+00  0.969491D-01
      4   0.000000D+00 -0.934241D-01  0.120057D-01  0.753804D-01  0.000000D+00
      5   0.000000D+00  0.000000D+00  0.000000D+00  0.000000D+00  0.000000D+00
      6   0.000000D+00  0.000000D+00  0.000000D+00  0.000000D+00 -0.283491D+00
      7   0.000000D+00  0.240399D+00 -0.494858D-01 -0.224958D+00  0.000000D+00
      8   0.000000D+00  0.000000D+00  0.000000D+00  0.000000D+00 -0.290916D+00
      9   0.000000D+00  0.000000D+00  0.000000D+00  0.000000D+00  0.000000D+00
     10   0.169056D+00  0.000000D+00  0.000000D+00  0.000000D+00  0.000000D+00
     11   0.000000D+00  0.223182D+00  0.166824D+00  0.135793D+00  0.000000D+00
     12   0.000000D+00  0.356180D+00 -0.233247D+00 -0.289806D+00  0.000000D+00
     13   0.000000D+00 -0.897509D-01 -0.431364D+00 -0.840762D+00  0.000000D+00
     14  -0.290329D+00  0.000000D+00  0.000000D+00  0.000000D+00  0.000000D+00
     15   0.000000D+00  0.000000D+00  0.000000D+00  0.000000D+00  0.000000D+00
     16   0.000000D+00  0.000000D+00  0.000000D+00  0.000000D+00 -0.532620D-01
               921           922           923           924           925 
      1  -0.151347D+03 -0.151346D+03 -0.151345D+03 -0.151334D+03 -0.151325D+03
      2   0.000000D+00  0.000000D+00  0.000000D+00  0.000000D+00 -0.552308D-01
      3   0.000000D+00  0.000000D+00  0.000000D+00  0.000000D+00  0.000000D+00
      4   0.000000D+00  0.000000D+00  0.000000D+00 -0.243945D-01  0.000000D+00
      5   0.000000D+00  0.000000D+00  0.000000D+00  0.000000D+00  0.150411D+00
      6   0.000000D+00  0.000000D+00  0.000000D+00  0.000000D+00  0.000000D+00
      7   0.000000D+00  0.000000D+00  0.000000D+00  0.480902D-01  0.000000D+00
      8   0.000000D+00  0.000000D+00  0.000000D+00  0.000000D+00  0.000000D+00
      9   0.000000D+00  0.000000D+00  0.000000D+00  0.000000D+00  0.299616D+00
     10  -0.366762D+00 -0.826188D-01 -0.484921D+00  0.000000D+00  0.000000D+00
     11   0.000000D+00  0.000000D+00  0.000000D+00  0.134448D+00  0.000000D+00
     12   0.000000D+00  0.000000D+00  0.000000D+00  0.845662D-02  0.000000D+00
     13   0.000000D+00  0.000000D+00  0.000000D+00 -0.571549D-01  0.000000D+00
     14   0.353404D+00 -0.981291D-01  0.548037D+00  0.000000D+00  0.000000D+00
     15   0.000000D+00  0.000000D+00  0.000000D+00  0.000000D+00  0.401315D+00
     16   0.000000D+00  0.000000D+00  0.000000D+00  0.000000D+00  0.000000D+00
               926           927           928           929           930 
      1  -0.151294D+03 -0.151289D+03 -0.151269D+03 -0.151262D+03 -0.151256D+03
      2   0.000000D+00  0.000000D+00  0.412840D-01  0.000000D+00  0.000000D+00
      3   0.000000D+00 -0.126110D-01  0.000000D+00  0.234666D-01  0.000000D+00
      4  -0.211042D+00  0.000000D+00  0.000000D+00  0.000000D+00  0.000000D+00
      5   0.000000D+00  0.000000D+00 -0.127919D+00  0.000000D+00  0.000000D+00
      6   0.000000D+00  0.168158D-01  0.000000D+00 -0.859820D-01  0.000000D+00
      7   0.673823D+00  0.000000D+00  0.000000D+00  0.000000D+00  0.000000D+00
      8   0.000000D+00  0.162748D+00  0.000000D+00 -0.190587D+00  0.000000D+00
      9   0.000000D+00  0.000000D+00 -0.105770D+00  0.000000D+00  0.000000D+00
     10   0.000000D+00  0.000000D+00  0.000000D+00  0.000000D+00  0.560203D+00
     11  -0.195829D+00  0.000000D+00  0.000000D+00  0.000000D+00  0.000000D+00
     12   0.309288D-01  0.000000D+00  0.000000D+00  0.000000D+00  0.000000D+00
     13   0.208279D+01  0.000000D+00  0.000000D+00  0.000000D+00  0.000000D+00
     14   0.000000D+00  0.000000D+00  0.000000D+00  0.000000D+00 -0.408637D+00
     15   0.000000D+00  0.000000D+00 -0.308840D+00  0.000000D+00  0.000000D+00
     16   0.000000D+00  0.113750D+00  0.000000D+00  0.137552D+00  0.000000D+00
               931           932           933           934           935 
      1  -0.151254D+03 -0.151250D+03 -0.151244D+03 -0.151242D+03 -0.151220D+03
      2   0.498716D-01  0.000000D+00  0.000000D+00  0.000000D+00  0.000000D+00
      3   0.000000D+00  0.000000D+00  0.000000D+00  0.000000D+00 -0.839488D-01
      4   0.000000D+00 -0.846096D-01  0.000000D+00  0.528240D-01  0.000000D+00
      5  -0.116530D+00  0.000000D+00  0.000000D+00  0.000000D+00  0.000000D+00
      6   0.000000D+00  0.000000D+00  0.000000D+00  0.000000D+00  0.248077D+00
      7   0.000000D+00  0.233202D+00  0.000000D+00 -0.173295D+00  0.000000D+00
      8   0.000000D+00  0.000000D+00  0.000000D+00  0.000000D+00  0.323366D+00
      9   0.583561D-01  0.000000D+00  0.000000D+00  0.000000D+00  0.000000D+00
     10   0.000000D+00  0.000000D+00 -0.311161D+00  0.000000D+00  0.000000D+00
     11   0.000000D+00 -0.584252D-01  0.000000D+00 -0.522639D-01  0.000000D+00
     12   0.000000D+00  0.796235D+00  0.000000D+00  0.394464D+00  0.000000D+00
     13   0.000000D+00  0.264868D+00  0.000000D+00  0.122730D+00  0.000000D+00
     14   0.000000D+00  0.000000D+00  0.219437D+00  0.000000D+00  0.000000D+00
     15  -0.776704D-01  0.000000D+00  0.000000D+00  0.000000D+00  0.000000D+00
     16   0.000000D+00  0.000000D+00  0.000000D+00  0.000000D+00  0.106844D+00
               936           937           938           939           940 
      1  -0.151210D+03 -0.151178D+03 -0.151178D+03 -0.151173D+03 -0.151173D+03
      2  -0.183596D+00  0.000000D+00 -0.492245D-01  0.000000D+00  0.000000D+00
      3   0.000000D+00  0.000000D+00  0.000000D+00  0.000000D+00 -0.764802D-01
      4   0.000000D+00  0.000000D+00  0.000000D+00 -0.304143D-01  0.000000D+00
      5   0.578531D+00  0.000000D+00  0.142222D+00  0.000000D+00  0.000000D+00
      6   0.000000D+00  0.000000D+00  0.000000D+00  0.000000D+00  0.250796D+00
      7   0.000000D+00  0.000000D+00  0.000000D+00  0.116296D+00  0.000000D+00
      8   0.000000D+00  0.000000D+00  0.000000D+00  0.000000D+00 -0.290344D+00
      9   0.371266D+00  0.000000D+00  0.154730D-01  0.000000D+00  0.000000D+00
     10   0.000000D+00  0.333509D+00  0.000000D+00  0.000000D+00  0.000000D+00
     11   0.000000D+00  0.000000D+00  0.000000D+00 -0.103340D+00  0.000000D+00
     12   0.000000D+00  0.000000D+00  0.000000D+00 -0.674321D+00  0.000000D+00
     13   0.000000D+00  0.000000D+00  0.000000D+00 -0.902962D-02  0.000000D+00
     14   0.000000D+00 -0.199573D+00  0.000000D+00  0.000000D+00  0.000000D+00
     15   0.412113D+00  0.000000D+00  0.487527D-01  0.000000D+00  0.000000D+00
     16   0.000000D+00  0.000000D+00  0.000000D+00  0.000000D+00  0.257146D-01
               941           942           943           944           945 
      1  -0.151167D+03 -0.151166D+03 -0.151159D+03 -0.151150D+03 -0.151149D+03
      2   0.000000D+00  0.996613D-01  0.000000D+00  0.000000D+00  0.000000D+00
      3  -0.216813D-01  0.000000D+00  0.000000D+00 -0.317629D-01  0.000000D+00
      4   0.000000D+00  0.000000D+00 -0.136979D+00  0.000000D+00  0.000000D+00
      5   0.000000D+00 -0.271403D+00  0.000000D+00  0.000000D+00  0.000000D+00
      6   0.311444D-01  0.000000D+00  0.000000D+00  0.978749D-01  0.000000D+00
      7   0.000000D+00  0.000000D+00  0.451733D+00  0.000000D+00  0.000000D+00
      8   0.676628D+00  0.000000D+00  0.000000D+00 -0.995987D-01  0.000000D+00
      9   0.000000D+00  0.166461D+00  0.000000D+00  0.000000D+00  0.000000D+00
     10   0.000000D+00  0.000000D+00  0.000000D+00  0.000000D+00  0.490307D+00
     11   0.000000D+00  0.000000D+00  0.664400D-01  0.000000D+00  0.000000D+00
     12   0.000000D+00  0.000000D+00 -0.530237D+00  0.000000D+00  0.000000D+00
     13   0.000000D+00  0.000000D+00  0.124623D+01  0.000000D+00  0.000000D+00
     14   0.000000D+00  0.000000D+00  0.000000D+00  0.000000D+00 -0.706514D+00
     15   0.000000D+00 -0.198402D-01  0.000000D+00  0.000000D+00  0.000000D+00
     16   0.411660D+00  0.000000D+00  0.000000D+00 -0.129471D+00  0.000000D+00
               946           947           948           949           950 
      1  -0.151146D+03 -0.151110D+03 -0.151099D+03 -0.151082D+03 -0.151082D+03
      2  -0.229919D-01 -0.359017D+00  0.000000D+00  0.000000D+00  0.000000D+00
      3   0.000000D+00  0.000000D+00  0.000000D+00  0.000000D+00  0.000000D+00
      4   0.000000D+00  0.000000D+00 -0.592434D-01 -0.301996D-01  0.000000D+00
      5   0.632762D-01  0.114932D+01  0.000000D+00  0.000000D+00  0.000000D+00
      6   0.000000D+00  0.000000D+00  0.000000D+00  0.000000D+00  0.000000D+00
      7   0.000000D+00  0.000000D+00  0.159491D+00  0.101243D+00  0.000000D+00
      8   0.000000D+00  0.000000D+00  0.000000D+00  0.000000D+00  0.000000D+00
      9  -0.325166D-01  0.119190D+01  0.000000D+00  0.000000D+00  0.000000D+00
     10   0.000000D+00  0.000000D+00  0.000000D+00  0.000000D+00  0.263092D+00
     11   0.000000D+00  0.000000D+00  0.292401D+00  0.581867D-01  0.000000D+00
     12   0.000000D+00  0.000000D+00  0.346322D+00 -0.637813D-01  0.000000D+00
     13   0.000000D+00  0.000000D+00 -0.513526D+00  0.109186D+00  0.000000D+00
     14   0.000000D+00  0.000000D+00  0.000000D+00  0.000000D+00 -0.188641D+00
     15  -0.186619D+00  0.147534D+01  0.000000D+00  0.000000D+00  0.000000D+00
     16   0.000000D+00  0.000000D+00  0.000000D+00  0.000000D+00  0.000000D+00
               951           952           953           954           955 
      1  -0.151070D+03 -0.151058D+03 -0.151050D+03 -0.151040D+03 -0.150999D+03
      2   0.000000D+00  0.000000D+00  0.000000D+00  0.000000D+00  0.000000D+00
      3  -0.390269D-01  0.372680D-01  0.000000D+00  0.000000D+00  0.000000D+00
      4   0.000000D+00  0.000000D+00  0.000000D+00  0.000000D+00  0.000000D+00
      5   0.000000D+00  0.000000D+00  0.000000D+00  0.000000D+00  0.000000D+00
      6   0.139472D+00 -0.128448D+00  0.000000D+00  0.000000D+00  0.000000D+00
      7   0.000000D+00  0.000000D+00  0.000000D+00  0.000000D+00  0.000000D+00
      8  -0.441150D+00  0.190898D+00  0.000000D+00  0.000000D+00  0.000000D+00
      9   0.000000D+00  0.000000D+00  0.000000D+00  0.000000D+00  0.000000D+00
     10   0.000000D+00  0.000000D+00  0.283706D+00 -0.447538D-01  0.905965D-04
     11   0.000000D+00  0.000000D+00  0.000000D+00  0.000000D+00  0.000000D+00
     12   0.000000D+00  0.000000D+00  0.000000D+00  0.000000D+00  0.000000D+00
     13   0.000000D+00  0.000000D+00  0.000000D+00  0.000000D+00  0.000000D+00
     14   0.000000D+00  0.000000D+00 -0.369040D+00  0.253166D+00 -0.112602D+00
     15   0.000000D+00  0.000000D+00  0.000000D+00  0.000000D+00  0.000000D+00
     16   0.149020D+00 -0.107310D+00  0.000000D+00  0.000000D+00  0.000000D+00
               956           957           958           959           960 
      1  -0.150998D+03 -0.150989D+03 -0.150985D+03 -0.150975D+03 -0.150930D+03
      2   0.000000D+00  0.000000D+00  0.000000D+00 -0.115202D+00  0.000000D+00
      3   0.000000D+00  0.536181D-01  0.000000D+00  0.000000D+00 -0.338932D-01
      4  -0.745800D-02  0.000000D+00  0.173502D-01  0.000000D+00  0.000000D+00
      5   0.000000D+00  0.000000D+00  0.000000D+00  0.380048D+00  0.000000D+00
      6   0.000000D+00 -0.193492D+00  0.000000D+00  0.000000D+00  0.137570D+00
      7   0.169538D-01  0.000000D+00 -0.403086D-01  0.000000D+00  0.000000D+00
      8   0.000000D+00  0.300848D+00  0.000000D+00  0.000000D+00  0.280029D+00
      9   0.000000D+00  0.000000D+00  0.000000D+00  0.448074D+00  0.000000D+00
     10   0.000000D+00  0.000000D+00  0.000000D+00  0.000000D+00  0.000000D+00
     11   0.164087D+00  0.000000D+00 -0.455918D-01  0.000000D+00  0.000000D+00
     12  -0.258712D+00  0.000000D+00 -0.283557D+00  0.000000D+00  0.000000D+00
     13  -0.153965D+00  0.000000D+00  0.341211D+00  0.000000D+00  0.000000D+00
     14   0.000000D+00  0.000000D+00  0.000000D+00  0.000000D+00  0.000000D+00
     15   0.000000D+00  0.000000D+00  0.000000D+00  0.652765D+00  0.000000D+00
     16   0.000000D+00  0.885711D-01  0.000000D+00  0.000000D+00  0.447427D+00
               961           962           963           964           965 
      1  -0.150919D+03 -0.150898D+03 -0.150873D+03 -0.150872D+03 -0.150864D+03
      2  -0.882713D-01  0.000000D+00  0.000000D+00  0.000000D+00  0.000000D+00
      3   0.000000D+00  0.289822D+00  0.000000D+00  0.000000D+00  0.000000D+00
      4   0.000000D+00  0.000000D+00  0.000000D+00 -0.146704D-01 -0.137796D+00
      5   0.310974D+00  0.000000D+00  0.000000D+00  0.000000D+00  0.000000D+00
      6   0.000000D+00 -0.105655D+01  0.000000D+00  0.000000D+00  0.000000D+00
      7   0.000000D+00  0.000000D+00  0.000000D+00  0.364751D-01  0.495059D+00
      8   0.000000D+00  0.102172D+01  0.000000D+00  0.000000D+00  0.000000D+00
      9   0.604089D+00  0.000000D+00  0.000000D+00  0.000000D+00  0.000000D+00
     10   0.000000D+00  0.000000D+00  0.238776D+00  0.000000D+00  0.000000D+00
     11   0.000000D+00  0.000000D+00  0.000000D+00  0.284823D+00  0.148919D+00
     12   0.000000D+00  0.000000D+00  0.000000D+00  0.258185D+00  0.394377D+00
     13   0.000000D+00  0.000000D+00  0.000000D+00 -0.312420D+00  0.497955D+00
     14   0.000000D+00  0.000000D+00 -0.506429D+00  0.000000D+00  0.000000D+00
     15   0.606551D+00  0.000000D+00  0.000000D+00  0.000000D+00  0.000000D+00
     16   0.000000D+00 -0.105522D+01  0.000000D+00  0.000000D+00  0.000000D+00
               966           967           968           969           970 
      1  -0.150849D+03 -0.150843D+03 -0.150804D+03 -0.150792D+03 -0.150786D+03
      2  -0.329967D-01  0.417042D-01  0.000000D+00  0.963307D-01  0.000000D+00
      3   0.000000D+00  0.000000D+00  0.000000D+00  0.000000D+00 -0.346578D-01
      4   0.000000D+00  0.000000D+00  0.647945D-01  0.000000D+00  0.000000D+00
      5   0.113062D+00 -0.127326D+00  0.000000D+00 -0.327629D+00  0.000000D+00
      6   0.000000D+00  0.000000D+00  0.000000D+00  0.000000D+00  0.119369D+00
      7   0.000000D+00  0.000000D+00 -0.209605D+00  0.000000D+00  0.000000D+00
      8   0.000000D+00  0.000000D+00  0.000000D+00  0.000000D+00  0.249625D+00
      9   0.661449D-02  0.597815D-01  0.000000D+00 -0.271840D+00  0.000000D+00
     10   0.000000D+00  0.000000D+00  0.000000D+00  0.000000D+00  0.000000D+00
     11   0.000000D+00  0.000000D+00 -0.163211D+00  0.000000D+00  0.000000D+00
     12   0.000000D+00  0.000000D+00  0.101701D+01  0.000000D+00  0.000000D+00
     13   0.000000D+00  0.000000D+00 -0.149240D+00  0.000000D+00  0.000000D+00
     14   0.000000D+00  0.000000D+00  0.000000D+00  0.000000D+00  0.000000D+00
     15   0.187820D-01 -0.190723D+00  0.000000D+00  0.315919D-01  0.000000D+00
     16   0.000000D+00  0.000000D+00  0.000000D+00  0.000000D+00  0.177433D+00
               971           972           973           974           975 
      1  -0.150785D+03 -0.150776D+03 -0.150762D+03 -0.150714D+03 -0.150636D+03
      2   0.000000D+00  0.000000D+00  0.000000D+00  0.000000D+00  0.000000D+00
      3   0.000000D+00  0.111788D+00  0.000000D+00  0.119350D+00  0.000000D+00
      4   0.000000D+00  0.000000D+00  0.197002D+00  0.000000D+00  0.000000D+00
      5   0.000000D+00  0.000000D+00  0.000000D+00  0.000000D+00  0.000000D+00
      6   0.000000D+00 -0.404554D+00  0.000000D+00 -0.505530D+00  0.000000D+00
      7   0.000000D+00  0.000000D+00 -0.730935D+00  0.000000D+00  0.000000D+00
      8   0.000000D+00  0.711970D+00  0.000000D+00  0.533495D+00  0.000000D+00
      9   0.000000D+00  0.000000D+00  0.000000D+00  0.000000D+00  0.000000D+00
     10  -0.161130D+00  0.000000D+00  0.000000D+00  0.000000D+00  0.232326D+00
     11   0.000000D+00  0.000000D+00  0.871560D-01  0.000000D+00  0.000000D+00
     12   0.000000D+00  0.000000D+00  0.593709D+00  0.000000D+00  0.000000D+00
     13   0.000000D+00  0.000000D+00 -0.169593D+01  0.000000D+00  0.000000D+00
     14   0.328060D+00  0.000000D+00  0.000000D+00  0.000000D+00 -0.426486D-01
     15   0.000000D+00  0.000000D+00  0.000000D+00  0.000000D+00  0.000000D+00
     16   0.000000D+00 -0.350716D-01  0.000000D+00 -0.102057D+01  0.000000D+00
               976           977           978           979           980 
      1  -0.150633D+03 -0.150604D+03 -0.150526D+03 -0.150451D+03 -0.150252D+03
      2   0.000000D+00  0.000000D+00  0.000000D+00  0.000000D+00  0.000000D+00
      3   0.000000D+00  0.441994D-01  0.000000D+00  0.000000D+00  0.364102D-02
      4   0.984334D-02  0.000000D+00  0.492166D-01  0.482338D-01  0.000000D+00
      5   0.000000D+00  0.000000D+00  0.000000D+00  0.000000D+00  0.000000D+00
      6   0.000000D+00 -0.130801D+00  0.000000D+00  0.000000D+00  0.817752D-01
      7  -0.676683D-01  0.000000D+00 -0.232226D+00 -0.148303D+00  0.000000D+00
      8   0.000000D+00  0.722652D-01  0.000000D+00  0.000000D+00 -0.126049D+00
      9   0.000000D+00  0.000000D+00  0.000000D+00  0.000000D+00  0.000000D+00
     10   0.000000D+00  0.000000D+00  0.000000D+00  0.000000D+00  0.000000D+00
     11  -0.105324D+00  0.000000D+00  0.327762D-01  0.285412D+00  0.000000D+00
     12   0.256217D+00  0.000000D+00 -0.757735D+00 -0.183370D+00  0.000000D+00
     13  -0.301475D+00  0.000000D+00 -0.900400D+00 -0.317813D+00  0.000000D+00
     14   0.000000D+00  0.000000D+00  0.000000D+00  0.000000D+00  0.000000D+00
     15   0.000000D+00  0.000000D+00  0.000000D+00  0.000000D+00  0.000000D+00
     16   0.000000D+00  0.589848D+00  0.000000D+00  0.000000D+00 -0.382373D-01
 Unable to Open any file for archive entry.
 1\1\GINC-HEL23\SP\RCAM-B3LYP TD-FC\Gen\C2H6O1\SABYASACHI\21-Mar-2022\0
 \\#P TD(Nstates=10000) cam-b3lyp/Gen SCF(maxcycles=100) Int(Grid=ultra
 fine)\\xGDB7_00001_tier4.com\\0,1\C,0,0.,1.163894,-0.193136\O,0,0.,0.,
 0.585449\C,0,0.,-1.163894,-0.193136\H,0,0.,2.015478,0.485827\H,0,-0.89
 039,1.219204,-0.834404\H,0,0.89039,1.219204,-0.834404\H,0,0.,-2.015478
 ,0.485827\H,0,0.89039,-1.219204,-0.834404\H,0,-0.89039,-1.219204,-0.83
 4404\\Version=EM64L-G16RevC.01\State=1-A1\HF=-154.8450518\RMSD=2.739e-
 09\PG=C02V [C2(O1),SGV(C2H2),X(H4)]\\@
 The archive entry for this job was punched.


 LOGIC IS A SYSTEMATIC METHOD OF COMING TO THE
 WRONG CONCLUSION WITH CONFIDENCE.
 Job cpu time:       0 days  0 hours  7 minutes  8.1 seconds.
 Elapsed time:       0 days  0 hours  0 minutes 53.8 seconds.
 File lengths (MBytes):  RWF=   1237 Int=      0 D2E=      0 Chk=    291 Scr=      1
 Normal termination of Gaussian 16 at Mon Mar 21 20:11:23 2022.
