 Entering Gaussian System, Link 0=g16
 Input=000016.com
 Output=000016.log
 Initial command:
 /home/sabyasachi/g16/l1.exe "/scratch/sabyasachi/PBS_7976282.helios/Gau-46596.inp" -scrdir="/scratch/sabyasachi/PBS_7976282.helios/"
 Entering Link 1 = /home/sabyasachi/g16/l1.exe PID=     46597.
  
 Copyright (c) 1988-2019, Gaussian, Inc.  All Rights Reserved.
  
 This is part of the Gaussian(R) 16 program.  It is based on
 the Gaussian(R) 09 system (copyright 2009, Gaussian, Inc.),
 the Gaussian(R) 03 system (copyright 2003, Gaussian, Inc.),
 the Gaussian(R) 98 system (copyright 1998, Gaussian, Inc.),
 the Gaussian(R) 94 system (copyright 1995, Gaussian, Inc.),
 the Gaussian 92(TM) system (copyright 1992, Gaussian, Inc.),
 the Gaussian 90(TM) system (copyright 1990, Gaussian, Inc.),
 the Gaussian 88(TM) system (copyright 1988, Gaussian, Inc.),
 the Gaussian 86(TM) system (copyright 1986, Carnegie Mellon
 University), and the Gaussian 82(TM) system (copyright 1983,
 Carnegie Mellon University). Gaussian is a federally registered
 trademark of Gaussian, Inc.
  
 This software contains proprietary and confidential information,
 including trade secrets, belonging to Gaussian, Inc.
  
 This software is provided under written license and may be
 used, copied, transmitted, or stored only in accord with that
 written license.
  
 The following legend is applicable only to US Government
 contracts under FAR:
  
                    RESTRICTED RIGHTS LEGEND
  
 Use, reproduction and disclosure by the US Government is
 subject to restrictions as set forth in subparagraphs (a)
 and (c) of the Commercial Computer Software - Restricted
 Rights clause in FAR 52.227-19.
  
 Gaussian, Inc.
 340 Quinnipiac St., Bldg. 40, Wallingford CT 06492
  
  
 ---------------------------------------------------------------
 Warning -- This program may not be used in any manner that
 competes with the business of Gaussian, Inc. or will provide
 assistance to any competitor of Gaussian, Inc.  The licensee
 of this program is prohibited from giving any competitor of
 Gaussian, Inc. access to this program.  By using this program,
 the user acknowledges that Gaussian, Inc. is engaged in the
 business of creating and licensing software in the field of
 computational chemistry and represents and warrants to the
 licensee that it is not a competitor of Gaussian, Inc. and that
 it will not use this program in any manner prohibited above.
 ---------------------------------------------------------------
  

 Cite this work as:
 Gaussian 16, Revision C.01,
 M. J. Frisch, G. W. Trucks, H. B. Schlegel, G. E. Scuseria, 
 M. A. Robb, J. R. Cheeseman, G. Scalmani, V. Barone, 
 G. A. Petersson, H. Nakatsuji, X. Li, M. Caricato, A. V. Marenich, 
 J. Bloino, B. G. Janesko, R. Gomperts, B. Mennucci, H. P. Hratchian, 
 J. V. Ortiz, A. F. Izmaylov, J. L. Sonnenberg, D. Williams-Young, 
 F. Ding, F. Lipparini, F. Egidi, J. Goings, B. Peng, A. Petrone, 
 T. Henderson, D. Ranasinghe, V. G. Zakrzewski, J. Gao, N. Rega, 
 G. Zheng, W. Liang, M. Hada, M. Ehara, K. Toyota, R. Fukuda, 
 J. Hasegawa, M. Ishida, T. Nakajima, Y. Honda, O. Kitao, H. Nakai, 
 T. Vreven, K. Throssell, J. A. Montgomery, Jr., J. E. Peralta, 
 F. Ogliaro, M. J. Bearpark, J. J. Heyd, E. N. Brothers, K. N. Kudin, 
 V. N. Staroverov, T. A. Keith, R. Kobayashi, J. Normand, 
 K. Raghavachari, A. P. Rendell, J. C. Burant, S. S. Iyengar, 
 J. Tomasi, M. Cossi, J. M. Millam, M. Klene, C. Adamo, R. Cammi, 
 J. W. Ochterski, R. L. Martin, K. Morokuma, O. Farkas, 
 J. B. Foresman, and D. J. Fox, Gaussian, Inc., Wallingford CT, 2019.
 
 ******************************************
 Gaussian 16:  EM64L-G16RevC.01  3-Jul-2019
                21-Mar-2022 
 ******************************************
 %mem=64gb
 %nproc=8
 Will use up to    8 processors via shared memory.
 ----------------------------------------------------------------------
 #P TD(Nstates=10000) cam-b3lyp/Gen SCF(maxcycles=100) Int(Grid=ultrafi
 ne)
 ----------------------------------------------------------------------
 1/38=1,172=1/1;
 2/12=2,17=6,18=5,40=1/2;
 3/5=7,11=9,25=1,30=1,74=-40,75=-5/1,2,3,8;
 4//1;
 5/5=2,7=100,38=5/2;
 8/6=1,10=1,108=10000/1;
 9/41=10000,42=1,70=2/14;
 6/7=2,8=2,9=2,10=2/1;
 99/5=1,9=1/99;
 Leave Link    1 at Mon Mar 21 20:09:59 2022, MaxMem=  8589934592 cpu:               0.4 elap:               0.1
 (Enter /home/sabyasachi/g16/l101.exe)
 ---------------------
 xGDB7_00001_tier4.com
 ---------------------
 Symbolic Z-matrix:
 Charge =  0 Multiplicity = 1
 6                    -1.20842  -0.23907  -0.02192 
 6                     0.08389   0.55345   0.04673 
 8                     1.23347  -0.256    -0.10586 
 1                    -2.072     0.42514   0.0517 
 1                    -1.27067  -0.95776   0.79973 
 1                    -1.27063  -0.78828  -0.96233 
 1                     0.13003   1.1192    0.98611 
 1                     0.12595   1.27703  -0.76855 
 1                     1.23675  -0.91361   0.59134 
 
 ITRead=  0  0  0  0  0  0  0  0  0
 MicOpt= -1 -1 -1 -1 -1 -1 -1 -1 -1
 NAtoms=      9 NQM=        9 NQMF=       0 NMMI=      0 NMMIF=      0
                NMic=       0 NMicF=      0.
                    Isotopes and Nuclear Properties:
 (Nuclear quadrupole moments (NQMom) in fm**2, nuclear magnetic moments (NMagM)
  in nuclear magnetons)

  Atom         1           2           3           4           5           6           7           8           9
 IAtWgt=          12          12          16           1           1           1           1           1           1
 AtmWgt=  12.0000000  12.0000000  15.9949146   1.0078250   1.0078250   1.0078250   1.0078250   1.0078250   1.0078250
 NucSpn=           0           0           0           1           1           1           1           1           1
 AtZEff=  -0.0000000  -0.0000000  -0.0000000  -0.0000000  -0.0000000  -0.0000000  -0.0000000  -0.0000000  -0.0000000
 NQMom=    0.0000000   0.0000000   0.0000000   0.0000000   0.0000000   0.0000000   0.0000000   0.0000000   0.0000000
 NMagM=    0.0000000   0.0000000   0.0000000   2.7928460   2.7928460   2.7928460   2.7928460   2.7928460   2.7928460
 AtZNuc=   6.0000000   6.0000000   8.0000000   1.0000000   1.0000000   1.0000000   1.0000000   1.0000000   1.0000000
 Leave Link  101 at Mon Mar 21 20:09:59 2022, MaxMem=  8589934592 cpu:               0.7 elap:               0.1
 (Enter /home/sabyasachi/g16/l202.exe)
                          Input orientation:                          
 ---------------------------------------------------------------------
 Center     Atomic      Atomic             Coordinates (Angstroms)
 Number     Number       Type             X           Y           Z
 ---------------------------------------------------------------------
      1          6           0       -1.208422   -0.239069   -0.021917
      2          6           0        0.083893    0.553452    0.046734
      3          8           0        1.233467   -0.256002   -0.105864
      4          1           0       -2.071999    0.425136    0.051700
      5          1           0       -1.270670   -0.957756    0.799731
      6          1           0       -1.270625   -0.788280   -0.962327
      7          1           0        0.130030    1.119197    0.986112
      8          1           0        0.125952    1.277026   -0.768547
      9          1           0        1.236751   -0.913605    0.591341
 ---------------------------------------------------------------------
                    Distance matrix (angstroms):
                    1          2          3          4          5
     1  C    0.000000
     2  C    1.517524   0.000000
     3  O    2.443390   1.414221   0.000000
     4  H    1.091949   2.159713   3.378592   0.000000
     5  H    1.093385   2.164624   2.753773   1.764672   0.000000
     6  H    1.090813   2.157120   2.699505   1.772803   1.770189
     7  H    2.156957   1.097555   2.073923   2.490738   2.512057
     8  H    2.153266   1.090876   2.003974   2.495899   3.066643
     9  H    2.609589   1.943691   0.958409   3.609885   2.516453
                    6          7          8          9
     6  H    0.000000
     7  H    3.065407   0.000000
     8  H    2.500693   1.761748   0.000000
     9  H    2.952376   2.347969   2.807496   0.000000
 Stoichiometry    C2H6O
 Framework group  C1[X(C2H6O)]
 Deg. of freedom    21
 Full point group                 C1      NOp   1
 Largest Abelian subgroup         C1      NOp   1
 Largest concise Abelian subgroup C1      NOp   1
                         Standard orientation:                         
 ---------------------------------------------------------------------
 Center     Atomic      Atomic             Coordinates (Angstroms)
 Number     Number       Type             X           Y           Z
 ---------------------------------------------------------------------
      1          6           0       -1.208422   -0.239069   -0.021917
      2          6           0        0.083893    0.553452    0.046734
      3          8           0        1.233467   -0.256002   -0.105864
      4          1           0       -2.071999    0.425135    0.051700
      5          1           0       -1.270670   -0.957756    0.799731
      6          1           0       -1.270625   -0.788280   -0.962327
      7          1           0        0.130030    1.119197    0.986112
      8          1           0        0.125951    1.277026   -0.768547
      9          1           0        1.236751   -0.913605    0.591341
 ---------------------------------------------------------------------
 Rotational constants (GHZ):          34.6666409           9.2583988           8.1755823
 Leave Link  202 at Mon Mar 21 20:09:59 2022, MaxMem=  8589934592 cpu:               0.1 elap:               0.0
 (Enter /home/sabyasachi/g16/l301.exe)
 General basis read from cards:  (5D, 7F)
 Centers:       4      5      6      7      8      9
 S 3 1.00
     Exponent=  1.3010701000D+01 Coefficients=  1.9682158000D-02
     Exponent=  1.9622572000D+00 Coefficients=  1.3796524000D-01
     Exponent=  4.4453796000D-01 Coefficients=  4.7831935000D-01
 S 1 1.00
     Exponent=  1.2194962000D-01 Coefficients=  1.0000000000D+00
 P 1 1.00
     Exponent=  8.0000000000D-01 Coefficients=  1.0000000000D+00
 P 1 1.00
     Exponent=  1.1704099050D-01 Coefficients=  1.0000000000D+00
 ****
 Centers:       1      2
 S 5 1.00
     Exponent=  1.2384016938D+03 Coefficients=  5.4568832082D-03
     Exponent=  1.8629004992D+02 Coefficients=  4.0638409211D-02
     Exponent=  4.2251176346D+01 Coefficients=  1.8025593888D-01
     Exponent=  1.1676557932D+01 Coefficients=  4.6315121755D-01
     Exponent=  3.5930506482D+00 Coefficients=  4.4087173314D-01
 S 1 1.00
     Exponent=  4.0245147363D-01 Coefficients=  1.0000000000D+00
 S 1 1.00
     Exponent=  1.3090182668D-01 Coefficients=  1.0000000000D+00
 S 1 1.00
     Exponent=  6.7053540256D-02 Coefficients=  1.0000000000D+00
 P 3 1.00
     Exponent=  9.4680970621D+00 Coefficients=  3.8387871728D-02
     Exponent=  2.0103545142D+00 Coefficients=  2.1117025112D-01
     Exponent=  5.4771004707D-01 Coefficients=  5.1328172114D-01
 P 1 1.00
     Exponent=  1.5268613795D-01 Coefficients=  1.0000000000D+00
 D 1 1.00
     Exponent=  8.0000000000D-01 Coefficients=  1.0000000000D+00
 D 1 1.00
     Exponent=  1.1713185140D-01 Coefficients=  1.0000000000D+00
 ****
 Centers:       3
 S 5 1.00
     Exponent=  2.2661767785D+03 Coefficients= -5.3431809926D-03
     Exponent=  3.4087010191D+02 Coefficients= -3.9890039230D-02
     Exponent=  7.7363135167D+01 Coefficients= -1.7853911985D-01
     Exponent=  2.1479644940D+01 Coefficients= -4.6427684959D-01
     Exponent=  6.6589433124D+00 Coefficients= -4.4309745172D-01
 S 1 1.00
     Exponent=  8.0975975668D-01 Coefficients=  1.0000000000D+00
 S 1 1.00
     Exponent=  2.5530772234D-01 Coefficients=  1.0000000000D+00
 S 1 1.00
     Exponent=  7.6572453250D-02 Coefficients=  1.0000000000D+00
 P 3 1.00
     Exponent=  1.7721504317D+01 Coefficients=  4.3394573193D-02
     Exponent=  3.8635505440D+00 Coefficients=  2.3094120765D-01
     Exponent=  1.0480920883D+00 Coefficients=  5.1375311064D-01
 P 1 1.00
     Exponent=  2.7641544411D-01 Coefficients=  1.0000000000D+00
 P 1 1.00
     Exponent=  6.9002276350D-02 Coefficients=  1.0000000000D+00
 D 1 1.00
     Exponent=  1.2000000000D+00 Coefficients=  1.0000000000D+00
 D 1 1.00
     Exponent=  1.7992024323D-01 Coefficients=  1.0000000000D+00
 ****
 Ernie: Thresh=  0.10000D-02 Tol=  0.10000D-05 Strict=F.
 There are   117 symmetry adapted cartesian basis functions of A   symmetry.
 There are   111 symmetry adapted basis functions of A   symmetry.
   111 basis functions,   159 primitive gaussians,   117 cartesian basis functions
    13 alpha electrons       13 beta electrons
       nuclear repulsion energy        81.9103171642 Hartrees.
 IExCor=20419 DFT=T Ex+Corr=CAM-B3LYP ExCW=0 ScaHFX=  1.000000
 ScaDFX=  1.000000  1.000000  1.000000  0.810000 ScalE2=  1.000000  1.000000
 IRadAn=      5 IRanWt=     -1 IRanGd=            0 ICorTp=0 IEmpDi=  4
 HFx  wShort=  0.000000 wLong=  0.330000 cFull=  0.190000 cShort=  0.000000 cLong=  0.460000
 DFx  wShort=  0.000000 wLong=  0.330000 cFull=  0.190000 cShort=  0.000000 cLong=  0.460000
 NAtoms=    9 NActive=    9 NUniq=    9 SFac= 1.00D+00 NAtFMM=   60 NAOKFM=F Big=F
 Integral buffers will be    131072 words long.
 Raffenetti 1 integral format.
 Two-electron integral symmetry is turned on.
 Leave Link  301 at Mon Mar 21 20:09:59 2022, MaxMem=  8589934592 cpu:               0.6 elap:               0.1
 (Enter /home/sabyasachi/g16/l302.exe)
 NPDir=0 NMtPBC=     1 NCelOv=     1 NCel=       1 NClECP=     1 NCelD=      1
         NCelK=      1 NCelE2=     1 NClLst=     1 CellRange=     0.0.
 One-electron integrals computed using PRISM.
 One-electron integral symmetry used in STVInt
 NBasis=   111 RedAO= T EigKep=  3.00D-04  NBF=   111
 NBsUse=   111 1.00D-06 EigRej= -1.00D+00 NBFU=   111
 Precomputing XC quadrature grid using
 IXCGrd= 4 IRadAn=           5 IRanWt=          -1 IRanGd=           0 AccXCQ= 0.00D+00.
 Generated NRdTot=       0 NPtTot=           0 NUsed=           0 NTot=          32
 NSgBfM=   117   117   117   117   117 MxSgAt=     9 MxSgA2=     9.
 Leave Link  302 at Mon Mar 21 20:09:59 2022, MaxMem=  8589934592 cpu:               1.1 elap:               0.2
 (Enter /home/sabyasachi/g16/l303.exe)
 DipDrv:  MaxL=1.
 Leave Link  303 at Mon Mar 21 20:09:59 2022, MaxMem=  8589934592 cpu:               0.2 elap:               0.0
 (Enter /home/sabyasachi/g16/l308.exe)
 Leave Link  308 at Mon Mar 21 20:09:59 2022, MaxMem=  8589934592 cpu:               0.2 elap:               0.1
 (Enter /home/sabyasachi/g16/l401.exe)
 ExpMin= 6.71D-02 ExpMax= 2.27D+03 ExpMxC= 3.41D+02 IAcc=3 IRadAn=         5 AccDes= 0.00D+00
 Harris functional with IExCor=20419 and IRadAn=       5 diagonalized for initial guess.
 HarFok:  IExCor=20419 AccDes= 0.00D+00 IRadAn=         5 IDoV= 1 UseB2=F ITyADJ=14
 ICtDFT=  3500011 ScaDFX=  1.000000  1.000000  1.000000  1.000000
 FoFCou: FMM=F IPFlag=           0 FMFlag=      100000 FMFlg1=           0
         NFxFlg=           0 DoJE=T BraDBF=F KetDBF=T FulRan=T
         wScrn=  0.000000 ICntrl=       500 IOpCl=  0 I1Cent=   200000004 NGrid=           0
         NMat0=    1 NMatS0=      1 NMatT0=    0 NMatD0=    1 NMtDS0=    0 NMtDT0=    0
 Petite list used in FoFCou.
 Harris En= -148.849003568350    
 JPrj=0 DoOrth=F DoCkMO=F.
 Leave Link  401 at Mon Mar 21 20:10:00 2022, MaxMem=  8589934592 cpu:               3.4 elap:               0.4
 (Enter /home/sabyasachi/g16/l502.exe)
 Keep R1 ints in memory in canonical form, NReq=46894608.
 FoFCou: FMM=F IPFlag=           0 FMFlag=           0 FMFlg1=           0
         NFxFlg=           0 DoJE=F BraDBF=F KetDBF=F FulRan=T
         wScrn=  0.000000 ICntrl=       600 IOpCl=  0 I1Cent=           0 NGrid=           0
         NMat0=    1 NMatS0=   6216 NMatT0=    0 NMatD0=    1 NMtDS0=    0 NMtDT0=    0
 Symmetry not used in FoFCou.
 Two-electron integral symmetry not used.
 Closed shell SCF:
 Using DIIS extrapolation, IDIIS=  1040.
 NGot=  8589934592 LenX=  8551259892 LenY=  8551245762
 Requested convergence on RMS density matrix=1.00D-08 within 100 cycles.
 Requested convergence on MAX density matrix=1.00D-06.
 Requested convergence on             energy=1.00D-06.
 No special actions if energy rises.
 Integral accuracy reduced to 1.0D-05 until final iterations.

 Cycle   1  Pass 0  IDiag  1:
 E= -154.826447297882    
 DIIS: error= 2.50D-02 at cycle   1 NSaved=   1.
 NSaved= 1 IEnMin= 1 EnMin= -154.826447297882     IErMin= 1 ErrMin= 2.50D-02
 ErrMax= 2.50D-02  0.00D+00 EMaxC= 1.00D-01 BMatC= 6.99D-02 BMatP= 6.99D-02
 IDIUse=3 WtCom= 7.50D-01 WtEn= 2.50D-01
 Coeff-Com:  0.100D+01
 Coeff-En:   0.100D+01
 Coeff:      0.100D+01
 Gap=     0.441 Goal=   None    Shift=    0.000
 GapD=    0.441 DampG=2.000 DampE=0.500 DampFc=1.0000 IDamp=-1.
 RMSDP=3.96D-03 MaxDP=1.02D-01              OVMax= 6.96D-02

 Cycle   2  Pass 0  IDiag  1:
 E= -154.835407868240     Delta-E=       -0.008960570358 Rises=F Damp=F
 DIIS: error= 9.72D-03 at cycle   2 NSaved=   2.
 NSaved= 2 IEnMin= 2 EnMin= -154.835407868240     IErMin= 2 ErrMin= 9.72D-03
 ErrMax= 9.72D-03  0.00D+00 EMaxC= 1.00D-01 BMatC= 3.56D-02 BMatP= 6.99D-02
 IDIUse=3 WtCom= 9.03D-01 WtEn= 9.72D-02
 Coeff-Com:  0.396D+00 0.604D+00
 Coeff-En:   0.414D+00 0.586D+00
 Coeff:      0.398D+00 0.602D+00
 Gap=     0.411 Goal=   None    Shift=    0.000
 RMSDP=1.82D-03 MaxDP=4.48D-02 DE=-8.96D-03 OVMax= 4.74D-02

 Cycle   3  Pass 0  IDiag  1:
 E= -154.860050910108     Delta-E=       -0.024643041868 Rises=F Damp=F
 DIIS: error= 4.04D-03 at cycle   3 NSaved=   3.
 NSaved= 3 IEnMin= 3 EnMin= -154.860050910108     IErMin= 3 ErrMin= 4.04D-03
 ErrMax= 4.04D-03  0.00D+00 EMaxC= 1.00D-01 BMatC= 4.39D-03 BMatP= 3.56D-02
 IDIUse=3 WtCom= 9.60D-01 WtEn= 4.04D-02
 Coeff-Com:  0.205D-01 0.260D+00 0.719D+00
 Coeff-En:   0.000D+00 0.312D-01 0.969D+00
 Coeff:      0.196D-01 0.251D+00 0.729D+00
 Gap=     0.398 Goal=   None    Shift=    0.000
 RMSDP=5.09D-04 MaxDP=1.46D-02 DE=-2.46D-02 OVMax= 1.69D-02

 Cycle   4  Pass 0  IDiag  1:
 E= -154.863095508163     Delta-E=       -0.003044598055 Rises=F Damp=F
 DIIS: error= 8.03D-04 at cycle   4 NSaved=   4.
 NSaved= 4 IEnMin= 4 EnMin= -154.863095508163     IErMin= 4 ErrMin= 8.03D-04
 ErrMax= 8.03D-04  0.00D+00 EMaxC= 1.00D-01 BMatC= 2.56D-04 BMatP= 4.39D-03
 IDIUse=3 WtCom= 9.92D-01 WtEn= 8.03D-03
 Coeff-Com: -0.101D-02 0.922D-01 0.336D+00 0.572D+00
 Coeff-En:   0.000D+00 0.000D+00 0.000D+00 0.100D+01
 Coeff:     -0.100D-02 0.915D-01 0.334D+00 0.576D+00
 Gap=     0.392 Goal=   None    Shift=    0.000
 RMSDP=1.55D-04 MaxDP=4.36D-03 DE=-3.04D-03 OVMax= 3.03D-03

 Cycle   5  Pass 0  IDiag  1:
 E= -154.863296606781     Delta-E=       -0.000201098618 Rises=F Damp=F
 DIIS: error= 1.53D-04 at cycle   5 NSaved=   5.
 NSaved= 5 IEnMin= 5 EnMin= -154.863296606781     IErMin= 5 ErrMin= 1.53D-04
 ErrMax= 1.53D-04  0.00D+00 EMaxC= 1.00D-01 BMatC= 3.34D-06 BMatP= 2.56D-04
 IDIUse=3 WtCom= 9.98D-01 WtEn= 1.53D-03
 Coeff-Com: -0.138D-02 0.681D-02 0.447D-01 0.128D+00 0.822D+00
 Coeff-En:   0.000D+00 0.000D+00 0.000D+00 0.000D+00 0.100D+01
 Coeff:     -0.137D-02 0.680D-02 0.446D-01 0.128D+00 0.822D+00
 Gap=     0.393 Goal=   None    Shift=    0.000
 RMSDP=3.35D-05 MaxDP=6.57D-04 DE=-2.01D-04 OVMax= 5.63D-04

 Cycle   6  Pass 0  IDiag  1:
 E= -154.863300235484     Delta-E=       -0.000003628703 Rises=F Damp=F
 DIIS: error= 2.46D-05 at cycle   6 NSaved=   6.
 NSaved= 6 IEnMin= 6 EnMin= -154.863300235484     IErMin= 6 ErrMin= 2.46D-05
 ErrMax= 2.46D-05  0.00D+00 EMaxC= 1.00D-01 BMatC= 1.57D-07 BMatP= 3.34D-06
 IDIUse=1 WtCom= 1.00D+00 WtEn= 0.00D+00
 Coeff-Com: -0.468D-04-0.611D-02-0.175D-01-0.271D-01 0.996D-01 0.951D+00
 Coeff:     -0.468D-04-0.611D-02-0.175D-01-0.271D-01 0.996D-01 0.951D+00
 Gap=     0.392 Goal=   None    Shift=    0.000
 RMSDP=9.71D-06 MaxDP=1.23D-04 DE=-3.63D-06 OVMax= 1.90D-04

 Initial convergence to 1.0D-05 achieved.  Increase integral accuracy.
 Cycle   7  Pass 1  IDiag  1:
 E= -154.863302532143     Delta-E=       -0.000002296660 Rises=F Damp=F
 DIIS: error= 4.23D-06 at cycle   1 NSaved=   1.
 NSaved= 1 IEnMin= 1 EnMin= -154.863302532143     IErMin= 1 ErrMin= 4.23D-06
 ErrMax= 4.23D-06  0.00D+00 EMaxC= 1.00D-01 BMatC= 3.23D-09 BMatP= 3.23D-09
 IDIUse=1 WtCom= 1.00D+00 WtEn= 0.00D+00
 Coeff-Com:  0.100D+01
 Coeff:      0.100D+01
 Gap=     0.392 Goal=   None    Shift=    0.000
 RMSDP=9.71D-06 MaxDP=1.23D-04 DE=-2.30D-06 OVMax= 3.79D-05

 Cycle   8  Pass 1  IDiag  1:
 E= -154.863302537939     Delta-E=       -0.000000005795 Rises=F Damp=F
 DIIS: error= 1.67D-06 at cycle   2 NSaved=   2.
 NSaved= 2 IEnMin= 2 EnMin= -154.863302537939     IErMin= 2 ErrMin= 1.67D-06
 ErrMax= 1.67D-06  0.00D+00 EMaxC= 1.00D-01 BMatC= 6.91D-10 BMatP= 3.23D-09
 IDIUse=1 WtCom= 1.00D+00 WtEn= 0.00D+00
 Coeff-Com:  0.263D+00 0.737D+00
 Coeff:      0.263D+00 0.737D+00
 Gap=     0.392 Goal=   None    Shift=    0.000
 RMSDP=4.43D-07 MaxDP=8.53D-06 DE=-5.80D-09 OVMax= 1.09D-05

 Cycle   9  Pass 1  IDiag  1:
 E= -154.863302538776     Delta-E=       -0.000000000837 Rises=F Damp=F
 DIIS: error= 7.03D-07 at cycle   3 NSaved=   3.
 NSaved= 3 IEnMin= 3 EnMin= -154.863302538776     IErMin= 3 ErrMin= 7.03D-07
 ErrMax= 7.03D-07  0.00D+00 EMaxC= 1.00D-01 BMatC= 9.45D-11 BMatP= 6.91D-10
 IDIUse=1 WtCom= 1.00D+00 WtEn= 0.00D+00
 Coeff-Com: -0.287D-01 0.188D+00 0.840D+00
 Coeff:     -0.287D-01 0.188D+00 0.840D+00
 Gap=     0.392 Goal=   None    Shift=    0.000
 RMSDP=1.92D-07 MaxDP=2.86D-06 DE=-8.37D-10 OVMax= 6.35D-06

 Cycle  10  Pass 1  IDiag  1:
 E= -154.863302538908     Delta-E=       -0.000000000132 Rises=F Damp=F
 DIIS: error= 2.37D-07 at cycle   4 NSaved=   4.
 NSaved= 4 IEnMin= 4 EnMin= -154.863302538908     IErMin= 4 ErrMin= 2.37D-07
 ErrMax= 2.37D-07  0.00D+00 EMaxC= 1.00D-01 BMatC= 2.23D-11 BMatP= 9.45D-11
 IDIUse=1 WtCom= 1.00D+00 WtEn= 0.00D+00
 Coeff-Com: -0.569D-01-0.372D-01 0.361D+00 0.733D+00
 Coeff:     -0.569D-01-0.372D-01 0.361D+00 0.733D+00
 Gap=     0.392 Goal=   None    Shift=    0.000
 RMSDP=7.12D-08 MaxDP=1.20D-06 DE=-1.32D-10 OVMax= 2.42D-06

 Cycle  11  Pass 1  IDiag  1:
 E= -154.863302538929     Delta-E=       -0.000000000020 Rises=F Damp=F
 DIIS: error= 8.23D-08 at cycle   5 NSaved=   5.
 NSaved= 5 IEnMin= 5 EnMin= -154.863302538929     IErMin= 5 ErrMin= 8.23D-08
 ErrMax= 8.23D-08  0.00D+00 EMaxC= 1.00D-01 BMatC= 1.90D-12 BMatP= 2.23D-11
 IDIUse=1 WtCom= 1.00D+00 WtEn= 0.00D+00
 Coeff-Com: -0.228D-01-0.252D-01 0.113D+00 0.337D+00 0.599D+00
 Coeff:     -0.228D-01-0.252D-01 0.113D+00 0.337D+00 0.599D+00
 Gap=     0.392 Goal=   None    Shift=    0.000
 RMSDP=1.47D-08 MaxDP=3.23D-07 DE=-2.03D-11 OVMax= 4.37D-07

 Cycle  12  Pass 1  IDiag  1:
 E= -154.863302538929     Delta-E=       -0.000000000001 Rises=F Damp=F
 DIIS: error= 1.49D-08 at cycle   6 NSaved=   6.
 NSaved= 6 IEnMin= 6 EnMin= -154.863302538929     IErMin= 6 ErrMin= 1.49D-08
 ErrMax= 1.49D-08  0.00D+00 EMaxC= 1.00D-01 BMatC= 6.10D-14 BMatP= 1.90D-12
 IDIUse=1 WtCom= 1.00D+00 WtEn= 0.00D+00
 Coeff-Com: -0.118D-02-0.381D-02-0.320D-02 0.268D-01 0.161D+00 0.820D+00
 Coeff:     -0.118D-02-0.381D-02-0.320D-02 0.268D-01 0.161D+00 0.820D+00
 Gap=     0.392 Goal=   None    Shift=    0.000
 RMSDP=5.64D-09 MaxDP=1.01D-07 DE=-9.09D-13 OVMax= 1.21D-07

 SCF Done:  E(RCAM-B3LYP) =  -154.863302539     A.U. after   12 cycles
            NFock= 12  Conv=0.56D-08     -V/T= 2.0104
 KE= 1.532768270200D+02 PE=-5.248658183443D+02 EE= 1.348153716211D+02
 Leave Link  502 at Mon Mar 21 20:10:04 2022, MaxMem=  8589934592 cpu:              29.1 elap:               3.9
 (Enter /home/sabyasachi/g16/l801.exe)
 DoSCS=F DFT=T ScalE2(SS,OS)=  1.000000  1.000000
 ExpMin= 6.71D-02 ExpMax= 2.27D+03 ExpMxC= 3.41D+02 IAcc=3 IRadAn=         5 AccDes= 0.00D+00
 HarFok:  IExCor=  205 AccDes= 0.00D+00 IRadAn=         5 IDoV=-2 UseB2=F ITyADJ=14
 ICtDFT= 12500011 ScaDFX=  1.000000  1.000000  1.000000  1.000000
 Largest valence mixing into a core orbital is  6.92D-05
 Largest core mixing into a valence orbital is  1.66D-05
 Range of M.O.s used for correlation:     4   111
 NBasis=   111 NAE=    13 NBE=    13 NFC=     3 NFV=     0
 NROrb=    108 NOA=    10 NOB=    10 NVA=    98 NVB=    98

 **** Warning!!: The largest alpha MO coefficient is  0.22649233D+02

 Leave Link  801 at Mon Mar 21 20:10:04 2022, MaxMem=  8589934592 cpu:               0.6 elap:               0.1
 (Enter /home/sabyasachi/g16/l914.exe)
 RHF ground state
 Keep R1, R2, and R3 ints in memory in canonical form, NReq=1186336844.
 FoFCou: FMM=F IPFlag=           0 FMFlag=           0 FMFlg1=           0
         NFxFlg=           0 DoJE=F BraDBF=F KetDBF=F FulRan=T
         wScrn=  0.000000 ICntrl=       600 IOpCl=  0 I1Cent=           0 NGrid=           0
         NMat0=    1 NMatS0=   6216 NMatT0=    0 NMatD0=    1 NMtDS0=    0 NMtDT0=    0
 Symmetry not used in FoFCou.
 Two-electron integral symmetry not used.
 MDV=  8589934592 DFT=T DoStab=F Mixed=T DoRPA=T DoScal=F NonHer=T
 Making orbital integer symmetry assigments:
 Orbital symmetries:
       Occupied  (A) (A) (A) (A) (A) (A) (A) (A) (A) (A) (A) (A)
                 (A)
       Virtual   (A) (A) (A) (A) (A) (A) (A) (A) (A) (A) (A) (A)
                 (A) (A) (A) (A) (A) (A) (A) (A) (A) (A) (A) (A)
                 (A) (A) (A) (A) (A) (A) (A) (A) (A) (A) (A) (A)
                 (A) (A) (A) (A) (A) (A) (A) (A) (A) (A) (A) (A)
                 (A) (A) (A) (A) (A) (A) (A) (A) (A) (A) (A) (A)
                 (A) (A) (A) (A) (A) (A) (A) (A) (A) (A) (A) (A)
                 (A) (A) (A) (A) (A) (A) (A) (A) (A) (A) (A) (A)
                 (A) (A) (A) (A) (A) (A) (A) (A) (A) (A) (A) (A)
                 (A) (A)
   980 initial guesses have been made.
 Convergence on wavefunction:    0.001000000000000
 Davidson Disk Diagonalization:  ConvIn= 1.00D-03 SkipCon=T Conv= 1.00D-03.
 Max sub-space:  5880 roots to seek:  1960 dimension of matrix:         1960
 *** WARNING: Number of orthogonal guesses is          980
 Iteration     1 Dimension   980 NMult     0 NNew    980
 CISAX will form   980 AO SS matrices at one time.
 NMat=   980 NSing=   980 JSym2X= 0.
 New state      3 was old state      4
 New state      4 was old state      3
 New state      7 was old state      8
 New state      8 was old state      7
 New state      9 was old state     10
 New state     10 was old state      9
 New state     11 was old state     12
 New state     12 was old state     13
 New state     13 was old state     11
 New state     16 was old state     20
 New state     17 was old state     16
 New state     18 was old state     19
 New state     19 was old state     18
 New state     20 was old state     17
 New state     21 was old state     22
 New state     22 was old state     21
 New state     24 was old state     26
 New state     25 was old state     24
 New state     26 was old state     25
 New state     27 was old state     28
 New state     28 was old state     29
 New state     29 was old state     27
 New state     30 was old state     33
 New state     32 was old state     30
 New state     33 was old state     35
 New state     34 was old state     37
 New state     35 was old state     32
 New state     37 was old state     40
 New state     38 was old state     41
 New state     39 was old state     38
 New state     40 was old state     34
 New state     41 was old state     44
 New state     42 was old state     46
 New state     43 was old state     39
 New state     44 was old state     45
 New state     45 was old state     43
 New state     46 was old state     42
 New state     47 was old state     49
 New state     49 was old state     51
 New state     50 was old state     47
 New state     51 was old state     52
 New state     52 was old state     50
 New state     53 was old state     55
 New state     54 was old state     53
 New state     55 was old state     59
 New state     56 was old state     54
 New state     57 was old state     56
 New state     59 was old state     67
 New state     60 was old state     62
 New state     61 was old state     60
 New state     62 was old state     57
 New state     63 was old state     64
 New state     64 was old state     65
 New state     65 was old state     63
 New state     67 was old state     68
 New state     68 was old state     70
 New state     70 was old state     74
 New state     72 was old state     73
 New state     73 was old state     80
 New state     74 was old state     78
 New state     75 was old state     77
 New state     76 was old state     75
 New state     77 was old state     76
 New state     78 was old state     72
 New state     79 was old state     90
 New state     80 was old state     81
 New state     81 was old state     79
 New state     82 was old state     85
 New state     83 was old state     87
 New state     85 was old state     83
 New state     86 was old state     88
 New state     87 was old state     82
 New state     88 was old state     86
 New state     89 was old state     92
 New state     90 was old state     89
 New state     91 was old state     93
 New state     92 was old state     94
 New state     93 was old state     95
 New state     94 was old state     91
 New state     95 was old state     96
 New state     96 was old state     98
 New state     97 was old state    100
 New state     98 was old state     97
 New state     99 was old state    102
 New state    100 was old state    101
 New state    101 was old state     99
 New state    102 was old state    104
 New state    104 was old state    108
 New state    105 was old state    120
 New state    106 was old state    107
 New state    107 was old state    105
 New state    108 was old state    113
 New state    109 was old state    112
 New state    110 was old state    106
 New state    111 was old state    109
 New state    112 was old state    115
 New state    113 was old state    110
 New state    115 was old state    116
 New state    116 was old state    121
 New state    117 was old state    119
 New state    118 was old state    111
 New state    119 was old state    117
 New state    120 was old state    124
 New state    121 was old state    118
 New state    122 was old state    126
 New state    123 was old state    122
 New state    124 was old state    123
 New state    125 was old state    128
 New state    126 was old state    130
 New state    127 was old state    133
 New state    128 was old state    136
 New state    129 was old state    131
 New state    130 was old state    125
 New state    131 was old state    127
 New state    133 was old state    135
 New state    135 was old state    137
 New state    136 was old state    129
 New state    137 was old state    141
 New state    138 was old state    140
 New state    139 was old state    146
 New state    140 was old state    138
 New state    141 was old state    139
 New state    143 was old state    144
 New state    144 was old state    145
 New state    145 was old state    143
 New state    146 was old state    150
 New state    148 was old state    149
 New state    149 was old state    148
 New state    150 was old state    154
 New state    151 was old state    153
 New state    152 was old state    165
 New state    153 was old state    155
 New state    154 was old state    151
 New state    155 was old state    152
 New state    157 was old state    158
 New state    158 was old state    159
 New state    159 was old state    162
 New state    160 was old state    157
 New state    162 was old state    160
 New state    163 was old state    166
 New state    165 was old state    163
 New state    166 was old state    167
 New state    167 was old state    174
 New state    168 was old state    172
 New state    170 was old state    175
 New state    171 was old state    173
 New state    172 was old state    176
 New state    173 was old state    171
 New state    174 was old state    180
 New state    175 was old state    182
 New state    176 was old state    181
 New state    177 was old state    189
 New state    179 was old state    190
 New state    180 was old state    177
 New state    181 was old state    179
 New state    182 was old state    185
 New state    183 was old state    184
 New state    184 was old state    188
 New state    185 was old state    183
 New state    186 was old state    187
 New state    187 was old state    202
 New state    188 was old state    199
 New state    189 was old state    194
 New state    190 was old state    186
 New state    191 was old state    195
 New state    192 was old state    191
 New state    193 was old state    198
 New state    194 was old state    193
 New state    195 was old state    196
 New state    196 was old state    200
 New state    197 was old state    192
 New state    198 was old state    216
 New state    199 was old state    205
 New state    200 was old state    197
 New state    201 was old state    204
 New state    202 was old state    201
 New state    203 was old state    222
 New state    204 was old state    209
 New state    205 was old state    215
 New state    206 was old state    203
 New state    207 was old state    211
 New state    208 was old state    214
 New state    209 was old state    210
 New state    210 was old state    208
 New state    211 was old state    206
 New state    214 was old state    221
 New state    215 was old state    219
 New state    216 was old state    223
 New state    217 was old state    207
 New state    219 was old state    217
 New state    221 was old state    229
 New state    222 was old state    226
 New state    223 was old state    237
 New state    226 was old state    228
 New state    227 was old state    239
 New state    228 was old state    230
 New state    229 was old state    234
 New state    230 was old state    227
 New state    232 was old state    240
 New state    234 was old state    236
 New state    235 was old state    241
 New state    236 was old state    238
 New state    237 was old state    232
 New state    238 was old state    243
 New state    239 was old state    252
 New state    240 was old state    235
 New state    241 was old state    259
 New state    243 was old state    248
 New state    244 was old state    246
 New state    245 was old state    244
 New state    246 was old state    247
 New state    247 was old state    255
 New state    248 was old state    250
 New state    249 was old state    245
 New state    250 was old state    253
 New state    251 was old state    249
 New state    252 was old state    251
 New state    253 was old state    254
 New state    254 was old state    256
 New state    255 was old state    258
 New state    256 was old state    257
 New state    257 was old state    268
 New state    258 was old state    261
 New state    259 was old state    264
 New state    261 was old state    271
 New state    262 was old state    269
 New state    263 was old state    266
 New state    264 was old state    262
 New state    265 was old state    263
 New state    266 was old state    265
 New state    267 was old state    270
 New state    268 was old state    267
 New state    269 was old state    274
 New state    270 was old state    273
 New state    271 was old state    277
 New state    273 was old state    276
 New state    274 was old state    275
 New state    275 was old state    278
 New state    276 was old state    281
 New state    277 was old state    294
 New state    278 was old state    279
 New state    279 was old state    282
 New state    280 was old state    285
 New state    281 was old state    283
 New state    282 was old state    287
 New state    283 was old state    280
 New state    285 was old state    286
 New state    286 was old state    288
 New state    287 was old state    300
 New state    288 was old state    289
 New state    289 was old state    312
 New state    290 was old state    291
 New state    291 was old state    290
 New state    293 was old state    296
 New state    294 was old state    295
 New state    295 was old state    298
 New state    296 was old state    301
 New state    297 was old state    293
 New state    298 was old state    297
 New state    300 was old state    305
 New state    301 was old state    308
 New state    302 was old state    303
 New state    303 was old state    313
 New state    304 was old state    302
 New state    305 was old state    307
 New state    307 was old state    309
 New state    308 was old state    304
 New state    309 was old state    318
 New state    311 was old state    319
 New state    312 was old state    311
 New state    313 was old state    316
 New state    315 was old state    317
 New state    316 was old state    315
 New state    317 was old state    324
 New state    318 was old state    321
 New state    319 was old state    333
 New state    321 was old state    323
 New state    322 was old state    332
 New state    323 was old state    328
 New state    324 was old state    336
 New state    325 was old state    322
 New state    326 was old state    325
 New state    327 was old state    331
 New state    328 was old state    326
 New state    329 was old state    330
 New state    330 was old state    329
 New state    331 was old state    327
 New state    332 was old state    340
 New state    333 was old state    337
 New state    334 was old state    339
 New state    335 was old state    334
 New state    336 was old state    335
 New state    337 was old state    343
 New state    338 was old state    341
 New state    339 was old state    345
 New state    340 was old state    344
 New state    341 was old state    338
 New state    342 was old state    354
 New state    343 was old state    342
 New state    344 was old state    349
 New state    345 was old state    359
 New state    347 was old state    350
 New state    348 was old state    347
 New state    349 was old state    363
 New state    350 was old state    348
 New state    351 was old state    355
 New state    352 was old state    351
 New state    353 was old state    352
 New state    354 was old state    353
 New state    355 was old state    356
 New state    356 was old state    357
 New state    357 was old state    360
 New state    358 was old state    361
 New state    359 was old state    364
 New state    360 was old state    358
 New state    361 was old state    383
 New state    362 was old state    366
 New state    363 was old state    362
 New state    364 was old state    367
 New state    366 was old state    371
 New state    367 was old state    370
 New state    368 was old state    376
 New state    369 was old state    368
 New state    370 was old state    369
 New state    371 was old state    375
 New state    374 was old state    399
 New state    375 was old state    377
 New state    376 was old state    374
 New state    377 was old state    378
 New state    378 was old state    379
 New state    379 was old state    381
 New state    380 was old state    384
 New state    381 was old state    380
 New state    382 was old state    389
 New state    383 was old state    385
 New state    384 was old state    387
 New state    385 was old state    386
 New state    386 was old state    392
 New state    387 was old state    382
 New state    388 was old state    390
 New state    389 was old state    388
 New state    390 was old state    393
 New state    391 was old state    400
 New state    392 was old state    391
 New state    393 was old state    395
 New state    394 was old state    401
 New state    395 was old state    398
 New state    396 was old state    407
 New state    397 was old state    406
 New state    398 was old state    403
 New state    399 was old state    397
 New state    400 was old state    394
 New state    401 was old state    402
 New state    402 was old state    404
 New state    403 was old state    410
 New state    404 was old state    396
 New state    405 was old state    409
 New state    406 was old state    412
 New state    407 was old state    405
 New state    409 was old state    411
 New state    410 was old state    414
 New state    411 was old state    418
 New state    412 was old state    415
 New state    414 was old state    420
 New state    415 was old state    423
 No map to state    416
 New state    417 was old state    416
 New state    418 was old state    421
 New state    419 was old state    417
 New state    420 was old state    427
 New state    421 was old state    426
 New state    422 was old state    419
 New state    423 was old state    432
 New state    424 was old state    425
 New state    425 was old state    422
 No map to state    426
 New state    427 was old state    429
 New state    428 was old state    424
 New state    429 was old state    428
 New state    430 was old state    436
 New state    431 was old state    430
 New state    432 was old state    431
 New state    434 was old state    438
 New state    435 was old state    440
 New state    436 was old state    439
 New state    437 was old state    434
 New state    438 was old state    446
 New state    439 was old state    441
 New state    440 was old state    437
 New state    441 was old state    435
 New state    442 was old state    452
 New state    443 was old state    448
 New state    445 was old state    442
 New state    446 was old state    445
 New state    447 was old state    443
 New state    448 was old state    451
 New state    449 was old state    450
 New state    450 was old state    458
 New state    451 was old state    447
 New state    452 was old state    449
 New state    453 was old state    454
 New state    454 was old state    461
 New state    455 was old state    456
 New state    456 was old state    459
 New state    457 was old state    453
 New state    458 was old state    460
 New state    459 was old state    465
 New state    460 was old state    455
 New state    461 was old state    457
 New state    462 was old state    470
 New state    464 was old state    474
 New state    465 was old state    478
 New state    466 was old state    476
 New state    467 was old state    462
 New state    468 was old state    467
 New state    469 was old state    468
 New state    470 was old state    475
 New state    471 was old state    477
 New state    472 was old state    464
 New state    473 was old state    471
 New state    474 was old state    482
 New state    475 was old state    472
 New state    476 was old state    484
 New state    477 was old state    466
 New state    478 was old state    473
 New state    479 was old state    480
 New state    480 was old state    487
 New state    481 was old state    491
 New state    482 was old state    479
 New state    483 was old state    485
 New state    484 was old state    494
 New state    485 was old state    505
 New state    486 was old state    481
 New state    487 was old state    492
 New state    488 was old state    489
 New state    489 was old state    483
 New state    490 was old state    499
 New state    491 was old state    500
 New state    492 was old state    486
 New state    493 was old state    488
 New state    494 was old state    502
 New state    495 was old state    497
 New state    497 was old state    495
 New state    498 was old state    507
 New state    499 was old state    493
 New state    500 was old state    490
 New state    501 was old state    503
 New state    502 was old state    508
 New state    503 was old state    498
 New state    504 was old state    501
 New state    505 was old state    509
 New state    506 was old state    504
 New state    507 was old state    519
 New state    508 was old state    511
 New state    509 was old state    516
 New state    511 was old state    517
 New state    512 was old state    506
 New state    513 was old state    524
 New state    515 was old state    512
 New state    516 was old state    518
 New state    517 was old state    513
 New state    518 was old state    521
 New state    519 was old state    515
 New state    520 was old state    525
 New state    521 was old state    526
 New state    522 was old state    527
 New state    523 was old state    529
 New state    524 was old state    523
 New state    525 was old state    522
 New state    526 was old state    533
 New state    527 was old state    532
 New state    528 was old state    531
 New state    529 was old state    520
 New state    531 was old state    528
 New state    532 was old state    535
 New state    533 was old state    534
 New state    534 was old state    538
 New state    535 was old state    536
 New state    536 was old state    537
 New state    537 was old state    540
 New state    538 was old state    539
 New state    539 was old state    541
 New state    540 was old state    542
 New state    541 was old state    550
 New state    542 was old state    543
 New state    543 was old state    546
 New state    544 was old state    549
 New state    545 was old state    548
 New state    546 was old state    547
 New state    547 was old state    551
 New state    548 was old state    544
 New state    549 was old state    554
 New state    550 was old state    545
 New state    551 was old state    552
 New state    552 was old state    553
 New state    553 was old state    558
 New state    554 was old state    557
 No map to state    556
 New state    557 was old state    561
 New state    558 was old state    559
 New state    559 was old state    562
 New state    561 was old state    564
 New state    562 was old state    569
 New state    563 was old state    565
 New state    564 was old state    563
 New state    565 was old state    567
 New state    567 was old state    556
 New state    568 was old state    570
 New state    569 was old state    568
 New state    570 was old state    573
 New state    573 was old state    575
 New state    575 was old state    576
 New state    576 was old state    577
 New state    577 was old state    578
 New state    578 was old state    582
 New state    579 was old state    583
 New state    581 was old state    579
 New state    582 was old state    586
 New state    583 was old state    581
 No map to state    584
 New state    585 was old state    584
 New state    586 was old state    588
 New state    587 was old state    589
 New state    588 was old state    585
 New state    589 was old state    587
 New state    591 was old state    595
 New state    592 was old state    591
 New state    593 was old state    592
 New state    595 was old state    597
 New state    596 was old state    593
 New state    597 was old state    598
 New state    598 was old state    596
 New state    600 was old state    601
 New state    601 was old state    602
 New state    602 was old state    604
 New state    603 was old state    600
 New state    604 was old state    603
 New state    605 was old state    606
 New state    606 was old state    605
 New state    607 was old state    608
 New state    608 was old state    612
 New state    611 was old state    614
 New state    612 was old state    616
 New state    613 was old state    611
 New state    614 was old state    613
 New state    616 was old state    617
 New state    617 was old state    619
 New state    619 was old state    621
 New state    620 was old state    625
 New state    621 was old state    624
 New state    622 was old state    620
 New state    623 was old state    622
 New state    624 was old state    626
 New state    625 was old state    629
 New state    626 was old state    628
 New state    627 was old state    630
 New state    628 was old state    623
 New state    629 was old state    634
 New state    630 was old state    627
 New state    631 was old state    636
 New state    632 was old state    631
 New state    633 was old state    635
 New state    634 was old state    632
 New state    635 was old state    639
 New state    636 was old state    637
 New state    637 was old state    633
 New state    639 was old state    642
 New state    641 was old state    644
 New state    642 was old state    641
 New state    644 was old state    645
 New state    645 was old state    646
 New state    646 was old state    647
 New state    647 was old state    648
 New state    648 was old state    651
 New state    651 was old state    659
 New state    653 was old state    656
 New state    655 was old state    657
 New state    656 was old state    653
 New state    657 was old state    661
 New state    658 was old state    655
 New state    659 was old state    669
 New state    661 was old state    662
 New state    662 was old state    658
 New state    664 was old state    667
 New state    667 was old state    664
 New state    668 was old state    671
 New state    669 was old state    670
 New state    670 was old state    672
 New state    671 was old state    678
 New state    672 was old state    668
 New state    673 was old state    675
 New state    674 was old state    680
 New state    675 was old state    673
 New state    676 was old state    679
 New state    678 was old state    676
 New state    679 was old state    674
 New state    680 was old state    684
 New state    683 was old state    685
 New state    684 was old state    690
 New state    685 was old state    683
 New state    687 was old state    694
 New state    690 was old state    691
 New state    691 was old state    687
 New state    693 was old state    696
 New state    694 was old state    695
 New state    695 was old state    702
 New state    696 was old state    699
 New state    697 was old state    701
 New state    698 was old state    693
 New state    699 was old state    697
 New state    700 was old state    705
 New state    701 was old state    698
 New state    702 was old state    706
 New state    703 was old state    707
 New state    705 was old state    703
 New state    706 was old state    700
 New state    707 was old state    709
 New state    708 was old state    713
 New state    709 was old state    710
 New state    710 was old state    711
 New state    711 was old state    714
 New state    712 was old state    708
 New state    713 was old state    716
 New state    714 was old state    712
 New state    716 was old state    718
 New state    718 was old state    720
 New state    719 was old state    722
 New state    720 was old state    719
 New state    721 was old state    724
 New state    722 was old state    721
 New state    724 was old state    725
 New state    725 was old state    728
 New state    726 was old state    727
 New state    727 was old state    730
 New state    728 was old state    726
 New state    730 was old state    731
 New state    731 was old state    735
 New state    733 was old state    734
 New state    734 was old state    733
 New state    735 was old state    737
 New state    737 was old state    738
 New state    738 was old state    739
 New state    739 was old state    743
 New state    740 was old state    741
 New state    741 was old state    742
 New state    742 was old state    740
 New state    743 was old state    748
 New state    745 was old state    753
 New state    746 was old state    747
 New state    747 was old state    745
 New state    748 was old state    749
 New state    749 was old state    756
 New state    750 was old state    746
 New state    751 was old state    752
 New state    752 was old state    750
 New state    753 was old state    754
 New state    754 was old state    762
 New state    755 was old state    751
 New state    756 was old state    757
 New state    757 was old state    755
 New state    758 was old state    759
 New state    759 was old state    763
 New state    761 was old state    758
 New state    762 was old state    764
 New state    763 was old state    768
 New state    764 was old state    761
 New state    766 was old state    770
 New state    768 was old state    769
 New state    769 was old state    766
 New state    770 was old state    773
 New state    771 was old state    777
 New state    773 was old state    771
 New state    774 was old state    775
 New state    775 was old state    776
 New state    776 was old state    778
 New state    777 was old state    779
 New state    778 was old state    781
 New state    779 was old state    783
 New state    780 was old state    774
 New state    781 was old state    780
 New state    782 was old state    785
 New state    783 was old state    782
 New state    784 was old state    789
 New state    785 was old state    786
 New state    786 was old state    788
 New state    787 was old state    784
 New state    788 was old state    787
 New state    789 was old state    794
 New state    790 was old state    792
 New state    791 was old state    790
 New state    792 was old state    795
 New state    794 was old state    799
 New state    795 was old state    798
 New state    798 was old state    791
 New state    799 was old state    800
 New state    800 was old state    805
 New state    803 was old state    804
 New state    804 was old state    806
 New state    805 was old state    803
 New state    806 was old state    808
 New state    807 was old state    809
 New state    808 was old state    807
 New state    809 was old state    810
 New state    810 was old state    812
 New state    811 was old state    816
 New state    812 was old state    811
 New state    816 was old state    820
 New state    817 was old state    819
 New state    818 was old state    822
 New state    819 was old state    818
 New state    820 was old state    817
 No map to state    822
 New state    823 was old state    824
 New state    824 was old state    823
 New state    825 was old state    826
 New state    826 was old state    829
 New state    827 was old state    825
 New state    828 was old state    827
 New state    829 was old state    830
 New state    830 was old state    828
 New state    832 was old state    833
 New state    833 was old state    835
 New state    834 was old state    832
 New state    835 was old state    834
 New state    839 was old state    842
 New state    840 was old state    839
 New state    841 was old state    844
 New state    842 was old state    843
 New state    843 was old state    841
 New state    844 was old state    840
 New state    848 was old state    849
 New state    849 was old state    848
 New state    851 was old state    852
 New state    852 was old state    854
 New state    854 was old state    851
 New state    859 was old state    860
 New state    860 was old state    861
 New state    861 was old state    859
 New state    862 was old state    863
 New state    863 was old state    862
 New state    871 was old state    872
 New state    872 was old state    871
 New state    873 was old state    874
 New state    874 was old state    875
 New state    875 was old state    876
 New state    876 was old state    878
 New state    877 was old state    879
 New state    878 was old state    877
 New state    879 was old state    873
 New state    881 was old state    882
 New state    882 was old state    885
 New state    883 was old state    884
 New state    884 was old state    881
 New state    885 was old state    883
 New state    888 was old state    890
 New state    889 was old state    888
 New state    890 was old state    894
 New state    892 was old state    889
 New state    894 was old state    892
 New state    895 was old state    896
 New state    896 was old state    895
 New state    897 was old state    899
 New state    898 was old state    901
 New state    899 was old state    900
 New state    900 was old state    902
 New state    901 was old state    898
 New state    902 was old state    906
 New state    904 was old state    905
 New state    905 was old state    904
 New state    906 was old state    910
 New state    909 was old state    914
 New state    910 was old state    912
 New state    911 was old state    915
 New state    912 was old state    911
 New state    914 was old state    916
 New state    915 was old state    917
 New state    916 was old state    909
 New state    917 was old state    918
 New state    918 was old state    919
 New state    919 was old state    924
 New state    922 was old state    927
 New state    924 was old state    922
 New state    925 was old state    926
 New state    926 was old state    928
 New state    927 was old state    925
 New state    928 was old state    930
 New state    930 was old state    931
 New state    931 was old state    934
 New state    934 was old state    939
 New state    936 was old state    938
 New state    937 was old state    936
 New state    938 was old state    937
 New state    939 was old state    940
 New state    940 was old state    942
 New state    942 was old state    948
 New state    944 was old state    945
 New state    945 was old state    946
 New state    946 was old state    944
 New state    947 was old state    949
 New state    948 was old state    954
 New state    949 was old state    947
 New state    950 was old state    951
 New state    951 was old state    950
 New state    952 was old state    953
 New state    953 was old state    952
 New state    954 was old state    960
 New state    960 was old state    962
 No map to state    962
 New state    963 was old state    964
 New state    964 was old state    963
 New state    965 was old state    966
 New state    966 was old state    965
 New state    967 was old state    968
 New state    968 was old state    967
 New state    969 was old state    971
 New state    971 was old state    969
 Excitation Energies [eV] at current iteration:
 Root      1 :     7.050590970341962
 Root      2 :     8.345530701566224
 Root      3 :     8.602467097695024
 Root      4 :     8.795282350563008
 Root      5 :     9.071469747667606
 Root      6 :     9.538411596924533
 Root      7 :     9.895884918819792
 Root      8 :     9.958601736105196
 Root      9 :    10.011481546997630
 Root     10 :    10.073916943948250
 Root     11 :    10.318033934050390
 Root     12 :    10.356025096957710
 Root     13 :    10.451767482326910
 Root     14 :    10.787083788532570
 Root     15 :    10.904575134795730
 Root     16 :    10.991475919857350
 Root     17 :    11.070013516171910
 Root     18 :    11.150890359258370
 Root     19 :    11.186274900917260
 Root     20 :    11.329441507653530
 Root     21 :    11.412900564940070
 Root     22 :    11.568939871044620
 Root     23 :    11.709310353198760
 Root     24 :    11.754597658795020
 Root     25 :    11.822577362142850
 Root     26 :    11.880482671137560
 Root     27 :    12.035129445005810
 Root     28 :    12.093198420776000
 Root     29 :    12.142165439846990
 Root     30 :    12.267464521195300
 Root     31 :    12.390326659673900
 Root     32 :    12.432277665596690
 Root     33 :    12.521534615638680
 Root     34 :    12.570639477492340
 Root     35 :    12.613086994469480
 Root     36 :    12.671410667485910
 Root     37 :    12.738671856319430
 Root     38 :    12.786078222133780
 Root     39 :    12.843005368188380
 Root     40 :    12.884779345305340
 Root     41 :    13.010277221186990
 Root     42 :    13.069678462490330
 Root     43 :    13.152548492333040
 Root     44 :    13.164235446441860
 Root     45 :    13.298923580458170
 Root     46 :    13.348239266809240
 Root     47 :    13.423450799110950
 Root     48 :    13.429224710455730
 Root     49 :    13.625221271128360
 Root     50 :    13.711609008490320
 Root     51 :    13.762886249178200
 Root     52 :    13.784145967191610
 Root     53 :    13.893805262422510
 Root     54 :    13.914518937805240
 Root     55 :    13.934894504569320
 Root     56 :    14.076612385298410
 Root     57 :    14.191946612211380
 Root     58 :    14.246966522560680
 Root     59 :    14.274276039250180
 Root     60 :    14.300326020400520
 Root     61 :    14.390924918798360
 Root     62 :    14.432446607193150
 Root     63 :    14.543186365711930
 Root     64 :    14.575005991428510
 Root     65 :    14.647761675669200
 Root     66 :    14.674681511973150
 Root     67 :    14.712840280898490
 Root     68 :    14.818275669947820
 Root     69 :    14.881178940356220
 Root     70 :    15.077944560756290
 Root     71 :    15.092411178734510
 Root     72 :    15.151424222822200
 Root     73 :    15.180801892505540
 Root     74 :    15.218331300751200
 Root     75 :    15.262865894724090
 Root     76 :    15.311288863268640
 Root     77 :    15.352521398927270
 Root     78 :    15.387987732113550
 Root     79 :    15.443302088444990
 Root     80 :    15.528684027973550
 Root     81 :    15.581964598923990
 Root     82 :    15.645003816824730
 Root     83 :    15.692914731164230
 Root     84 :    15.747650574849160
 Root     85 :    15.793082184729050
 Root     86 :    15.819583096796660
 Root     87 :    15.844209883078680
 Root     88 :    16.005629616812350
 Root     89 :    16.040108274421570
 Root     90 :    16.126183943115670
 Root     91 :    16.146995224221100
 Root     92 :    16.160544550325500
 Root     93 :    16.218341100879600
 Root     94 :    16.240903436421140
 Root     95 :    16.324994612135300
 Root     96 :    16.469863583620110
 Root     97 :    16.537114859212750
 Root     98 :    16.546161366617460
 Root     99 :    16.603772346798070
 Root    100 :    16.634790413828960
 Root    101 :    16.649908344853620
 Root    102 :    16.732450318680770
 Root    103 :    16.798976925000920
 Root    104 :    16.916436656074970
 Root    105 :    16.926318268363990
 Root    106 :    17.017304531213230
 Root    107 :    17.066894096052120
 Root    108 :    17.078863106540040
 Root    109 :    17.120978475023940
 Root    110 :    17.161438752261960
 Root    111 :    17.212405150902860
 Root    112 :    17.251688198538020
 Root    113 :    17.295162074328840
 Root    114 :    17.345874368181580
 Root    115 :    17.390682586773210
 Root    116 :    17.400905819744320
 Root    117 :    17.450851746433130
 Root    118 :    17.506504120940610
 Root    119 :    17.542406712052870
 Root    120 :    17.578196100750550
 Root    121 :    17.612276277007820
 Root    122 :    17.666314078415890
 Root    123 :    17.747498895017270
 Root    124 :    17.815112645709740
 Root    125 :    17.890016988887080
 Root    126 :    17.897899055586240
 Root    127 :    17.950624147736050
 Root    128 :    18.008779598295850
 Root    129 :    18.137443919912790
 Root    130 :    18.153218954053990
 Root    131 :    18.182646569140700
 Root    132 :    18.250525173010680
 Root    133 :    18.254975193252240
 Root    134 :    18.303415285165680
 Root    135 :    18.383282415220120
 Root    136 :    18.396257471744630
 Root    137 :    18.430896559819530
 Root    138 :    18.461997726409610
 Root    139 :    18.504172606684310
 Root    140 :    18.517404412594910
 Root    141 :    18.541684189913340
 Root    142 :    18.623889195665350
 Root    143 :    18.670057495932050
 Root    144 :    18.758750967874740
 Root    145 :    18.778226040589970
 Root    146 :    18.847735370976580
 Root    147 :    18.885492686440770
 Root    148 :    18.913730091138680
 Root    149 :    18.924065725385290
 Root    150 :    18.949312227736630
 Root    151 :    19.028360772006770
 Root    152 :    19.068982575057910
 Root    153 :    19.111668435706770
 Root    154 :    19.143173000720210
 Root    155 :    19.238208596784030
 Root    156 :    19.270200067971280
 Root    157 :    19.356002676000110
 Root    158 :    19.385822029569210
 Root    159 :    19.427475456350720
 Root    160 :    19.460843389701970
 Root    161 :    19.506281614825210
 Root    162 :    19.540846196472680
 Root    163 :    19.605472565700250
 Root    164 :    19.638837869110180
 Root    165 :    19.698219068251880
 Root    166 :    19.719707582987520
 Root    167 :    19.763202173972390
 Root    168 :    19.864377959679130
 Root    169 :    19.893788753345180
 Root    170 :    19.922341211749370
 Root    171 :    19.934113573633080
 Root    172 :    19.969894935512090
 Root    173 :    19.992192213530550
 Root    174 :    20.045467746931210
 Root    175 :    20.088907998236820
 Root    176 :    20.108780232690540
 Root    177 :    20.156528199080030
 Root    178 :    20.211027236998800
 Root    179 :    20.259643358849430
 Root    180 :    20.280929790822410
 Root    181 :    20.323293864199250
 Root    182 :    20.365435915045370
 Root    183 :    20.435368808340920
 Root    184 :    20.441753464759020
 Root    185 :    20.482359725702010
 Root    186 :    20.520015810272320
 Root    187 :    20.572923852487080
 Root    188 :    20.660617870379050
 Root    189 :    20.662687921242660
 Root    190 :    20.696708615233380
 Root    191 :    20.710637957986500
 Root    192 :    20.729314074224880
 Root    193 :    20.816331313804510
 Root    194 :    20.846136570472590
 Root    195 :    20.884759047191430
 Root    196 :    20.929157067135370
 Root    197 :    20.944377538064540
 Root    198 :    21.003105251073930
 Root    199 :    21.078416085541200
 Root    200 :    21.106180392962130
 Root    201 :    21.120345791937360
 Root    202 :    21.180883263148820
 Root    203 :    21.217859320641670
 Root    204 :    21.261551401029730
 Root    205 :    21.331160554573440
 Root    206 :    21.373545726840900
 Root    207 :    21.395239603289390
 Root    208 :    21.403931257093510
 Root    209 :    21.458503813639350
 Root    210 :    21.470564569195700
 Root    211 :    21.507556970426500
 Root    212 :    21.547902256796180
 Root    213 :    21.620216850252600
 Root    214 :    21.638977874576440
 Root    215 :    21.657039060409190
 Root    216 :    21.692367475633430
 Root    217 :    21.723156375182390
 Root    218 :    21.785553847627960
 Root    219 :    21.805871908593250
 Root    220 :    21.845992454938430
 Root    221 :    21.859144408645140
 Root    222 :    21.888158513387290
 Root    223 :    21.962662082946490
 Root    224 :    21.989364401981280
 Root    225 :    22.054692077182570
 Root    226 :    22.085953216556190
 Root    227 :    22.190445639235280
 Root    228 :    22.203402075517760
 Root    229 :    22.208978331787180
 Root    230 :    22.279114103822280
 Root    231 :    22.282435491310320
 Root    232 :    22.339270344698330
 Root    233 :    22.378117517219210
 Root    234 :    22.419237420083900
 Root    235 :    22.438252642656560
 Root    236 :    22.444217275778440
 Root    237 :    22.476584182916750
 Root    238 :    22.502307506333310
 Root    239 :    22.558662422873740
 Root    240 :    22.566173584937960
 Root    241 :    22.586227896928460
 Root    242 :    22.654156926724700
 Root    243 :    22.731397630816110
 Root    244 :    22.772803876838190
 Root    245 :    22.837558885899470
 Root    246 :    22.888744433531130
 Root    247 :    22.923758788402050
 Root    248 :    22.958895035263970
 Root    249 :    22.972006507464820
 Root    250 :    23.031335683638590
 Root    251 :    23.074285468756590
 Root    252 :    23.106648883205460
 Root    253 :    23.121700341206530
 Root    254 :    23.172605899917750
 Root    255 :    23.208091291346390
 Root    256 :    23.259333362366570
 Root    257 :    23.299112754078460
 Root    258 :    23.332437095725420
 Root    259 :    23.375838059662570
 Root    260 :    23.473394441713110
 Root    261 :    23.544998865965500
 Root    262 :    23.564464523046630
 Root    263 :    23.583780528763860
 Root    264 :    23.609690646304620
 Root    265 :    23.644767568756620
 Root    266 :    23.713364443014760
 Root    267 :    23.734627366141150
 Root    268 :    23.772785822322020
 Root    269 :    23.807539527824180
 Root    270 :    23.854845083982930
 Root    271 :    23.877655264965540
 Root    272 :    23.973889550055920
 Root    273 :    23.988372102363460
 Root    274 :    24.065604058430740
 Root    275 :    24.130097643192560
 Root    276 :    24.150256462915860
 Root    277 :    24.227939020859560
 Root    278 :    24.244924326857610
 Root    279 :    24.299067463726530
 Root    280 :    24.312490257151680
 Root    281 :    24.383934919337160
 Root    282 :    24.435892797973230
 Root    283 :    24.477257296195180
 Root    284 :    24.550942141545080
 Root    285 :    24.565515103761850
 Root    286 :    24.586282984923430
 Root    287 :    24.619269804573540
 Root    288 :    24.643325721479660
 Root    289 :    24.725568124632870
 Root    290 :    24.758348991386010
 Root    291 :    24.796367801806780
 Root    292 :    24.832796386355450
 Root    293 :    24.894581743402750
 Root    294 :    24.960834876251110
 Root    295 :    24.979376055152170
 Root    296 :    24.995307677827090
 Root    297 :    25.023223150868780
 Root    298 :    25.107450987705360
 Root    299 :    25.122350768187790
 Root    300 :    25.174460689085430
 Root    301 :    25.199689663416710
 Root    302 :    25.273358719746180
 Root    303 :    25.318109685401240
 Root    304 :    25.407898472502720
 Root    305 :    25.460447961615390
 Root    306 :    25.475584153089310
 Root    307 :    25.577057620535420
 Root    308 :    25.611613228829320
 Root    309 :    25.748469400865340
 Root    310 :    25.788813735445690
 Root    311 :    25.839398837167990
 Root    312 :    25.921394040221560
 Root    313 :    25.939454474736740
 Root    314 :    25.990152263757520
 Root    315 :    26.009925572137070
 Root    316 :    26.049725274488580
 Root    317 :    26.087817580566730
 Root    318 :    26.127663966985650
 Root    319 :    26.181007126518790
 Root    320 :    26.216600368077410
 Root    321 :    26.238825843898930
 Root    322 :    26.305883714741470
 Root    323 :    26.465501757011710
 Root    324 :    26.524605866274000
 Root    325 :    26.545215172150610
 Root    326 :    26.565028924360670
 Root    327 :    26.617520057259260
 Root    328 :    26.659332204151640
 Root    329 :    26.725387121471470
 Root    330 :    26.739838039607530
 Root    331 :    26.812750264534830
 Root    332 :    26.867180101218280
 Root    333 :    26.902452456186410
 Root    334 :    26.930134788384170
 Root    335 :    27.011744662674670
 Root    336 :    27.098595637307310
 Root    337 :    27.170690618228210
 Root    338 :    27.238561856180690
 Root    339 :    27.321380860942540
 Root    340 :    27.406129581055700
 Root    341 :    27.530779808848860
 Root    342 :    27.627171338709450
 Root    343 :    27.650328717676330
 Root    344 :    27.668882184258840
 Root    345 :    27.741565891032580
 Root    346 :    27.794126089424740
 Root    347 :    27.796728119109590
 Root    348 :    27.913857429299010
 Root    349 :    27.972125855133540
 Root    350 :    28.065552179326940
 Root    351 :    28.110695150408440
 Root    352 :    28.201804724851510
 Root    353 :    28.238350225316850
 Root    354 :    28.260916441077650
 Root    355 :    28.342010418805030
 Root    356 :    28.392096805420260
 Root    357 :    28.489008264177940
 Root    358 :    28.536558805230900
 Root    359 :    28.650368161026760
 Root    360 :    28.719576544492790
 Root    361 :    28.778342674344220
 Root    362 :    28.879025585669130
 Root    363 :    28.974520891225410
 Root    364 :    29.016678397571140
 Root    365 :    29.073997607387720
 Root    366 :    29.207224898981810
 Root    367 :    29.220497310697330
 Root    368 :    29.288248154050290
 Root    369 :    29.348644537434120
 Root    370 :    29.361972075070480
 Root    371 :    29.475860581331830
 Root    372 :    29.493422843047490
 Root    373 :    29.607025766607040
 Root    374 :    29.691201624202480
 Root    375 :    29.701582815539160
 Root    376 :    29.792539364135190
 Root    377 :    29.827070007871270
 Root    378 :    29.883136596565360
 Root    379 :    29.962244352473480
 Root    380 :    30.006872760729270
 Root    381 :    30.054145452024760
 Root    382 :    30.056272515353570
 Root    383 :    30.106770775025150
 Root    384 :    30.163195384181780
 Root    385 :    30.200350581262050
 Root    386 :    30.291972313428440
 Root    387 :    30.341203395510510
 Root    388 :    30.381542591804830
 Root    389 :    30.490495431123330
 Root    390 :    30.582724700506140
 Root    391 :    30.689799315559770
 Root    392 :    30.805205904156150
 Root    393 :    30.860942149493130
 Root    394 :    30.985766121540910
 Root    395 :    31.081543748295910
 Root    396 :    31.108751922037820
 Root    397 :    31.167248845810080
 Root    398 :    31.193175316701810
 Root    399 :    31.257006024079300
 Root    400 :    31.286613495033930
 Root    401 :    31.333970887988880
 Root    402 :    31.369553661625410
 Root    403 :    31.449304947114720
 Root    404 :    31.469701874252710
 Root    405 :    31.493980960191920
 Root    406 :    31.514423021917090
 Root    407 :    31.530667226119870
 Root    408 :    31.641773601356740
 Root    409 :    31.721862973567830
 Root    410 :    31.770860498830170
 Root    411 :    31.863937382268520
 Root    412 :    31.921048479849990
 Root    413 :    31.959234988138390
 Root    414 :    32.006587207537690
 Root    415 :    32.121469990904700
 Root    416 :    32.192657199009540
 Root    417 :    32.276427644199660
 Root    418 :    32.332731100901260
 Root    419 :    32.486231168404260
 Root    420 :    32.507729452143490
 Root    421 :    32.574880241926910
 Root    422 :    32.725125027954960
 Root    423 :    32.857433139819910
 Root    424 :    32.960568704041790
 Root    425 :    32.995667720200840
 Root    426 :    33.029515423766880
 Root    427 :    33.146562044660030
 Root    428 :    33.216994690877530
 Root    429 :    33.309414837897720
 Root    430 :    33.349785588264570
 Root    431 :    33.458599524309340
 Root    432 :    33.468921583339600
 Root    433 :    33.542556488563040
 Root    434 :    33.859912164863030
 Root    435 :    33.898211160405340
 Root    436 :    33.983355775736680
 Root    437 :    34.034014288409810
 Root    438 :    34.074475569578560
 Root    439 :    34.122506821475550
 Root    440 :    34.157800232436030
 Root    441 :    34.184111299195750
 Root    442 :    34.266922580485510
 Root    443 :    34.365790273753830
 Root    444 :    34.436766182144720
 Root    445 :    34.513521561846050
 Root    446 :    34.584213052186380
 Root    447 :    34.625528804817990
 Root    448 :    34.705540991130970
 Root    449 :    34.733012859570340
 Root    450 :    34.865531659401360
 Root    451 :    34.936568123669060
 Root    452 :    35.017750832547190
 Root    453 :    35.165517062253510
 Root    454 :    35.222652186094520
 Root    455 :    35.245657742480030
 Root    456 :    35.272330695606720
 Root    457 :    35.345460127207210
 Root    458 :    35.435302316552130
 Root    459 :    35.520872087713850
 Root    460 :    35.560711786682620
 Root    461 :    35.748967116619130
 Root    462 :    35.795049324653390
 Root    463 :    35.905141293927250
 Root    464 :    35.995230949821180
 Root    465 :    36.045064470547810
 Root    466 :    36.085269042455670
 Root    467 :    36.126600097543960
 Root    468 :    36.186447245301780
 Root    469 :    36.300358511801340
 Root    470 :    36.375556898768960
 Root    471 :    36.408780572376590
 Root    472 :    36.466172532536170
 Root    473 :    36.494025709855460
 Root    474 :    36.522620983654510
 Root    475 :    36.588691363946400
 Root    476 :    36.646667276364520
 Root    477 :    36.740961728789790
 Root    478 :    36.838899334723250
 Root    479 :    36.929698277750620
 Root    480 :    36.990052010250610
 Root    481 :    37.141316317749790
 Root    482 :    37.212322945382270
 Root    483 :    37.332379878486380
 Root    484 :    37.423347987864130
 Root    485 :    37.582899081091800
 Root    486 :    37.646141009384910
 Root    487 :    37.687880482015000
 Root    488 :    37.723035565062070
 Root    489 :    37.756935992875650
 Root    490 :    37.816332142101140
 Root    491 :    37.960442062061450
 Root    492 :    38.009107291648940
 Root    493 :    38.020986809776220
 Root    494 :    38.082487432795370
 Root    495 :    38.298630833795030
 Root    496 :    38.337707565956550
 Root    497 :    38.404292063443560
 Root    498 :    38.433947056652180
 Root    499 :    38.461440340207250
 Root    500 :    38.665156673704710
 Root    501 :    38.691557010596290
 Root    502 :    38.721368680475950
 Root    503 :    38.854159474867200
 Root    504 :    38.932699026145150
 Root    505 :    39.049936602587310
 Root    506 :    39.125701365822050
 Root    507 :    39.216167740103820
 Root    508 :    39.249364771733210
 Root    509 :    39.393159335225600
 Root    510 :    39.416076983098630
 Root    511 :    39.575368959750730
 Root    512 :    39.595733700646830
 Root    513 :    39.683764928736960
 Root    514 :    39.709953004228530
 Root    515 :    39.790390304269960
 Root    516 :    39.875532300881860
 Root    517 :    40.015177765252100
 Root    518 :    40.047211528981490
 Root    519 :    40.114034680880200
 Root    520 :    40.159235638515070
 Root    521 :    40.297110051556430
 Root    522 :    40.490209848166690
 Root    523 :    40.586593305412870
 Root    524 :    40.611567091919500
 Root    525 :    40.730036345322020
 Root    526 :    40.769664304215660
 Root    527 :    40.885749402829500
 Root    528 :    40.900461944218660
 Root    529 :    40.991904578737230
 Root    530 :    41.074736944829260
 Root    531 :    41.081988706381300
 Root    532 :    41.279986034983110
 Root    533 :    41.323087777989950
 Root    534 :    41.354368215416900
 Root    535 :    41.397069411876460
 Root    536 :    41.528662817250460
 Root    537 :    41.596739963326470
 Root    538 :    41.676512506822970
 Root    539 :    41.772338764784890
 Root    540 :    41.865071874253200
 Root    541 :    41.954919692232400
 Root    542 :    42.181792410951220
 Root    543 :    42.220090150219910
 Root    544 :    42.315120325734720
 Root    545 :    42.490291792214910
 Root    546 :    42.526621288529330
 Root    547 :    42.579761208117400
 Root    548 :    42.691784798246180
 Root    549 :    42.836563667047770
 Root    550 :    42.910802498219610
 Root    551 :    42.946997908947990
 Root    552 :    43.077220141922550
 Root    553 :    43.429799044257410
 Root    554 :    43.469014019463770
 Root    555 :    43.542174897695870
 Root    556 :    43.650714244796940
 Root    557 :    43.694396734305580
 Root    558 :    43.839464498699640
 Root    559 :    43.989906367718460
 Root    560 :    44.094457343150360
 Root    561 :    44.180554716620770
 Root    562 :    44.452675307279700
 Root    563 :    44.579960566981750
 Root    564 :    44.679619868307360
 Root    565 :    44.739052737453370
 Root    566 :    44.773761167733130
 Root    567 :    44.877169211816070
 Root    568 :    44.943137057690510
 Root    569 :    45.009300815292970
 Root    570 :    45.049561280879830
 Root    571 :    45.318154563589970
 Root    572 :    45.453523459073330
 Root    573 :    45.966305836860190
 Root    574 :    46.016272571842690
 Root    575 :    46.064342709198500
 Root    576 :    46.267033903651670
 Root    577 :    46.443882200256830
 Root    578 :    46.537462591161610
 Root    579 :    46.715748570416300
 Root    580 :    46.750370658360000
 Root    581 :    46.917386569635150
 Root    582 :    47.004571085506150
 Root    583 :    47.091314039078340
 Root    584 :    47.120870476384760
 Root    585 :    47.572404865118920
 Root    586 :    47.825029777340640
 Root    587 :    48.026572512377300
 Root    588 :    48.091923191444000
 Root    589 :    48.355185656550820
 Root    590 :    48.439479764192410
 Root    591 :    49.000734972459090
 Root    592 :    49.299162618940910
 Root    593 :    49.509953352946570
 Root    594 :    49.821572373240700
 Root    595 :    50.113122132834460
[...]
     14   0.706965D+00  0.991980D-01 -0.345458D-01 -0.759543D-01  0.521303D+00
     15  -0.158430D-02  0.186385D+00  0.227955D+00  0.121859D+00  0.720498D+00
     16  -0.818914D-01 -0.962254D-01  0.483121D-02  0.446446D-01 -0.129742D+00
               911           912           913           914           915 
      1  -0.151403D+03 -0.151395D+03 -0.151392D+03 -0.151388D+03 -0.151377D+03
      2  -0.649134D-01  0.321681D-01  0.468899D-01 -0.150129D-01 -0.308110D-01
      3  -0.307733D-01 -0.343391D-01  0.556358D-01 -0.600999D-01  0.173285D-01
      4   0.361371D-01 -0.174686D-01 -0.938011D-02 -0.921842D-01 -0.198866D-01
      5   0.199341D+00 -0.986742D-01 -0.130158D+00  0.452851D-01  0.984865D-01
      6   0.866699D-01  0.100284D+00 -0.161186D+00  0.172451D+00 -0.417136D-01
      7  -0.108952D+00  0.625124D-01  0.417648D-01  0.269678D+00  0.531708D-01
      8   0.452352D-01 -0.634446D-01 -0.185610D-01  0.759833D-01  0.388876D-01
      9   0.353639D+00 -0.286392D+00 -0.928694D-01 -0.193224D+00  0.780182D-01
     10  -0.317210D-01 -0.227321D+00 -0.432668D-01  0.141074D+00 -0.113225D-01
     11   0.896755D+00  0.269672D+00 -0.310846D+00 -0.923585D-01  0.384624D+00
     12  -0.206282D-01  0.828114D-01 -0.166384D+00 -0.544381D-01  0.999542D-01
     13   0.443097D-01 -0.141248D+00 -0.365703D-01 -0.300926D-01 -0.109301D-01
     14  -0.237069D+00 -0.416077D-01  0.505045D-01  0.621800D-01  0.767523D-01
     15  -0.374681D+00  0.293758D+00  0.999511D-02  0.195351D+00 -0.201338D-01
     16   0.324985D-01 -0.148095D+00 -0.126145D+00 -0.733240D-02  0.403126D-01
               916           917           918           919           920 
      1  -0.151370D+03 -0.151364D+03 -0.151358D+03 -0.151346D+03 -0.151342D+03
      2   0.405145D-01 -0.178167D-01  0.644862D-01  0.525771D-01 -0.787777D-01
      3  -0.107887D-01 -0.270268D-01  0.632934D-01  0.279100D-01  0.464544D-01
      4  -0.673439D-01  0.325179D-02  0.410063D-01 -0.156607D-01  0.934500D-01
      5  -0.117312D+00  0.565090D-01 -0.195624D+00 -0.172431D+00  0.241244D+00
      6   0.273576D-01  0.795732D-01 -0.195191D+00 -0.830053D-01 -0.135259D+00
      7   0.218414D+00 -0.154397D-02 -0.120294D+00  0.507700D-01 -0.283445D+00
      8  -0.183922D+00 -0.845976D-01 -0.268819D-01  0.361899D-01  0.797790D-02
      9  -0.763479D+00  0.155076D+00  0.466082D+00 -0.179966D+00  0.514091D+00
     10  -0.315412D+00  0.287429D+00 -0.316531D+00 -0.209391D+00 -0.187263D+00
     11  -0.905929D+00  0.860252D+00 -0.300218D+00 -0.631433D+00 -0.217932D+00
     12   0.149331D+00  0.784435D-01  0.309700D+00 -0.296137D+00 -0.943349D-01
     13  -0.172094D+00 -0.726181D-01  0.102157D+00  0.129946D+00  0.305456D+00
     14  -0.128002D+00  0.651999D-01 -0.168608D+00 -0.333903D+00 -0.507661D+00
     15   0.825158D+00 -0.278408D+00 -0.402491D+00  0.248682D+00 -0.614908D+00
     16  -0.841418D-01 -0.107190D+00  0.855297D-01  0.106683D-01  0.467464D-02
               921           922           923           924           925 
      1  -0.151338D+03 -0.151335D+03 -0.151327D+03 -0.151320D+03 -0.151317D+03
      2   0.158053D-02  0.635204D-01 -0.119622D-01  0.560356D-02 -0.946247D-02
      3  -0.686696D-01  0.378868D-02  0.498954D-01 -0.316651D-01 -0.284848D-01
      4   0.698998D-01  0.481221D-01 -0.365654D-01  0.220993D-02 -0.567252D-01
      5  -0.102592D-01 -0.194761D+00  0.442205D-01 -0.986148D-02  0.255419D-01
      6   0.223806D+00 -0.170246D-01 -0.145420D+00  0.983972D-01  0.832725D-01
      7  -0.220891D+00 -0.146723D+00  0.105671D+00 -0.512425D-02  0.178735D+00
      8   0.164221D+00  0.352141D-01  0.520853D-02  0.395589D-02 -0.199851D-01
      9   0.390515D+00  0.511023D+00 -0.270190D+00  0.127347D-01 -0.370871D+00
     10   0.610825D+00 -0.301219D+00 -0.356321D-02  0.165764D+00  0.267247D+00
     11   0.374937D-01 -0.482316D+00  0.651699D+00 -0.132712D+00  0.893366D-01
     12  -0.127115D+00  0.304152D+00 -0.321055D-01 -0.713700D-01  0.277575D-01
     13   0.407583D-01  0.225507D+00 -0.411792D-01  0.569561D-01 -0.967148D-01
     14   0.630908D+00 -0.164402D+00 -0.115962D+00  0.118280D+00  0.406021D+00
     15  -0.375451D+00 -0.555007D+00  0.193147D+00 -0.344006D-01  0.460018D+00
     16  -0.758811D-02  0.921029D-01  0.480648D-01 -0.489066D-01 -0.754954D-01
               926           927           928           929           930 
      1  -0.151309D+03 -0.151306D+03 -0.151303D+03 -0.151286D+03 -0.151282D+03
      2  -0.362190D-01 -0.764216D-01 -0.131255D+00 -0.400122D-01  0.100343D-01
      3  -0.809911D-01  0.501080D-01 -0.571861D-01 -0.820621D-02 -0.269926D-01
      4  -0.637328D-01  0.432731D-02  0.859426D-01  0.347005D-02 -0.798298D-01
      5   0.114837D+00  0.237944D+00  0.402964D+00  0.123357D+00 -0.503789D-01
      6   0.233415D+00 -0.158781D+00  0.184033D+00  0.789378D-02  0.915881D-01
      7   0.188432D+00 -0.205398D-02 -0.273040D+00 -0.498818D-02  0.245540D+00
      8  -0.758847D-01 -0.112518D+00  0.203027D+00 -0.725865D-01 -0.415701D-01
      9  -0.587972D+00 -0.156556D+00  0.463176D+00  0.459606D-01 -0.273408D+00
     10   0.517887D+00  0.193747D-01  0.588943D+00 -0.312621D+00  0.475122D+00
     11   0.110620D+01  0.524303D+00  0.208755D+01  0.106385D+01 -0.456078D+00
     12   0.312868D-01  0.217004D+00  0.135990D-01  0.638307D-02 -0.195449D-01
     13  -0.175225D+00  0.274612D-01  0.140872D+00  0.562036D-01 -0.300901D+00
     14   0.603157D+00 -0.319846D+00  0.917639D-01 -0.164983D+00  0.524889D+00
     15   0.490678D+00 -0.405689D-01 -0.870129D+00 -0.147592D+00  0.259510D+00
     16  -0.155966D+00 -0.844009D-02  0.163761D+00 -0.923028D-02 -0.142760D+00
               931           932           933           934           935 
      1  -0.151266D+03 -0.151260D+03 -0.151255D+03 -0.151252D+03 -0.151227D+03
      2  -0.700371D-02 -0.268685D-01 -0.119868D+00 -0.481475D-01  0.608267D-01
      3   0.510392D-01  0.144248D-01 -0.376889D-01  0.681118D-02 -0.159639D-01
      4   0.287199D-01  0.465849D-01  0.847236D-01  0.398619D-01 -0.693766D-01
      5   0.248487D-01  0.954868D-01  0.384026D+00  0.151951D+00 -0.199557D+00
      6  -0.154127D+00 -0.461822D-01  0.114482D+00 -0.199414D-01  0.549216D-01
      7  -0.931403D-01 -0.133859D+00 -0.278438D+00 -0.127293D+00  0.212876D+00
      8   0.763842D-01  0.487223D-01  0.181883D+00  0.167407D+00 -0.396342D-01
      9   0.133408D+00  0.146242D+00  0.716113D+00  0.689861D+00  0.539692D-01
     10  -0.103303D+00 -0.335640D+00  0.800612D+00  0.204415D-01 -0.108661D+00
     11  -0.562415D+00  0.258918D+00  0.218314D+01  0.993816D-01 -0.100187D+01
     12   0.218204D+00 -0.981880D-01 -0.379740D+00  0.119585D+00 -0.111302D+00
     13   0.652073D-01  0.512673D-01  0.981639D-01  0.194696D+00  0.594792D-01
     14  -0.137177D+00 -0.456938D+00  0.409945D+00 -0.164384D-01  0.405357D-02
     15  -0.221863D+00 -0.241294D+00 -0.955719D+00 -0.733777D+00  0.716045D-01
     16   0.206226D+00  0.103593D+00  0.774098D-02  0.191741D+00  0.352632D-01
               936           937           938           939           940 
      1  -0.151225D+03 -0.151219D+03 -0.151217D+03 -0.151208D+03 -0.151202D+03
      2  -0.355666D-01  0.936394D-02  0.304644D-02  0.518731D-01  0.250031D-01
      3   0.177428D-01 -0.206899D-02  0.137900D-01  0.245307D-01  0.398655D-02
      4   0.171724D-01  0.297014D-01  0.143448D-01 -0.677747D-02  0.285765D-01
      5   0.115185D+00 -0.285467D-01  0.571559D-02 -0.117054D+00 -0.851497D-01
      6  -0.648018D-01  0.161631D-01 -0.383536D-01 -0.623485D-01 -0.223842D-02
      7  -0.567200D-01 -0.871251D-01 -0.446696D-01  0.245569D-01 -0.656506D-01
      8   0.496714D-01 -0.317586D-01 -0.592329D-03 -0.251378D-01 -0.843268D-01
      9  -0.251002D+00  0.196197D+00  0.129610D+00 -0.702099D-01 -0.322394D+00
     10  -0.127564D-01 -0.478390D-01 -0.191954D+00 -0.158103D+00  0.145250D-01
     11   0.526590D+00 -0.565915D-01  0.136254D+00  0.784930D+00 -0.517410D+00
     12   0.554744D-01  0.498681D-01  0.141694D+00 -0.131296D+00 -0.405225D-01
     13   0.117890D+00  0.104243D+00  0.646898D-01  0.478008D-01 -0.100446D+00
     14  -0.381381D-01  0.563571D-01 -0.108147D+00 -0.899920D-01  0.983026D-01
     15   0.852204D-01 -0.138563D+00 -0.111628D+00  0.191278D-01  0.433674D+00
     16   0.434977D-02  0.116686D-01  0.443314D-01 -0.442092D-01 -0.578260D-01
               941           942           943           944           945 
      1  -0.151191D+03 -0.151179D+03 -0.151162D+03 -0.151149D+03 -0.151143D+03
      2  -0.130947D-01 -0.598351D-01 -0.135144D-01  0.329032D-01 -0.161711D-01
      3  -0.228996D-01 -0.179691D-02  0.701688D-01  0.298865D-01 -0.741162D-01
      4   0.624591D-01  0.506058D-01 -0.116309D-01 -0.143071D-02 -0.647658D-01
      5   0.439765D-01  0.206774D+00  0.484093D-01 -0.112825D+00  0.354672D-01
      6   0.833982D-01  0.107120D-01 -0.200329D+00 -0.800905D-01  0.239367D+00
      7  -0.201917D+00 -0.179399D+00  0.332465D-01  0.707238D-02  0.214395D+00
      8   0.957552D-01  0.252346D+00 -0.651512D-01  0.470564D-01  0.866943D-01
      9   0.435706D+00  0.253061D+00  0.296564D-01  0.372260D-01 -0.803179D+00
     10   0.279796D+00 -0.253314D-01  0.186806D+00  0.172314D+00  0.457227D+00
     11   0.555711D+00  0.962132D+00 -0.804471D-01 -0.591414D+00  0.311977D+00
     12  -0.148858D+00 -0.255181D+00  0.117018D+00  0.595887D-01 -0.160499D-02
     13   0.652423D-01  0.141247D+00 -0.121697D+00 -0.547093D-01 -0.157937D+00
     14   0.280771D+00 -0.208046D+00  0.265063D+00  0.171264D+00  0.598215D+00
     15  -0.514953D+00 -0.390789D+00 -0.143611D-01  0.850044D-01  0.873839D+00
     16   0.138149D+00  0.532072D-01 -0.221113D-01  0.969107D-01 -0.767108D-01
               946           947           948           949           950 
      1  -0.151111D+03 -0.151103D+03 -0.151100D+03 -0.151081D+03 -0.151052D+03
      2   0.120936D+00 -0.507721D-01  0.179747D-01 -0.799599D-01  0.174972D-01
      3   0.159812D+00  0.207021D-01 -0.177112D-01 -0.128395D+00 -0.220543D-01
      4   0.131515D+00 -0.546401D-01  0.990262D-01 -0.111560D+00  0.754037D-01
      5  -0.389314D+00  0.178780D+00 -0.594809D-01  0.258243D+00 -0.661188D-01
      6  -0.514519D+00 -0.734819D-01  0.711024D-01  0.425647D+00  0.609219D-01
      7  -0.419986D+00  0.190851D+00 -0.311221D+00  0.365359D+00 -0.223351D+00
      8   0.121471D+00 -0.226018D-01  0.145239D+00 -0.955701D-01 -0.812789D-01
      9   0.825482D+00 -0.733452D+00  0.118928D+00 -0.825514D+00 -0.195575D-02
     10  -0.123509D+01  0.135024D+00  0.347382D+00  0.115726D+01 -0.113947D+00
     11  -0.200687D+01  0.664099D+00 -0.287972D+00  0.114263D+01 -0.443425D+00
     12   0.432137D+00  0.961819D-01 -0.705190D-01 -0.398070D+00  0.109001D+00
     13   0.260221D+00 -0.271324D+00  0.871651D-01 -0.217680D+00  0.185128D-01
     14  -0.103895D+01 -0.164726D+00  0.357228D+00  0.879629D+00 -0.112988D+00
     15  -0.614089D+00  0.729043D+00 -0.195054D+00  0.771586D+00 -0.800678D-01
     16   0.322361D+00 -0.228779D+00  0.625424D-01 -0.292409D+00 -0.145741D-01
               951           952           953           954           955 
      1  -0.151043D+03 -0.151025D+03 -0.151021D+03 -0.151013D+03 -0.151001D+03
      2   0.185563D-01  0.409755D-01 -0.656850D-01 -0.564762D-01  0.127641D-01
      3   0.248047D-01 -0.238175D-01 -0.538395D-02  0.479265D-01  0.809920D-01
      4   0.362459D-01  0.644994D-02 -0.207415D-01 -0.355603D-02  0.647823D-01
      5  -0.547103D-01 -0.151064D+00  0.216592D+00  0.202515D+00 -0.273863D-01
      6  -0.798300D-01  0.745797D-01 -0.225854D-02 -0.157798D+00 -0.279915D+00
      7  -0.113032D+00 -0.230911D-01  0.682614D-01  0.244096D-01 -0.209735D+00
      8  -0.108960D-01  0.654260D-01 -0.105911D+00 -0.170913D+00  0.843095D-01
      9   0.101867D+00  0.136519D+00 -0.260245D+00 -0.351113D+00  0.487477D+00
     10  -0.148150D+00 -0.183175D+00 -0.342543D+00 -0.943792D-01 -0.795889D+00
     11  -0.875019D-01 -0.603352D+00  0.101562D+01  0.661695D+00 -0.398467D+00
     12  -0.130114D+00 -0.131688D+00  0.101545D+00  0.176278D+00  0.501776D+00
     13   0.453131D-01  0.769640D-01 -0.124981D+00 -0.109280D+00  0.156655D+00
     14  -0.156721D+00  0.130417D+00 -0.446020D+00 -0.201321D+00 -0.721277D+00
     15  -0.737459D-01 -0.145423D-01  0.264402D+00  0.401294D+00 -0.541408D+00
     16  -0.531174D-02  0.330783D-01 -0.968267D-01 -0.635692D-01  0.274895D+00
               956           957           958           959           960 
      1  -0.150971D+03 -0.150956D+03 -0.150930D+03 -0.150920D+03 -0.150902D+03
      2   0.113742D-01 -0.114517D+00 -0.652368D-01  0.453215D-01 -0.956893D-01
      3  -0.478313D-01  0.385917D-01  0.474597D-01  0.298811D-01  0.279607D-01
      4   0.600989D-02 -0.223960D-01  0.841473D-02  0.518743D-02 -0.162005D-01
      5  -0.316556D-01  0.398574D+00  0.236196D+00 -0.141743D+00  0.342169D+00
      6   0.161619D+00 -0.140695D+00 -0.179206D+00 -0.874903D-01 -0.108992D+00
      7  -0.911764D-02  0.797711D-01 -0.204666D-01 -0.160226D-01  0.556195D-01
      8  -0.442412D-01 -0.935930D-01 -0.110428D+00 -0.497017D-04 -0.550741D-01
      9  -0.296522D+00 -0.288184D+00 -0.390685D-01  0.878310D-01 -0.228578D+00
     10   0.884179D-01  0.140915D-01 -0.374281D+00 -0.135586D+00 -0.786164D-01
     11   0.449425D+00  0.178622D+01  0.115798D+01 -0.378482D+00  0.120284D+01
     12  -0.302720D+00 -0.200126D+00  0.191850D+00 -0.240640D+00 -0.159197D+00
     13   0.327644D-01 -0.474420D-01 -0.905870D-01  0.975844D-01  0.291237D+00
     14   0.225724D+00 -0.127006D+00 -0.544996D+00 -0.908651D-01 -0.398860D+00
     15   0.342003D+00  0.121672D+00 -0.332214D-01 -0.656483D-02  0.119967D+00
     16  -0.159326D+00 -0.857279D-01 -0.665206D-01 -0.527268D-01  0.147288D+00
               961           962           963           964           965 
      1  -0.150901D+03 -0.150890D+03 -0.150811D+03 -0.150803D+03 -0.150773D+03
      2  -0.712060D-01 -0.225265D-01 -0.261901D-01  0.468156D-03 -0.295037D-02
      3   0.100383D+00  0.227040D-01 -0.157600D-01 -0.911807D-03 -0.153416D-01
      4   0.245717D-01  0.325430D-01  0.278348D-01 -0.348414D-01 -0.377866D-01
      5   0.268189D+00  0.733553D-01  0.938330D-01 -0.946756D-04  0.195186D-01
      6  -0.365709D+00 -0.744152D-01  0.480492D-01  0.822927D-02  0.385301D-01
      7  -0.874617D-01 -0.996239D-01 -0.931885D-01  0.113653D+00  0.130545D+00
      8   0.514654D-01 -0.755100D-02  0.205669D-01  0.687976D-01 -0.193062D-01
      9   0.286461D+00 -0.167789D+00  0.143072D+00 -0.139952D+00 -0.232562D+00
     10  -0.829552D+00 -0.506358D-01  0.535442D-01  0.856532D-01  0.378017D-01
     11   0.107240D+01  0.109285D+00  0.476560D+00 -0.638481D-01  0.420932D+00
     12   0.291973D+00  0.198373D-01 -0.656740D-01 -0.668275D-01 -0.385049D-01
     13  -0.966346D-01 -0.752674D-01  0.575940D-01  0.732086D-01  0.306352D-01
     14  -0.723316D+00 -0.291370D-01 -0.157814D-01  0.357145D-01 -0.284309D+00
     15  -0.469224D+00  0.226720D+00  0.285069D-01  0.768685D-01  0.999461D-01
     16   0.171172D+00 -0.115479D-02 -0.839445D-02  0.238820D-01 -0.497038D-01
               966           967           968           969           970 
      1  -0.150769D+03 -0.150729D+03 -0.150697D+03 -0.150644D+03 -0.150638D+03
      2   0.188920D-01 -0.719332D-01 -0.174030D-01  0.137631D-01 -0.974989D-01
      3  -0.224459D-01 -0.854886D-01 -0.223874D-01  0.138743D-01  0.135009D+00
      4  -0.247126D-01 -0.825984D-01  0.426119D-02 -0.177037D-03 -0.613702D-01
      5  -0.110713D+00  0.272299D+00  0.693267D-01 -0.659566D-01  0.374789D+00
      6   0.107820D+00  0.322445D+00  0.811113D-01 -0.459419D-01 -0.510255D+00
      7   0.916831D-01  0.309875D+00 -0.100239D-01  0.142868D-01  0.228053D+00
      8  -0.515661D-02 -0.106847D+00 -0.243587D-01 -0.981412D-01 -0.160291D+00
      9  -0.131725D+00 -0.752158D+00 -0.701298D-01 -0.185310D+00 -0.526911D+00
     10   0.776124D-01  0.894612D+00  0.176333D+00 -0.130167D+00 -0.870512D+00
     11  -0.977898D+00  0.126194D+01  0.339634D+00 -0.312156D+00  0.158585D+01
     12  -0.314951D+00 -0.890577D-01  0.112906D-01  0.216929D-01  0.228105D+00
     13   0.942370D-01 -0.321542D+00 -0.210695D-02 -0.307983D-01 -0.997907D-01
     14   0.580502D+00  0.707520D+00  0.167723D-01 -0.670475D-01 -0.104398D+01
     15   0.216427D+00  0.553225D+00  0.139105D-01  0.770553D-01  0.394624D+00
     16  -0.962159D-01 -0.219144D+00  0.993293D-02 -0.886956D-01  0.159716D+00
               971           972           973           974           975 
      1  -0.150628D+03 -0.150567D+03 -0.150544D+03 -0.150495D+03 -0.150477D+03
      2   0.427936D-01 -0.678504D-01 -0.327209D-01 -0.152153D-01 -0.460465D-01
      3  -0.691792D-01  0.299469D-01 -0.429604D-01 -0.560825D-01 -0.402915D-02
      4   0.388149D-01  0.448644D-01  0.179264D-01  0.105445D+00  0.338792D-01
      5  -0.194816D+00  0.279764D+00  0.132464D+00  0.686405D-01  0.190235D+00
      6   0.286148D+00 -0.132066D+00  0.155680D+00  0.207258D+00  0.115539D-01
      7  -0.143478D+00 -0.177647D+00 -0.614151D-01 -0.405530D+00 -0.136883D+00
      8   0.871558D-01  0.271517D-01  0.427262D-01  0.231146D+00  0.479940D-01
      9   0.337409D+00  0.305828D+00  0.139833D+00  0.899272D+00  0.262053D+00
     10   0.634617D+00 -0.188421D+00  0.382825D+00  0.513330D+00  0.715118D-01
     11  -0.141680D+01  0.129553D+01  0.520167D+00  0.168137D+00  0.891405D+00
     12  -0.410129D+00  0.164087D+00  0.164336D-02 -0.254656D+00  0.375906D-01
     13   0.123222D+00  0.124169D+00 -0.191635D-01  0.334826D+00  0.770422D-01
     14   0.111799D+01 -0.444160D+00  0.335905D+00  0.507803D+00 -0.816517D-01
     15  -0.173537D+00 -0.415335D+00 -0.229113D+00 -0.965556D+00 -0.354438D+00
     16  -0.137183D+00  0.566431D-01 -0.729314D-01 -0.170071D-01  0.132122D-01
               976           977           978           979           980 
      1  -0.150443D+03 -0.150424D+03 -0.150311D+03 -0.150170D+03 -0.149987D+03
      2  -0.256367D-01 -0.191778D-01  0.130844D-01 -0.201499D-02  0.692667D-02
      3  -0.687881D-01 -0.300835D-01  0.260503D-01  0.576096D-02  0.191594D-01
      4   0.737321D-01  0.585717D-01 -0.461570D-01 -0.214685D-02 -0.265984D-01
      5   0.123060D+00  0.248410D-01 -0.660304D-01  0.220271D-02 -0.557529D-01
      6   0.251291D+00  0.152222D+00 -0.947160D-01 -0.233152D-01 -0.519747D-01
      7  -0.293916D+00 -0.223139D+00  0.186830D+00  0.100474D-01  0.104216D+00
      8   0.205237D+00  0.149142D+00 -0.102728D+00  0.148457D-02 -0.469928D-01
      9   0.674928D+00  0.527028D+00 -0.411167D+00 -0.158838D-01 -0.215526D+00
     10   0.636927D+00  0.405417D+00 -0.255136D+00 -0.274290D-01 -0.131978D+00
     11   0.489159D+00  0.751039D-01 -0.515731D+00 -0.218625D+00 -0.139869D+00
     12  -0.247345D+00 -0.198449D+00  0.892239D-02 -0.713220D-01  0.140655D-01
     13   0.240099D+00  0.880530D-01 -0.130332D+00  0.290198D-01 -0.941215D-01
     14   0.656667D+00  0.275811D+00 -0.432155D-01  0.710302D-01 -0.770569D-01
     15  -0.795246D+00 -0.629607D+00  0.507517D+00  0.388516D-01  0.260030D+00
     16  -0.634223D-02 -0.108131D+00 -0.599798D-01 -0.591281D-01  0.154939D+00
 Unable to Open any file for archive entry.
 1\1\GINC-HEL25\SP\RCAM-B3LYP TD-FC\Gen\C2H6O1\SABYASACHI\21-Mar-2022\0
 \\#P TD(Nstates=10000) cam-b3lyp/Gen SCF(maxcycles=100) Int(Grid=ultra
 fine)\\xGDB7_00001_tier4.com\\0,1\C,0,-1.208422,-0.239069,-0.021917\C,
 0,0.083893,0.553452,0.046734\O,0,1.233467,-0.256002,-0.105864\H,0,-2.0
 71999,0.425136,0.0517\H,0,-1.27067,-0.957756,0.799731\H,0,-1.270625,-0
 .78828,-0.962327\H,0,0.13003,1.119197,0.986112\H,0,0.125952,1.277026,-
 0.768547\H,0,1.236751,-0.913605,0.591341\\Version=EM64L-G16RevC.01\Sta
 te=1-A\HF=-154.8633025\RMSD=5.637e-09\PG=C01 [X(C2H6O1)]\\@
 The archive entry for this job was punched.


 A FOOL CAN ASK MORE QUESTIONS THAN
 A WISE MAN CAN ANSWER.
 Job cpu time:       0 days  0 hours 24 minutes 35.8 seconds.
 Elapsed time:       0 days  0 hours  3 minutes  4.9 seconds.
 File lengths (MBytes):  RWF=   1237 Int=      0 D2E=      0 Chk=    291 Scr=      1
 Normal termination of Gaussian 16 at Mon Mar 21 20:13:04 2022.
