 Entering Gaussian System, Link 0=g16
 Input=000017.com
 Output=000017.log
 Initial command:
 /home/sabyasachi/g16/l1.exe "/scratch/sabyasachi/PBS_7976283.helios/Gau-144725.inp" -scrdir="/scratch/sabyasachi/PBS_7976283.helios/"
 Entering Link 1 = /home/sabyasachi/g16/l1.exe PID=    144726.
  
 Copyright (c) 1988-2019, Gaussian, Inc.  All Rights Reserved.
  
 This is part of the Gaussian(R) 16 program.  It is based on
 the Gaussian(R) 09 system (copyright 2009, Gaussian, Inc.),
 the Gaussian(R) 03 system (copyright 2003, Gaussian, Inc.),
 the Gaussian(R) 98 system (copyright 1998, Gaussian, Inc.),
 the Gaussian(R) 94 system (copyright 1995, Gaussian, Inc.),
 the Gaussian 92(TM) system (copyright 1992, Gaussian, Inc.),
 the Gaussian 90(TM) system (copyright 1990, Gaussian, Inc.),
 the Gaussian 88(TM) system (copyright 1988, Gaussian, Inc.),
 the Gaussian 86(TM) system (copyright 1986, Carnegie Mellon
 University), and the Gaussian 82(TM) system (copyright 1983,
 Carnegie Mellon University). Gaussian is a federally registered
 trademark of Gaussian, Inc.
  
 This software contains proprietary and confidential information,
 including trade secrets, belonging to Gaussian, Inc.
  
 This software is provided under written license and may be
 used, copied, transmitted, or stored only in accord with that
 written license.
  
 The following legend is applicable only to US Government
 contracts under FAR:
  
                    RESTRICTED RIGHTS LEGEND
  
 Use, reproduction and disclosure by the US Government is
 subject to restrictions as set forth in subparagraphs (a)
 and (c) of the Commercial Computer Software - Restricted
 Rights clause in FAR 52.227-19.
  
 Gaussian, Inc.
 340 Quinnipiac St., Bldg. 40, Wallingford CT 06492
  
  
 ---------------------------------------------------------------
 Warning -- This program may not be used in any manner that
 competes with the business of Gaussian, Inc. or will provide
 assistance to any competitor of Gaussian, Inc.  The licensee
 of this program is prohibited from giving any competitor of
 Gaussian, Inc. access to this program.  By using this program,
 the user acknowledges that Gaussian, Inc. is engaged in the
 business of creating and licensing software in the field of
 computational chemistry and represents and warrants to the
 licensee that it is not a competitor of Gaussian, Inc. and that
 it will not use this program in any manner prohibited above.
 ---------------------------------------------------------------
  

 Cite this work as:
 Gaussian 16, Revision C.01,
 M. J. Frisch, G. W. Trucks, H. B. Schlegel, G. E. Scuseria, 
 M. A. Robb, J. R. Cheeseman, G. Scalmani, V. Barone, 
 G. A. Petersson, H. Nakatsuji, X. Li, M. Caricato, A. V. Marenich, 
 J. Bloino, B. G. Janesko, R. Gomperts, B. Mennucci, H. P. Hratchian, 
 J. V. Ortiz, A. F. Izmaylov, J. L. Sonnenberg, D. Williams-Young, 
 F. Ding, F. Lipparini, F. Egidi, J. Goings, B. Peng, A. Petrone, 
 T. Henderson, D. Ranasinghe, V. G. Zakrzewski, J. Gao, N. Rega, 
 G. Zheng, W. Liang, M. Hada, M. Ehara, K. Toyota, R. Fukuda, 
 J. Hasegawa, M. Ishida, T. Nakajima, Y. Honda, O. Kitao, H. Nakai, 
 T. Vreven, K. Throssell, J. A. Montgomery, Jr., J. E. Peralta, 
 F. Ogliaro, M. J. Bearpark, J. J. Heyd, E. N. Brothers, K. N. Kudin, 
 V. N. Staroverov, T. A. Keith, R. Kobayashi, J. Normand, 
 K. Raghavachari, A. P. Rendell, J. C. Burant, S. S. Iyengar, 
 J. Tomasi, M. Cossi, J. M. Millam, M. Klene, C. Adamo, R. Cammi, 
 J. W. Ochterski, R. L. Martin, K. Morokuma, O. Farkas, 
 J. B. Foresman, and D. J. Fox, Gaussian, Inc., Wallingford CT, 2019.
 
 ******************************************
 Gaussian 16:  EM64L-G16RevC.01  3-Jul-2019
                21-Mar-2022 
 ******************************************
 %mem=64gb
 %nproc=8
 Will use up to    8 processors via shared memory.
 ----------------------------------------------------------------------
 #P TD(Nstates=10000) cam-b3lyp/Gen SCF(maxcycles=100) Int(Grid=ultrafi
 ne)
 ----------------------------------------------------------------------
 1/38=1,172=1/1;
 2/12=2,17=6,18=5,40=1/2;
 3/5=7,11=9,25=1,30=1,74=-40,75=-5/1,2,3,8;
 4//1;
 5/5=2,7=100,38=5/2;
 8/6=1,10=1,108=10000/1;
 9/41=10000,42=1,70=2/14;
 6/7=2,8=2,9=2,10=2/1;
 99/5=1,9=1/99;
 Leave Link    1 at Mon Mar 21 20:07:38 2022, MaxMem=  8589934592 cpu:               0.4 elap:               0.1
 (Enter /home/sabyasachi/g16/l101.exe)
 ---------------------
 xGDB7_00001_tier4.com
 ---------------------
 Symbolic Z-matrix:
 Charge =  0 Multiplicity = 1
 6                    -1.12284  -0.45232   0. 
 6                     0.        0.554     0. 
 9                     1.22528  -0.09824   0. 
 1                    -2.08331   0.06681   0. 
 1                    -1.0728   -1.08565   0.88615 
 1                    -1.0728   -1.08565  -0.88615 
 1                    -0.03079   1.18928   0.88872 
 1                    -0.03079   1.18928  -0.88872 
 
 ITRead=  0  0  0  0  0  0  0  0
 MicOpt= -1 -1 -1 -1 -1 -1 -1 -1
 NAtoms=      8 NQM=        8 NQMF=       0 NMMI=      0 NMMIF=      0
                NMic=       0 NMicF=      0.
                    Isotopes and Nuclear Properties:
 (Nuclear quadrupole moments (NQMom) in fm**2, nuclear magnetic moments (NMagM)
  in nuclear magnetons)

  Atom         1           2           3           4           5           6           7           8
 IAtWgt=          12          12          19           1           1           1           1           1
 AtmWgt=  12.0000000  12.0000000  18.9984033   1.0078250   1.0078250   1.0078250   1.0078250   1.0078250
 NucSpn=           0           0           1           1           1           1           1           1
 AtZEff=  -0.0000000  -0.0000000  -0.0000000  -0.0000000  -0.0000000  -0.0000000  -0.0000000  -0.0000000
 NQMom=    0.0000000   0.0000000   0.0000000   0.0000000   0.0000000   0.0000000   0.0000000   0.0000000
 NMagM=    0.0000000   0.0000000   2.6288670   2.7928460   2.7928460   2.7928460   2.7928460   2.7928460
 AtZNuc=   6.0000000   6.0000000   9.0000000   1.0000000   1.0000000   1.0000000   1.0000000   1.0000000
 Leave Link  101 at Mon Mar 21 20:07:38 2022, MaxMem=  8589934592 cpu:               0.6 elap:               0.1
 (Enter /home/sabyasachi/g16/l202.exe)
                          Input orientation:                          
 ---------------------------------------------------------------------
 Center     Atomic      Atomic             Coordinates (Angstroms)
 Number     Number       Type             X           Y           Z
 ---------------------------------------------------------------------
      1          6           0       -1.122844   -0.452320    0.000000
      2          6           0        0.000000    0.553997    0.000000
      3          9           0        1.225284   -0.098236    0.000000
      4          1           0       -2.083314    0.066805    0.000000
      5          1           0       -1.072796   -1.085651    0.886148
      6          1           0       -1.072796   -1.085651   -0.886148
      7          1           0       -0.030794    1.189278    0.888716
      8          1           0       -0.030794    1.189278   -0.888716
 ---------------------------------------------------------------------
                    Distance matrix (angstroms):
                    1          2          3          4          5
     1  C    0.000000
     2  C    1.507797   0.000000
     3  F    2.374675   1.388067   0.000000
     4  H    1.091784   2.139522   3.312712   0.000000
     5  H    1.090354   2.150487   2.653567   1.770469   0.000000
     6  H    1.090354   2.150487   2.653567   1.770469   1.772296
     7  H    2.162691   1.092862   2.006300   2.502519   2.502214
     8  H    2.162691   1.092862   2.006300   2.502519   3.067770
                    6          7          8
     6  H    0.000000
     7  H    3.067770   0.000000
     8  H    2.502214   1.777432   0.000000
 Stoichiometry    C2H5F
 Framework group  CS[SG(C2HF),X(H4)]
 Deg. of freedom    11
 Full point group                 CS      NOp   2
 Largest Abelian subgroup         CS      NOp   2
 Largest concise Abelian subgroup CS      NOp   2
                         Standard orientation:                         
 ---------------------------------------------------------------------
 Center     Atomic      Atomic             Coordinates (Angstroms)
 Number     Number       Type             X           Y           Z
 ---------------------------------------------------------------------
      1          6           0       -1.122844   -0.452320    0.000000
      2          6           0        0.000000    0.553997    0.000000
      3          9           0        1.225284   -0.098236    0.000000
      4          1           0       -2.083314    0.066805    0.000000
      5          1           0       -1.072796   -1.085651    0.886148
      6          1           0       -1.072796   -1.085651   -0.886148
      7          1           0       -0.030794    1.189278    0.888716
      8          1           0       -0.030794    1.189278   -0.888716
 ---------------------------------------------------------------------
 Rotational constants (GHZ):          36.5990005           9.3913155           8.2480707
 Leave Link  202 at Mon Mar 21 20:07:38 2022, MaxMem=  8589934592 cpu:               0.1 elap:               0.0
 (Enter /home/sabyasachi/g16/l301.exe)
 General basis read from cards:  (5D, 7F)
 Centers:       4      5      6      7      8
 S 3 1.00
     Exponent=  1.3010701000D+01 Coefficients=  1.9682158000D-02
     Exponent=  1.9622572000D+00 Coefficients=  1.3796524000D-01
     Exponent=  4.4453796000D-01 Coefficients=  4.7831935000D-01
 S 1 1.00
     Exponent=  1.2194962000D-01 Coefficients=  1.0000000000D+00
 P 1 1.00
     Exponent=  8.0000000000D-01 Coefficients=  1.0000000000D+00
 P 1 1.00
     Exponent=  1.1704099050D-01 Coefficients=  1.0000000000D+00
 ****
 Centers:       1      2
 S 5 1.00
     Exponent=  1.2384016938D+03 Coefficients=  5.4568832082D-03
     Exponent=  1.8629004992D+02 Coefficients=  4.0638409211D-02
     Exponent=  4.2251176346D+01 Coefficients=  1.8025593888D-01
     Exponent=  1.1676557932D+01 Coefficients=  4.6315121755D-01
     Exponent=  3.5930506482D+00 Coefficients=  4.4087173314D-01
 S 1 1.00
     Exponent=  4.0245147363D-01 Coefficients=  1.0000000000D+00
 S 1 1.00
     Exponent=  1.3090182668D-01 Coefficients=  1.0000000000D+00
 S 1 1.00
     Exponent=  6.7053540256D-02 Coefficients=  1.0000000000D+00
 P 3 1.00
     Exponent=  9.4680970621D+00 Coefficients=  3.8387871728D-02
     Exponent=  2.0103545142D+00 Coefficients=  2.1117025112D-01
     Exponent=  5.4771004707D-01 Coefficients=  5.1328172114D-01
 P 1 1.00
     Exponent=  1.5268613795D-01 Coefficients=  1.0000000000D+00
 D 1 1.00
     Exponent=  8.0000000000D-01 Coefficients=  1.0000000000D+00
 D 1 1.00
     Exponent=  1.1713185140D-01 Coefficients=  1.0000000000D+00
 ****
 Centers:       3
 S 5 1.00
     Exponent=  2.8948325990D+03 Coefficients= -5.3408255515D-03
     Exponent=  4.3541939120D+02 Coefficients= -3.9904258866D-02
     Exponent=  9.8843328866D+01 Coefficients= -1.7912768038D-01
     Exponent=  2.7485198001D+01 Coefficients= -4.6758090825D-01
     Exponent=  8.5405498171D+00 Coefficients= -4.4653131020D-01
 S 1 1.00
     Exponent=  1.0654578038D+00 Coefficients=  1.0000000000D+00
 S 1 1.00
     Exponent=  3.3247346748D-01 Coefficients=  1.0000000000D+00
 S 1 1.00
     Exponent=  9.8097752264D-02 Coefficients=  1.0000000000D+00
 P 3 1.00
     Exponent=  2.2696633924D+01 Coefficients= -4.5212874436D-02
     Exponent=  4.9872339257D+00 Coefficients= -2.3754317067D-01
     Exponent=  1.3491613954D+00 Coefficients= -5.1287353587D-01
 P 1 1.00
     Exponent=  3.4829881977D-01 Coefficients=  1.0000000000D+00
 P 1 1.00
     Exponent=  8.3372148304D-02 Coefficients=  1.0000000000D+00
 D 1 1.00
     Exponent=  1.4000000000D+00 Coefficients=  1.0000000000D+00
 D 1 1.00
     Exponent=  2.2301361948D-01 Coefficients=  1.0000000000D+00
 ****
 Ernie: Thresh=  0.10000D-02 Tol=  0.10000D-05 Strict=F.
 There are    72 symmetry adapted cartesian basis functions of A'  symmetry.
 There are    37 symmetry adapted cartesian basis functions of A"  symmetry.
 There are    66 symmetry adapted basis functions of A'  symmetry.
 There are    37 symmetry adapted basis functions of A"  symmetry.
   103 basis functions,   149 primitive gaussians,   109 cartesian basis functions
    13 alpha electrons       13 beta electrons
       nuclear repulsion energy        79.3301965124 Hartrees.
 IExCor=20419 DFT=T Ex+Corr=CAM-B3LYP ExCW=0 ScaHFX=  1.000000
 ScaDFX=  1.000000  1.000000  1.000000  0.810000 ScalE2=  1.000000  1.000000
 IRadAn=      5 IRanWt=     -1 IRanGd=            0 ICorTp=0 IEmpDi=  4
 HFx  wShort=  0.000000 wLong=  0.330000 cFull=  0.190000 cShort=  0.000000 cLong=  0.460000
 DFx  wShort=  0.000000 wLong=  0.330000 cFull=  0.190000 cShort=  0.000000 cLong=  0.460000
 NAtoms=    8 NActive=    8 NUniq=    6 SFac= 1.78D+00 NAtFMM=   60 NAOKFM=F Big=F
 Integral buffers will be    131072 words long.
 Raffenetti 1 integral format.
 Two-electron integral symmetry is turned on.
 Leave Link  301 at Mon Mar 21 20:07:38 2022, MaxMem=  8589934592 cpu:               0.5 elap:               0.1
 (Enter /home/sabyasachi/g16/l302.exe)
 NPDir=0 NMtPBC=     1 NCelOv=     1 NCel=       1 NClECP=     1 NCelD=      1
         NCelK=      1 NCelE2=     1 NClLst=     1 CellRange=     0.0.
 One-electron integrals computed using PRISM.
 One-electron integral symmetry used in STVInt
 NBasis=   103 RedAO= T EigKep=  3.43D-04  NBF=    66    37
 NBsUse=   103 1.00D-06 EigRej= -1.00D+00 NBFU=    66    37
 Precomputing XC quadrature grid using
 IXCGrd= 4 IRadAn=           5 IRanWt=          -1 IRanGd=           0 AccXCQ= 0.00D+00.
 Generated NRdTot=       0 NPtTot=           0 NUsed=           0 NTot=          32
 NSgBfM=   109   109   109   109   109 MxSgAt=     8 MxSgA2=     8.
 Leave Link  302 at Mon Mar 21 20:07:38 2022, MaxMem=  8589934592 cpu:               1.0 elap:               0.1
 (Enter /home/sabyasachi/g16/l303.exe)
 DipDrv:  MaxL=1.
 Leave Link  303 at Mon Mar 21 20:07:38 2022, MaxMem=  8589934592 cpu:               0.2 elap:               0.0
 (Enter /home/sabyasachi/g16/l308.exe)
 Leave Link  308 at Mon Mar 21 20:07:38 2022, MaxMem=  8589934592 cpu:               0.2 elap:               0.0
 (Enter /home/sabyasachi/g16/l401.exe)
 ExpMin= 6.71D-02 ExpMax= 2.89D+03 ExpMxC= 4.35D+02 IAcc=3 IRadAn=         5 AccDes= 0.00D+00
 Harris functional with IExCor=20419 and IRadAn=       5 diagonalized for initial guess.
 HarFok:  IExCor=20419 AccDes= 0.00D+00 IRadAn=         5 IDoV= 1 UseB2=F ITyADJ=14
 ICtDFT=  3500011 ScaDFX=  1.000000  1.000000  1.000000  1.000000
 FoFCou: FMM=F IPFlag=           0 FMFlag=      100000 FMFlg1=           0
         NFxFlg=           0 DoJE=T BraDBF=F KetDBF=T FulRan=T
         wScrn=  0.000000 ICntrl=       500 IOpCl=  0 I1Cent=   200000004 NGrid=           0
         NMat0=    1 NMatS0=      1 NMatT0=    0 NMatD0=    1 NMtDS0=    0 NMtDT0=    0
 Petite list used in FoFCou.
 Harris En= -172.558618130533    
 JPrj=0 DoOrth=F DoCkMO=F.
 Initial guess orbital symmetries:
       Occupied  (A') (A') (A') (A') (A') (A') (A") (A') (A') (A')
                 (A") (A') (A")
       Virtual   (A') (A') (A') (A") (A') (A') (A") (A') (A") (A')
                 (A") (A') (A') (A") (A') (A') (A") (A') (A') (A')
                 (A") (A') (A") (A') (A") (A') (A") (A') (A') (A")
                 (A") (A') (A") (A') (A') (A') (A") (A') (A') (A")
                 (A') (A') (A') (A") (A') (A') (A") (A') (A') (A")
                 (A') (A') (A") (A') (A") (A') (A') (A") (A") (A')
                 (A") (A") (A') (A') (A") (A') (A') (A") (A") (A')
                 (A') (A") (A') (A') (A") (A') (A') (A') (A") (A')
                 (A') (A') (A") (A') (A") (A') (A") (A") (A') (A')
 The electronic state of the initial guess is 1-A'.
 Leave Link  401 at Mon Mar 21 20:07:39 2022, MaxMem=  8589934592 cpu:               2.2 elap:               0.3
 (Enter /home/sabyasachi/g16/l502.exe)
 Keep R1 ints in memory in symmetry-blocked form, NReq=43165308.
 FoFCou: FMM=F IPFlag=           0 FMFlag=           0 FMFlg1=           0
         NFxFlg=           0 DoJE=F BraDBF=F KetDBF=F FulRan=T
         wScrn=  0.000000 ICntrl=       600 IOpCl=  0 I1Cent=           0 NGrid=           0
         NMat0=    1 NMatS0=   5356 NMatT0=    0 NMatD0=    1 NMtDS0=    0 NMtDT0=    0
 Petite list used in FoFCou.
 Closed shell SCF:
 Using DIIS extrapolation, IDIIS=  1040.
 NGot=  8589934592 LenX=  8582666380 LenY=  8582654058
 Requested convergence on RMS density matrix=1.00D-08 within 100 cycles.
 Requested convergence on MAX density matrix=1.00D-06.
 Requested convergence on             energy=1.00D-06.
 No special actions if energy rises.
 Integral accuracy reduced to 1.0D-05 until final iterations.

 Cycle   1  Pass 0  IDiag  1:
 E= -178.760154220799    
 DIIS: error= 3.47D-02 at cycle   1 NSaved=   1.
 NSaved= 1 IEnMin= 1 EnMin= -178.760154220799     IErMin= 1 ErrMin= 3.47D-02
 ErrMax= 3.47D-02  0.00D+00 EMaxC= 1.00D-01 BMatC= 1.87D-01 BMatP= 1.87D-01
 IDIUse=3 WtCom= 6.53D-01 WtEn= 3.47D-01
 Coeff-Com:  0.100D+01
 Coeff-En:   0.100D+01
 Coeff:      0.100D+01
 Gap=     0.629 Goal=   None    Shift=    0.000
 GapD=    0.629 DampG=2.000 DampE=0.500 DampFc=1.0000 IDamp=-1.
 RMSDP=5.67D-03 MaxDP=1.41D-01              OVMax= 1.41D-01

 Cycle   2  Pass 0  IDiag  1:
 E= -178.732909894894     Delta-E=        0.027244325906 Rises=F Damp=F
 DIIS: error= 4.64D-02 at cycle   2 NSaved=   2.
 NSaved= 2 IEnMin= 1 EnMin= -178.760154220799     IErMin= 1 ErrMin= 3.47D-02
 ErrMax= 4.64D-02  0.00D+00 EMaxC= 1.00D-01 BMatC= 2.14D-01 BMatP= 1.87D-01
 IDIUse=2 WtCom= 0.00D+00 WtEn= 1.00D+00
 Coeff-En:   0.554D+00 0.446D+00
 Coeff:      0.554D+00 0.446D+00
 Gap=     0.483 Goal=   None    Shift=    0.000
 RMSDP=2.56D-03 MaxDP=8.60D-02 DE= 2.72D-02 OVMax= 7.24D-02

 Cycle   3  Pass 0  IDiag  1:
 E= -178.866551273924     Delta-E=       -0.133641379031 Rises=F Damp=F
 DIIS: error= 1.64D-03 at cycle   3 NSaved=   3.
 NSaved= 3 IEnMin= 3 EnMin= -178.866551273924     IErMin= 3 ErrMin= 1.64D-03
 ErrMax= 1.64D-03  0.00D+00 EMaxC= 1.00D-01 BMatC= 5.12D-04 BMatP= 1.87D-01
 IDIUse=3 WtCom= 9.84D-01 WtEn= 1.64D-02
 Coeff-Com:  0.204D-01-0.995D-02 0.990D+00
 Coeff-En:   0.000D+00 0.000D+00 0.100D+01
 Coeff:      0.201D-01-0.979D-02 0.990D+00
 Gap=     0.454 Goal=   None    Shift=    0.000
 RMSDP=5.18D-04 MaxDP=9.30D-03 DE=-1.34D-01 OVMax= 7.37D-03

 Cycle   4  Pass 0  IDiag  1:
 E= -178.866834514773     Delta-E=       -0.000283240849 Rises=F Damp=F
 DIIS: error= 1.25D-03 at cycle   4 NSaved=   4.
 NSaved= 4 IEnMin= 4 EnMin= -178.866834514773     IErMin= 4 ErrMin= 1.25D-03
 ErrMax= 1.25D-03  0.00D+00 EMaxC= 1.00D-01 BMatC= 2.16D-04 BMatP= 5.12D-04
 IDIUse=3 WtCom= 9.88D-01 WtEn= 1.25D-02
 Coeff-Com: -0.390D-02-0.186D-01 0.442D+00 0.580D+00
 Coeff-En:   0.000D+00 0.000D+00 0.185D+00 0.815D+00
 Coeff:     -0.386D-02-0.184D-01 0.439D+00 0.583D+00
 Gap=     0.455 Goal=   None    Shift=    0.000
 RMSDP=1.85D-04 MaxDP=4.72D-03 DE=-2.83D-04 OVMax= 3.17D-03

 Cycle   5  Pass 0  IDiag  1:
 E= -178.867023689572     Delta-E=       -0.000189174799 Rises=F Damp=F
 DIIS: error= 8.34D-05 at cycle   5 NSaved=   5.
 NSaved= 5 IEnMin= 5 EnMin= -178.867023689572     IErMin= 5 ErrMin= 8.34D-05
 ErrMax= 8.34D-05  0.00D+00 EMaxC= 1.00D-01 BMatC= 1.11D-06 BMatP= 2.16D-04
 IDIUse=1 WtCom= 1.00D+00 WtEn= 0.00D+00
 Coeff-Com: -0.848D-03-0.176D-02-0.159D-02 0.419D-01 0.962D+00
 Coeff:     -0.848D-03-0.176D-02-0.159D-02 0.419D-01 0.962D+00
 Gap=     0.455 Goal=   None    Shift=    0.000
 RMSDP=3.09D-05 MaxDP=3.93D-04 DE=-1.89D-04 OVMax= 4.16D-04

 Cycle   6  Pass 0  IDiag  1:
 E= -178.867025170328     Delta-E=       -0.000001480755 Rises=F Damp=F
 DIIS: error= 1.90D-05 at cycle   6 NSaved=   6.
 NSaved= 6 IEnMin= 6 EnMin= -178.867025170328     IErMin= 6 ErrMin= 1.90D-05
 ErrMax= 1.90D-05  0.00D+00 EMaxC= 1.00D-01 BMatC= 6.59D-08 BMatP= 1.11D-06
 IDIUse=1 WtCom= 1.00D+00 WtEn= 0.00D+00
 Coeff-Com:  0.779D-04 0.355D-03-0.201D-01-0.219D-01 0.128D+00 0.913D+00
 Coeff:      0.779D-04 0.355D-03-0.201D-01-0.219D-01 0.128D+00 0.913D+00
 Gap=     0.455 Goal=   None    Shift=    0.000
 RMSDP=6.27D-06 MaxDP=7.45D-05 DE=-1.48D-06 OVMax= 1.18D-04

 Initial convergence to 1.0D-05 achieved.  Increase integral accuracy.
 Cycle   7  Pass 1  IDiag  1:
 E= -178.867025437732     Delta-E=       -0.000000267404 Rises=F Damp=F
 DIIS: error= 8.48D-06 at cycle   1 NSaved=   1.
 NSaved= 1 IEnMin= 1 EnMin= -178.867025437732     IErMin= 1 ErrMin= 8.48D-06
 ErrMax= 8.48D-06  0.00D+00 EMaxC= 1.00D-01 BMatC= 8.32D-09 BMatP= 8.32D-09
 IDIUse=1 WtCom= 1.00D+00 WtEn= 0.00D+00
 Coeff-Com:  0.100D+01
 Coeff:      0.100D+01
 Gap=     0.455 Goal=   None    Shift=    0.000
 RMSDP=6.27D-06 MaxDP=7.45D-05 DE=-2.67D-07 OVMax= 4.05D-05

 Cycle   8  Pass 1  IDiag  1:
 E= -178.867025440736     Delta-E=       -0.000000003005 Rises=F Damp=F
 DIIS: error= 7.52D-06 at cycle   2 NSaved=   2.
 NSaved= 2 IEnMin= 2 EnMin= -178.867025440736     IErMin= 2 ErrMin= 7.52D-06
 ErrMax= 7.52D-06  0.00D+00 EMaxC= 1.00D-01 BMatC= 5.94D-09 BMatP= 8.32D-09
 IDIUse=1 WtCom= 1.00D+00 WtEn= 0.00D+00
 Coeff-Com:  0.457D+00 0.543D+00
 Coeff:      0.457D+00 0.543D+00
 Gap=     0.455 Goal=   None    Shift=    0.000
 RMSDP=8.80D-07 MaxDP=2.38D-05 DE=-3.00D-09 OVMax= 1.97D-05

 Cycle   9  Pass 1  IDiag  1:
 E= -178.867025446606     Delta-E=       -0.000000005869 Rises=F Damp=F
 DIIS: error= 9.68D-07 at cycle   3 NSaved=   3.
 NSaved= 3 IEnMin= 3 EnMin= -178.867025446606     IErMin= 3 ErrMin= 9.68D-07
 ErrMax= 9.68D-07  0.00D+00 EMaxC= 1.00D-01 BMatC= 7.43D-11 BMatP= 5.94D-09
 IDIUse=1 WtCom= 1.00D+00 WtEn= 0.00D+00
 Coeff-Com:  0.108D+00 0.159D+00 0.734D+00
 Coeff:      0.108D+00 0.159D+00 0.734D+00
 Gap=     0.455 Goal=   None    Shift=    0.000
 RMSDP=1.19D-07 MaxDP=3.01D-06 DE=-5.87D-09 OVMax= 2.71D-06

 Cycle  10  Pass 1  IDiag  1:
 E= -178.867025446655     Delta-E=       -0.000000000050 Rises=F Damp=F
 DIIS: error= 4.30D-07 at cycle   4 NSaved=   4.
 NSaved= 4 IEnMin= 4 EnMin= -178.867025446655     IErMin= 4 ErrMin= 4.30D-07
 ErrMax= 4.30D-07  0.00D+00 EMaxC= 1.00D-01 BMatC= 2.55D-11 BMatP= 7.43D-11
 IDIUse=1 WtCom= 1.00D+00 WtEn= 0.00D+00
 Coeff-Com: -0.665D-01-0.572D-01 0.375D+00 0.749D+00
 Coeff:     -0.665D-01-0.572D-01 0.375D+00 0.749D+00
 Gap=     0.455 Goal=   None    Shift=    0.000
 RMSDP=6.99D-08 MaxDP=1.16D-06 DE=-4.96D-11 OVMax= 1.51D-06

 Cycle  11  Pass 1  IDiag  1:
 E= -178.867025446677     Delta-E=       -0.000000000022 Rises=F Damp=F
 DIIS: error= 3.01D-08 at cycle   5 NSaved=   5.
 NSaved= 5 IEnMin= 5 EnMin= -178.867025446677     IErMin= 5 ErrMin= 3.01D-08
 ErrMax= 3.01D-08  0.00D+00 EMaxC= 1.00D-01 BMatC= 1.39D-13 BMatP= 2.55D-11
 IDIUse=1 WtCom= 1.00D+00 WtEn= 0.00D+00
 Coeff-Com: -0.105D-01-0.984D-02 0.224D-01 0.980D-01 0.900D+00
 Coeff:     -0.105D-01-0.984D-02 0.224D-01 0.980D-01 0.900D+00
 Gap=     0.455 Goal=   None    Shift=    0.000
 RMSDP=7.95D-09 MaxDP=1.45D-07 DE=-2.17D-11 OVMax= 1.91D-07

 SCF Done:  E(RCAM-B3LYP) =  -178.867025447     A.U. after   11 cycles
            NFock= 11  Conv=0.79D-08     -V/T= 2.0092
 KE= 1.772280417273D+02 PE=-5.789607053165D+02 EE= 1.435354416302D+02
 Leave Link  502 at Mon Mar 21 20:07:40 2022, MaxMem=  8589934592 cpu:              13.4 elap:               1.7
 (Enter /home/sabyasachi/g16/l801.exe)
 DoSCS=F DFT=T ScalE2(SS,OS)=  1.000000  1.000000
 ExpMin= 6.71D-02 ExpMax= 2.89D+03 ExpMxC= 4.35D+02 IAcc=3 IRadAn=         5 AccDes= 0.00D+00
 HarFok:  IExCor=  205 AccDes= 0.00D+00 IRadAn=         5 IDoV=-2 UseB2=F ITyADJ=14
 ICtDFT= 12500011 ScaDFX=  1.000000  1.000000  1.000000  1.000000
 Largest valence mixing into a core orbital is  7.03D-05
 Largest core mixing into a valence orbital is  1.87D-05
 Range of M.O.s used for correlation:     4   103
 NBasis=   103 NAE=    13 NBE=    13 NFC=     3 NFV=     0
 NROrb=    100 NOA=    10 NOB=    10 NVA=    90 NVB=    90

 **** Warning!!: The largest alpha MO coefficient is  0.23701612D+02

 Leave Link  801 at Mon Mar 21 20:07:40 2022, MaxMem=  8589934592 cpu:               0.5 elap:               0.1
 (Enter /home/sabyasachi/g16/l914.exe)
 RHF ground state
 Keep R1, R2, and R3 ints in memory in symmetry-blocked form, NReq=894044380.
 FoFCou: FMM=F IPFlag=           0 FMFlag=           0 FMFlg1=           0
         NFxFlg=           0 DoJE=F BraDBF=F KetDBF=F FulRan=T
         wScrn=  0.000000 ICntrl=       600 IOpCl=  0 I1Cent=           0 NGrid=           0
         NMat0=    1 NMatS0=   5356 NMatT0=    0 NMatD0=    1 NMtDS0=    0 NMtDT0=    0
 Petite list used in FoFCou.
 MDV=  8589934592 DFT=T DoStab=F Mixed=T DoRPA=T DoScal=F NonHer=T
 Making orbital integer symmetry assigments:
 Orbital symmetries:
       Occupied  (A') (A') (A') (A') (A') (A') (A") (A') (A') (A")
                 (A') (A') (A")
       Virtual   (A') (A') (A') (A") (A') (A') (A") (A') (A") (A')
                 (A") (A') (A') (A") (A') (A') (A") (A') (A') (A')
                 (A') (A") (A") (A") (A') (A") (A') (A') (A') (A")
                 (A") (A') (A") (A') (A') (A') (A") (A') (A') (A")
                 (A') (A') (A") (A') (A') (A') (A") (A') (A") (A')
                 (A') (A') (A") (A') (A") (A') (A") (A') (A") (A')
                 (A") (A") (A') (A') (A") (A') (A') (A") (A") (A')
                 (A') (A") (A') (A') (A") (A') (A') (A') (A") (A')
                 (A') (A') (A") (A') (A") (A') (A") (A") (A') (A')
   900 initial guesses have been made.
 Convergence on wavefunction:    0.001000000000000
 Davidson Disk Diagonalization:  ConvIn= 1.00D-03 SkipCon=T Conv= 1.00D-03.
 Max sub-space:  5400 roots to seek:  1800 dimension of matrix:         1800
 *** WARNING: Number of orthogonal guesses is          900
 Iteration     1 Dimension   900 NMult     0 NNew    900
 CISAX will form   900 AO SS matrices at one time.
 NMat=   900 NSing=   900 JSym2X=-1.
 New state      6 was old state      9
 New state      7 was old state      6
 New state      8 was old state      7
 New state      9 was old state     10
 New state     10 was old state      8
 New state     12 was old state     13
 New state     13 was old state     12
 New state     16 was old state     17
 New state     17 was old state     18
 New state     18 was old state     16
 New state     19 was old state     23
 New state     20 was old state     21
 New state     21 was old state     19
 New state     22 was old state     24
 New state     23 was old state     20
 New state     24 was old state     26
 New state     25 was old state     22
 New state     26 was old state     29
 New state     27 was old state     28
 New state     28 was old state     27
 New state     29 was old state     30
 New state     30 was old state     25
 New state     31 was old state     32
 New state     32 was old state     34
 New state     33 was old state     38
 New state     34 was old state     41
 New state     35 was old state     40
 New state     36 was old state     33
 New state     37 was old state     31
 New state     38 was old state     42
 New state     40 was old state     50
 New state     41 was old state     35
 New state     42 was old state     37
 New state     46 was old state     47
 New state     47 was old state     46
 New state     48 was old state     51
 New state     49 was old state     53
 New state     50 was old state     54
 New state     51 was old state     62
 New state     52 was old state     49
 New state     53 was old state     52
 New state     54 was old state     56
 New state     55 was old state     61
 New state     56 was old state     57
 New state     57 was old state     58
 New state     58 was old state     48
 New state     61 was old state     63
 New state     62 was old state     69
 New state     63 was old state     64
 New state     64 was old state     66
 New state     65 was old state     75
 New state     66 was old state     65
 New state     67 was old state     55
 New state     68 was old state     67
 New state     69 was old state     73
 New state     70 was old state     68
 New state     71 was old state     72
 New state     72 was old state     80
 New state     73 was old state     71
 New state     74 was old state     70
 New state     75 was old state     81
 New state     76 was old state     77
 New state     77 was old state     76
 New state     78 was old state     74
 New state     79 was old state     84
 New state     80 was old state     86
 New state     81 was old state     83
 New state     82 was old state     85
 New state     83 was old state     88
 New state     84 was old state     79
 New state     85 was old state     82
 New state     86 was old state     87
 New state     87 was old state     78
 New state     88 was old state    112
 New state     89 was old state     91
 New state     90 was old state     89
 New state     91 was old state     90
 New state     92 was old state     96
 New state     93 was old state     95
 New state     94 was old state     98
 New state     95 was old state     93
 New state     96 was old state     92
 New state     98 was old state     94
 New state    100 was old state    102
 New state    101 was old state    100
 New state    102 was old state    105
 New state    103 was old state    101
 New state    104 was old state    103
 New state    105 was old state    107
 New state    106 was old state    110
 New state    107 was old state    113
 New state    108 was old state    104
 New state    109 was old state    116
 New state    110 was old state    108
 New state    111 was old state    106
 New state    112 was old state    111
 New state    113 was old state    114
 New state    114 was old state    120
 New state    115 was old state    109
 New state    116 was old state    118
 New state    117 was old state    137
 New state    118 was old state    117
 New state    119 was old state    115
 New state    120 was old state    123
 New state    121 was old state    124
 New state    122 was old state    119
 New state    123 was old state    125
 New state    124 was old state    121
 New state    125 was old state    122
 New state    126 was old state    128
 New state    127 was old state    126
 New state    128 was old state    130
 New state    130 was old state    127
 New state    131 was old state    132
 New state    132 was old state    159
 New state    133 was old state    143
 New state    134 was old state    138
 New state    135 was old state    133
 New state    136 was old state    141
 New state    137 was old state    134
 New state    138 was old state    135
 New state    139 was old state    140
 New state    140 was old state    139
 New state    141 was old state    136
 New state    143 was old state    144
 New state    144 was old state    145
 New state    145 was old state    157
 New state    146 was old state    151
 New state    149 was old state    146
 New state    150 was old state    161
 New state    151 was old state    149
 New state    152 was old state    150
 New state    153 was old state    152
 New state    154 was old state    153
 New state    157 was old state    176
 New state    159 was old state    154
 New state    160 was old state    162
 New state    161 was old state    170
 New state    162 was old state    165
 New state    163 was old state    166
 New state    164 was old state    160
 New state    165 was old state    164
 New state    166 was old state    178
 New state    167 was old state    171
 New state    168 was old state    173
 New state    169 was old state    163
 New state    170 was old state    167
 No map to state    171
 New state    173 was old state    174
 New state    174 was old state    168
 New state    175 was old state    169
 New state    176 was old state    184
 New state    177 was old state    183
 New state    178 was old state    181
 New state    179 was old state    180
 New state    180 was old state    179
 New state    181 was old state    175
 New state    182 was old state    177
 New state    183 was old state    185
 New state    184 was old state    182
 New state    185 was old state    188
 New state    186 was old state    190
 New state    187 was old state    186
 New state    188 was old state    196
 New state    190 was old state    193
 New state    192 was old state    187
 New state    193 was old state    192
 New state    194 was old state    198
 New state    195 was old state    194
 New state    196 was old state    205
 New state    198 was old state    195
 New state    202 was old state    212
 New state    203 was old state    204
 New state    204 was old state    213
 New state    205 was old state    208
 New state    206 was old state    202
 New state    207 was old state    203
 New state    208 was old state    218
 New state    209 was old state    206
 New state    210 was old state    225
 New state    211 was old state    209
 New state    212 was old state    220
 New state    213 was old state    219
 New state    214 was old state    216
 New state    215 was old state    214
 New state    216 was old state    223
 New state    218 was old state    210
 New state    219 was old state    211
 New state    220 was old state    226
 New state    221 was old state    232
 New state    222 was old state    230
 New state    223 was old state    221
 New state    224 was old state    222
 New state    225 was old state    233
 New state    226 was old state    234
 New state    227 was old state    229
 New state    228 was old state    231
 New state    229 was old state    244
 New state    230 was old state    243
 New state    231 was old state    227
 New state    232 was old state    228
 New state    233 was old state    246
 New state    234 was old state    248
 New state    235 was old state    240
 New state    236 was old state    241
 New state    237 was old state    236
 New state    238 was old state    239
 New state    239 was old state    237
 New state    240 was old state    235
 New state    241 was old state    247
 New state    242 was old state    238
 New state    243 was old state    250
 New state    244 was old state    245
 New state    245 was old state    253
 New state    246 was old state    249
 New state    247 was old state    251
 New state    248 was old state    242
 New state    249 was old state    256
 New state    250 was old state    252
 New state    251 was old state    263
 New state    252 was old state    262
 New state    253 was old state    257
 New state    254 was old state    255
 New state    255 was old state    259
 New state    256 was old state    224
 New state    257 was old state    254
 New state    258 was old state    264
 New state    259 was old state    258
 New state    260 was old state    261
 New state    261 was old state    267
 New state    262 was old state    265
 New state    263 was old state    260
 New state    264 was old state    271
 New state    265 was old state    266
 New state    266 was old state    277
 New state    267 was old state    268
 New state    268 was old state    270
 New state    270 was old state    272
 New state    271 was old state    273
 New state    272 was old state    279
 New state    273 was old state    278
 New state    275 was old state    280
 New state    277 was old state    275
 New state    278 was old state    286
 New state    279 was old state    283
 New state    280 was old state    284
 New state    282 was old state    288
 New state    283 was old state    282
 New state    284 was old state    287
 New state    285 was old state    298
 New state    286 was old state    289
 New state    287 was old state    291
 New state    288 was old state    285
 New state    289 was old state    299
 New state    291 was old state    302
 New state    292 was old state    296
 New state    293 was old state    295
 New state    294 was old state    293
 New state    295 was old state    297
 New state    296 was old state    294
 New state    297 was old state    301
 New state    298 was old state    303
 New state    299 was old state    292
 New state    301 was old state    310
 New state    302 was old state    304
 New state    303 was old state    309
 New state    304 was old state    306
 New state    305 was old state    317
 New state    306 was old state    312
 New state    307 was old state    308
 New state    308 was old state    305
 New state    309 was old state    311
 New state    310 was old state    315
 New state    311 was old state    313
 New state    312 was old state    307
 New state    313 was old state    354
 New state    315 was old state    316
 New state    316 was old state    322
 New state    317 was old state    342
 New state    318 was old state    327
 New state    319 was old state    318
 New state    320 was old state    319
 New state    322 was old state    320
 New state    323 was old state    329
 New state    324 was old state    328
 New state    325 was old state    326
 New state    326 was old state    323
 New state    327 was old state    325
 New state    328 was old state    324
 New state    329 was old state    332
 New state    330 was old state    338
 New state    331 was old state    330
 New state    332 was old state    340
 New state    333 was old state    335
 New state    334 was old state    331
 New state    335 was old state    344
 New state    336 was old state    337
 New state    337 was old state    333
 New state    338 was old state    334
 New state    339 was old state    336
 New state    340 was old state    346
 New state    341 was old state    339
 New state    342 was old state    347
 New state    344 was old state    345
 New state    345 was old state    341
 New state    346 was old state    348
 New state    347 was old state    352
 New state    348 was old state    351
 New state    350 was old state    359
 New state    351 was old state    355
 New state    352 was old state    361
 New state    353 was old state    350
 New state    354 was old state    364
 New state    355 was old state    358
 New state    356 was old state    357
 New state    357 was old state    353
 New state    358 was old state    372
 New state    359 was old state    363
 New state    360 was old state    370
 New state    361 was old state    365
 New state    362 was old state    356
 New state    363 was old state    362
 New state    364 was old state    360
 New state    365 was old state    368
 New state    366 was old state    373
 New state    367 was old state    366
 New state    368 was old state    369
 New state    369 was old state    367
 New state    370 was old state    376
 New state    371 was old state    377
 New state    372 was old state    384
 New state    373 was old state    371
 New state    374 was old state    386
 New state    376 was old state    374
 New state    377 was old state    395
 New state    378 was old state    380
 New state    379 was old state    387
 New state    380 was old state    378
 New state    381 was old state    394
 New state    382 was old state    385
 New state    383 was old state    379
 New state    384 was old state    392
 New state    385 was old state    382
 New state    386 was old state    390
 New state    387 was old state    383
 New state    388 was old state    396
 New state    389 was old state    388
 New state    390 was old state    393
 New state    392 was old state    381
 New state    393 was old state    397
 New state    394 was old state    401
 New state    395 was old state    419
 New state    396 was old state    404
 New state    397 was old state    389
 New state    398 was old state    406
 New state    399 was old state    411
 New state    400 was old state    412
 New state    401 was old state    400
 New state    402 was old state    417
 New state    403 was old state    413
 New state    404 was old state    405
 New state    405 was old state    407
 New state    406 was old state    431
 New state    407 was old state    402
 New state    408 was old state    416
 New state    409 was old state    398
 New state    410 was old state    403
 New state    411 was old state    410
 New state    412 was old state    414
 New state    413 was old state    408
 New state    414 was old state    399
 New state    415 was old state    409
 New state    416 was old state    428
 New state    417 was old state    421
 New state    418 was old state    434
 New state    419 was old state    418
 New state    420 was old state    415
 New state    421 was old state    427
 New state    422 was old state    420
 New state    424 was old state    430
 New state    425 was old state    426
 New state    426 was old state    435
 New state    427 was old state    432
 New state    428 was old state    422
 New state    429 was old state    433
 New state    430 was old state    425
 New state    431 was old state    438
 New state    432 was old state    424
 New state    433 was old state    445
 New state    434 was old state    442
 New state    435 was old state    429
 New state    437 was old state    443
 New state    438 was old state    440
 New state    440 was old state    461
 New state    441 was old state    437
 New state    442 was old state    444
 New state    443 was old state    441
 New state    444 was old state    448
 New state    445 was old state    447
 New state    446 was old state    454
 New state    447 was old state    446
 New state    448 was old state    450
 New state    449 was old state    452
 New state    450 was old state    468
 New state    451 was old state    449
 New state    452 was old state    451
 New state    454 was old state    459
 New state    455 was old state    456
 New state    456 was old state    455
 No map to state    459
 New state    461 was old state    463
 New state    462 was old state    469
 New state    463 was old state    462
 New state    465 was old state    472
 New state    466 was old state    474
 New state    467 was old state    466
 New state    468 was old state    473
 New state    469 was old state    476
 New state    470 was old state    467
 New state    471 was old state    465
 New state    472 was old state    486
 New state    473 was old state    471
 New state    474 was old state    479
 New state    475 was old state    470
 New state    476 was old state    478
 New state    477 was old state    481
 New state    478 was old state    475
 New state    479 was old state    480
 New state    480 was old state    482
 New state    481 was old state    484
 New state    482 was old state    477
 New state    483 was old state    487
 New state    484 was old state    485
 New state    485 was old state    500
 New state    486 was old state    499
 New state    487 was old state    491
 New state    491 was old state    492
 New state    492 was old state    495
 New state    493 was old state    496
 New state    494 was old state    483
 New state    495 was old state    493
 New state    496 was old state    506
 New state    497 was old state    494
 New state    498 was old state    497
 New state    499 was old state    501
 New state    500 was old state    498
 New state    501 was old state    507
 New state    502 was old state    503
 New state    503 was old state    508
 New state    504 was old state    512
 New state    505 was old state    502
 New state    506 was old state    511
 New state    507 was old state    504
 New state    508 was old state    514
 New state    509 was old state    513
 New state    510 was old state    509
 New state    511 was old state    510
 New state    512 was old state    517
 New state    513 was old state    516
 New state    514 was old state    505
 New state    515 was old state    519
 New state    516 was old state    518
 New state    517 was old state    520
 New state    518 was old state    515
 New state    519 was old state    523
 New state    520 was old state    522
 New state    521 was old state    526
 New state    522 was old state    521
 New state    523 was old state    527
 New state    526 was old state    529
 New state    527 was old state    528
 No map to state    528
 New state    529 was old state    532
 New state    530 was old state    534
 New state    532 was old state    530
 New state    534 was old state    535
 No map to state    535
 New state    536 was old state    537
 New state    537 was old state    536
 New state    540 was old state    543
 New state    541 was old state    540
 New state    543 was old state    541
 New state    544 was old state    545
 New state    545 was old state    544
 New state    546 was old state    548
 New state    548 was old state    546
 New state    549 was old state    551
 New state    551 was old state    549
 New state    552 was old state    554
 New state    554 was old state    556
 New state    556 was old state    552
 New state    558 was old state    559
 New state    559 was old state    569
 New state    560 was old state    558
 New state    561 was old state    562
 New state    562 was old state    564
 New state    563 was old state    560
 New state    564 was old state    567
 New state    565 was old state    561
 New state    567 was old state    565
 New state    568 was old state    570
 New state    569 was old state    568
 New state    570 was old state    563
 New state    571 was old state    573
 New state    572 was old state    575
 New state    573 was old state    574
 New state    574 was old state    571
 New state    575 was old state    576
 New state    576 was old state    572
 New state    577 was old state    579
 New state    579 was old state    580
 New state    580 was old state    582
 New state    582 was old state    586
 New state    585 was old state    587
 New state    586 was old state    585
 New state    587 was old state    591
 New state    588 was old state    589
 New state    589 was old state    592
 New state    590 was old state    600
 New state    591 was old state    588
 New state    592 was old state    599
 New state    593 was old state    590
 New state    594 was old state    596
 New state    595 was old state    598
 New state    596 was old state    597
 New state    597 was old state    593
 New state    598 was old state    602
 New state    599 was old state    601
 New state    600 was old state    605
 New state    601 was old state    594
 New state    602 was old state    604
 New state    603 was old state    606
 No map to state    604
 New state    605 was old state    595
 New state    606 was old state    607
 New state    607 was old state    603
 New state    609 was old state    610
 New state    610 was old state    609
 New state    611 was old state    612
 New state    612 was old state    611
 New state    613 was old state    614
 New state    614 was old state    615
 New state    615 was old state    613
 New state    616 was old state    618
 New state    617 was old state    616
 New state    618 was old state    617
 New state    619 was old state    623
 New state    620 was old state    621
 New state    621 was old state    622
 New state    622 was old state    630
 New state    623 was old state    625
 New state    624 was old state    634
 New state    625 was old state    628
 New state    626 was old state    624
 New state    628 was old state    631
 New state    629 was old state    632
 New state    630 was old state    636
 New state    631 was old state    629
 New state    632 was old state    633
 New state    633 was old state    619
 New state    634 was old state    620
 New state    635 was old state    642
 New state    636 was old state    635
 New state    639 was old state    641
 New state    641 was old state    645
 New state    642 was old state    639
 New state    643 was old state    646
 New state    645 was old state    648
 New state    646 was old state    643
 New state    648 was old state    651
 New state    650 was old state    652
 New state    651 was old state    654
 New state    652 was old state    650
 New state    653 was old state    657
 New state    654 was old state    653
 New state    655 was old state    658
 New state    656 was old state    667
 New state    657 was old state    655
 New state    658 was old state    656
 New state    659 was old state    662
 New state    660 was old state    661
 New state    661 was old state    659
 New state    662 was old state    660
 New state    663 was old state    666
 New state    664 was old state    663
 New state    665 was old state    664
 New state    666 was old state    665
 New state    667 was old state    668
 New state    668 was old state    670
 New state    669 was old state    678
 New state    670 was old state    671
 New state    671 was old state    673
 New state    673 was old state    674
 New state    674 was old state    675
 New state    675 was old state    679
 New state    676 was old state    669
 New state    678 was old state    676
 New state    679 was old state    680
 New state    680 was old state    682
 New state    682 was old state    683
 New state    683 was old state    684
 New state    684 was old state    685
 New state    685 was old state    686
 New state    686 was old state    687
 New state    687 was old state    688
 New state    688 was old state    689
 New state    689 was old state    690
 New state    690 was old state    694
 New state    693 was old state    695
 New state    694 was old state    693
 New state    695 was old state    697
 New state    696 was old state    699
 New state    697 was old state    696
 New state    699 was old state    702
 New state    702 was old state    703
 New state    703 was old state    704
 New state    704 was old state    712
 New state    705 was old state    706
 New state    706 was old state    707
 New state    707 was old state    708
 New state    708 was old state    705
 New state    711 was old state    713
 New state    712 was old state    716
 New state    713 was old state    714
 New state    714 was old state    715
 New state    715 was old state    711
 New state    716 was old state    722
 New state    717 was old state    719
 New state    718 was old state    717
 New state    719 was old state    720
 New state    720 was old state    721
 New state    721 was old state    723
 New state    722 was old state    718
 No map to state    723
 New state    724 was old state    727
 New state    725 was old state    724
 New state    727 was old state    728
 New state    728 was old state    731
 New state    729 was old state    736
 New state    730 was old state    725
 New state    731 was old state    730
 New state    732 was old state    729
 New state    733 was old state    732
 New state    734 was old state    733
 New state    736 was old state    740
 New state    737 was old state    738
 New state    738 was old state    737
 New state    740 was old state    741
 New state    741 was old state    742
 New state    742 was old state    734
 New state    743 was old state    746
 New state    744 was old state    743
 New state    745 was old state    747
 New state    746 was old state    748
 New state    747 was old state    744
 New state    748 was old state    745
 New state    749 was old state    750
 New state    750 was old state    751
 New state    751 was old state    749
 New state    754 was old state    755
 New state    755 was old state    757
 New state    757 was old state    754
 New state    758 was old state    759
 New state    759 was old state    763
 New state    760 was old state    758
 New state    761 was old state    760
 New state    762 was old state    764
 New state    763 was old state    762
 New state    764 was old state    761
 New state    766 was old state    767
 New state    767 was old state    766
 New state    770 was old state    771
 New state    771 was old state    770
 New state    772 was old state    773
 New state    773 was old state    772
 New state    774 was old state    775
 New state    775 was old state    774
 New state    776 was old state    777
 New state    777 was old state    776
 New state    779 was old state    780
 New state    780 was old state    784
 New state    781 was old state    782
 New state    782 was old state    785
 New state    784 was old state    779
 New state    785 was old state    786
 New state    786 was old state    781
 New state    789 was old state    790
 New state    790 was old state    791
 New state    791 was old state    789
 New state    793 was old state    794
 New state    794 was old state    793
 New state    801 was old state    803
 New state    802 was old state    801
 New state    803 was old state    802
 New state    804 was old state    805
 New state    805 was old state    806
 New state    806 was old state    810
 New state    807 was old state    804
 New state    808 was old state    809
 New state    809 was old state    807
 New state    810 was old state    811
 New state    811 was old state    808
 New state    812 was old state    814
 New state    813 was old state    817
 New state    814 was old state    813
 New state    815 was old state    816
 New state    816 was old state    812
 New state    817 was old state    815
 New state    820 was old state    821
 New state    821 was old state    820
 New state    824 was old state    825
 New state    825 was old state    824
 New state    826 was old state    829
 New state    827 was old state    826
 New state    829 was old state    827
 New state    830 was old state    831
 New state    831 was old state    830
 New state    833 was old state    834
 New state    834 was old state    833
 New state    835 was old state    836
 New state    836 was old state    835
 New state    837 was old state    844
 New state    838 was old state    843
 New state    839 was old state    838
 New state    840 was old state    837
 New state    841 was old state    839
 New state    843 was old state    841
 New state    844 was old state    853
 New state    845 was old state    840
 New state    846 was old state    852
 New state    847 was old state    855
 New state    848 was old state    846
 New state    849 was old state    848
 New state    850 was old state    849
 New state    851 was old state    845
 New state    852 was old state    850
 New state    853 was old state    854
 New state    854 was old state    847
 New state    855 was old state    851
 New state    856 was old state    858
 New state    858 was old state    859
 New state    859 was old state    856
 New state    860 was old state    864
 New state    861 was old state    866
 New state    862 was old state    865
 New state    863 was old state    867
 New state    864 was old state    863
 New state    865 was old state    861
 New state    866 was old state    868
 New state    867 was old state    862
 New state    868 was old state    860
 New state    869 was old state    872
 New state    870 was old state    874
 New state    871 was old state    870
 New state    872 was old state    869
 New state    873 was old state    871
 New state    874 was old state    875
 New state    875 was old state    876
 New state    876 was old state    873
 New state    878 was old state    879
 New state    879 was old state    878
 New state    888 was old state    890
 New state    890 was old state    888
 New state    892 was old state    893
 New state    893 was old state    892
 New state    897 was old state    898
 New state    898 was old state    899
 New state    899 was old state    897
 Excitation Energies [eV] at current iteration:
 Root      1 :     9.044626711939156
 Root      2 :     9.396058687826493
 Root      3 :     9.862708694567576
 Root      4 :    10.163750659314580
 Root      5 :    10.296747063694950
 Root      6 :    10.582831907551340
 Root      7 :    10.691146882615110
 Root      8 :    10.724371542559690
 Root      9 :    10.881780393470600
 Root     10 :    10.998944287788750
 Root     11 :    11.403153466255430
 Root     12 :    11.587535781754730
 Root     13 :    11.743212297062270
 Root     14 :    11.748593463536950
 Root     15 :    11.794519175605660
 Root     16 :    11.870442353693540
 Root     17 :    11.986082728070090
 Root     18 :    12.025066736372310
 Root     19 :    12.268757504034430
 Root     20 :    12.329095159096360
 Root     21 :    12.336477427204870
 Root     22 :    12.458158870672410
 Root     23 :    12.568099738937630
 Root     24 :    12.595252191915850
 Root     25 :    12.719093929690530
 Root     26 :    12.889102970405960
 Root     27 :    12.932455452456360
 Root     28 :    12.945482249069860
 Root     29 :    13.059005384929720
 Root     30 :    13.081696485598700
 Root     31 :    13.212912198533850
 Root     32 :    13.256190180636820
 Root     33 :    13.384871916652810
 Root     34 :    13.443348723261920
 Root     35 :    13.490010983151620
 Root     36 :    13.518862547294700
 Root     37 :    13.656259652654110
 Root     38 :    13.774370919562590
 Root     39 :    13.809258416753050
 Root     40 :    13.858342509234540
 Root     41 :    13.862614055118650
 Root     42 :    13.906636590366890
 Root     43 :    14.042395344686070
 Root     44 :    14.142522225432680
 Root     45 :    14.227327348963040
 Root     46 :    14.241106718499490
 Root     47 :    14.271092443606380
 Root     48 :    14.553728481283730
 Root     49 :    14.602705164383850
 Root     50 :    14.645273393129490
 Root     51 :    14.681215042550010
 Root     52 :    14.763901477838210
 Root     53 :    14.940015785742690
 Root     54 :    14.960677246108890
 Root     55 :    15.004019306829880
 Root     56 :    15.005975306513350
 Root     57 :    15.116824636589100
 Root     58 :    15.130606976317600
 Root     59 :    15.187171738493680
 Root     60 :    15.224378676922150
 Root     61 :    15.272155034079890
 Root     62 :    15.331840174649680
 Root     63 :    15.389584764858330
 Root     64 :    15.426795006701790
 Root     65 :    15.529344870834630
 Root     66 :    15.533401879073870
 Root     67 :    15.641902962672630
 Root     68 :    15.707062275732400
 Root     69 :    15.744437229883720
 Root     70 :    16.028216912715280
 Root     71 :    16.028794528240530
 Root     72 :    16.151344299225870
 Root     73 :    16.195868470443570
 Root     74 :    16.244796741573280
 Root     75 :    16.338101284183850
 Root     76 :    16.352831160687460
 Root     77 :    16.423718463818200
 Root     78 :    16.454664347927610
 Root     79 :    16.522633797745740
 Root     80 :    16.566542872611130
 Root     81 :    16.622534168799590
 Root     82 :    16.684007847561640
 Root     83 :    16.684860818488380
 Root     84 :    16.708384678435210
 Root     85 :    16.729709433247250
 Root     86 :    16.785686759431000
 Root     87 :    16.839610182754430
 Root     88 :    16.893525707486700
 Root     89 :    17.116601439783270
 Root     90 :    17.146018358644960
 Root     91 :    17.190731113034900
 Root     92 :    17.255871932062000
 Root     93 :    17.271075057236220
 Root     94 :    17.374128071262590
 Root     95 :    17.551050528790520
 Root     96 :    17.603916292106850
 Root     97 :    17.671359413363450
 Root     98 :    17.688617479249730
 Root     99 :    17.702679797953930
 Root    100 :    17.725063219254130
 Root    101 :    17.796579555542540
 Root    102 :    17.819250785787720
 Root    103 :    17.859833395776190
 Root    104 :    17.902832484225140
 Root    105 :    17.995835075191420
 Root    106 :    18.030003838097430
 Root    107 :    18.098577197623790
 Root    108 :    18.109299662774760
 Root    109 :    18.113629811449660
 Root    110 :    18.191756273700640
 Root    111 :    18.214032098211790
 Root    112 :    18.247623369374200
 Root    113 :    18.282950884960190
 Root    114 :    18.345636282109240
 Root    115 :    18.360949850435760
 Root    116 :    18.397599263474440
 Root    117 :    18.424307297903010
 Root    118 :    18.504438559324220
 Root    119 :    18.541404162381890
 Root    120 :    18.587231224586240
 Root    121 :    18.671767547587010
 Root    122 :    18.723276230769110
 Root    123 :    18.787776644786950
 Root    124 :    18.844710579709740
 Root    125 :    18.910473892740130
 Root    126 :    18.944229500832270
 Root    127 :    18.978605079025070
 Root    128 :    19.006923198657010
 Root    129 :    19.090001438745360
 Root    130 :    19.128867478446410
 Root    131 :    19.258883719167810
 Root    132 :    19.290329000441770
 Root    133 :    19.434133257343880
 Root    134 :    19.465608158167480
 Root    135 :    19.520921707938620
 Root    136 :    19.526929443245730
 Root    137 :    19.538169211410790
 Root    138 :    19.565869037325780
 Root    139 :    19.609627313566590
 Root    140 :    19.613529968184530
 Root    141 :    19.638638992671780
 Root    142 :    19.677114816773080
 Root    143 :    19.809450043295830
 Root    144 :    19.819861715005070
 Root    145 :    19.837085836454660
 Root    146 :    19.918345198018770
 Root    147 :    19.933037888098350
 Root    148 :    20.049046924019260
 Root    149 :    20.053743226088170
 Root    150 :    20.105234009934960
 Root    151 :    20.163487460827350
 Root    152 :    20.190124453023830
 Root    153 :    20.190244397020660
 Root    154 :    20.297213846507610
 Root    155 :    20.395854936992450
 Root    156 :    20.404445555567300
 Root    157 :    20.423692516541170
 Root    158 :    20.548903835485770
 Root    159 :    20.574936789186310
 Root    160 :    20.644534315706760
 Root    161 :    20.669577419667470
 Root    162 :    20.700412986333220
 Root    163 :    20.726516670705270
 Root    164 :    20.805063707623330
 Root    165 :    20.808739584093510
 Root    166 :    20.917675218065180
 Root    167 :    20.928523230934160
 Root    168 :    21.020893100890170
 Root    169 :    21.058470782576070
 Root    170 :    21.089722071194020
 Root    171 :    21.097458557480250
 Root    172 :    21.154737435040640
 Root    173 :    21.163526465670580
 Root    174 :    21.278085216021090
 Root    175 :    21.323311477109590
 Root    176 :    21.365330393890940
 Root    177 :    21.403634519299500
 Root    178 :    21.454286691846280
 Root    179 :    21.480508205034900
 Root    180 :    21.487541725800670
 Root    181 :    21.491959819882400
 Root    182 :    21.617037729706180
 Root    183 :    21.630292523179610
 Root    184 :    21.695607937388800
 Root    185 :    21.749550530954140
 Root    186 :    21.784684970068330
 Root    187 :    21.807414673481030
 Root    188 :    21.843577551723150
 Root    189 :    21.877015382352720
 Root    190 :    22.014726272262060
 Root    191 :    22.016951116755580
 Root    192 :    22.075357086207390
 Root    193 :    22.170863784379840
 Root    194 :    22.188683120074480
 Root    195 :    22.206264574598440
 Root    196 :    22.280598597122450
 Root    197 :    22.333848628058610
 Root    198 :    22.383771585192240
 Root    199 :    22.410616600106050
 Root    200 :    22.410690518802480
 Root    201 :    22.483454667048300
 Root    202 :    22.508200824715360
 Root    203 :    22.517853189754960
 Root    204 :    22.543374001404540
 Root    205 :    22.577687590633470
 Root    206 :    22.639435267717510
 Root    207 :    22.645567859994510
 Root    208 :    22.725835678726950
 Root    209 :    22.770502564271630
 Root    210 :    22.794390264458140
 Root    211 :    22.880750024381270
 Root    212 :    22.885151345763050
 Root    213 :    22.907149884509850
 Root    214 :    22.957643147655200
 Root    215 :    22.974245751149150
 Root    216 :    23.002685252869600
 Root    217 :    23.010730488347360
 Root    218 :    23.019547210334470
 Root    219 :    23.084415430258440
 Root    220 :    23.093854384526350
 Root    221 :    23.108681461671760
 Root    222 :    23.151762557953720
 Root    223 :    23.224307274928660
 Root    224 :    23.239216792575080
 Root    225 :    23.312619860516500
 Root    226 :    23.359130392881310
 Root    227 :    23.450345842627030
 Root    228 :    23.453083999320730
 Root    229 :    23.542151032810980
 Root    230 :    23.544928336902220
 Root    231 :    23.629554925935580
 Root    232 :    23.632967987461430
 Root    233 :    23.674168729136250
 Root    234 :    23.679610683994750
 Root    235 :    23.719921882821160
 Root    236 :    23.723410464210020
 Root    237 :    23.769930041244980
 Root    238 :    23.850322954087470
 Root    239 :    23.873639423052620
 Root    240 :    23.920110088696410
 Root    241 :    23.964638902743360
 Root    242 :    24.008102858813160
 Root    243 :    24.072617892765600
 Root    244 :    24.148939122154010
 Root    245 :    24.149545019427750
 Root    246 :    24.275173406022320
 Root    247 :    24.321534802566770
 Root    248 :    24.383230633834920
 Root    249 :    24.383722162745230
 Root    250 :    24.439240728671550
 Root    251 :    24.571257187721780
 Root    252 :    24.585591402350310
 Root    253 :    24.648775781893980
 Root    254 :    24.725506988630690
 Root    255 :    24.762822618537700
 Root    256 :    24.762912298997210
 Root    257 :    24.836145708473710
 Root    258 :    24.938983440745210
 Root    259 :    25.047906515503180
 Root    260 :    25.149467088987810
 Root    261 :    25.227254855751880
 Root    262 :    25.251159203166590
 Root    263 :    25.283766805785580
 Root    264 :    25.345986383946240
 Root    265 :    25.386148000640810
 Root    266 :    25.408567165517440
 Root    267 :    25.461833773516460
 Root    268 :    25.513993111365030
 Root    269 :    25.639227654866720
 Root    270 :    25.691575306890470
 Root    271 :    25.692546372675400
 Root    272 :    25.702058134801050
 Root    273 :    25.739276796273850
 Root    274 :    25.839897330270860
 Root    275 :    25.897062317655880
 Root    276 :    25.946398869726120
 Root    277 :    26.112663674716740
 Root    278 :    26.226801472994500
 Root    279 :    26.250534007361850
 Root    280 :    26.308729016959540
 Root    281 :    26.312367395067600
 Root    282 :    26.412996431244460
 Root    283 :    26.453611383718420
 Root    284 :    26.479045714871180
 Root    285 :    26.506026226547730
 Root    286 :    26.541325421130520
 Root    287 :    26.641572920577850
 Root    288 :    26.708296178045010
 Root    289 :    26.735691793749930
 Root    290 :    26.826449704329150
 Root    291 :    26.859226860903540
 Root    292 :    26.945787184655650
 Root    293 :    27.052357759882610
 Root    294 :    27.144592405541100
 Root    295 :    27.157910454012240
 Root    296 :    27.159948126368470
 Root    297 :    27.248712806404530
 Root    298 :    27.264157970094550
 Root    299 :    27.386720796250590
 Root    300 :    27.480926212886820
 Root    301 :    27.591619020981380
 Root    302 :    27.643260204649740
 Root    303 :    27.670995808312600
 Root    304 :    27.714370387602140
 Root    305 :    27.812698235636350
 Root    306 :    27.851717953747710
 Root    307 :    28.114167430047600
 Root    308 :    28.229175572487550
 Root    309 :    28.325739726801360
 Root    310 :    28.447749925373290
 Root    311 :    28.509852913018830
 Root    312 :    28.525257842656800
 Root    313 :    28.580636405316270
 Root    314 :    28.659282213128960
 Root    315 :    28.842671632234540
 Root    316 :    28.942140141316240
 Root    317 :    29.138886364656840
 Root    318 :    29.379926439235630
 Root    319 :    29.524276924736880
 Root    320 :    29.593737528192720
 Root    321 :    29.706456140848840
 Root    322 :    29.719456945799530
 Root    323 :    29.835973327878380
 Root    324 :    29.891940755344880
 Root    325 :    29.969464247622670
 Root    326 :    30.002860275270750
 Root    327 :    30.008286733737140
 Root    328 :    30.044280058781990
 Root    329 :    30.104380415165590
 Root    330 :    30.163687268351680
 Root    331 :    30.279600050048510
 Root    332 :    30.300968683984680
 Root    333 :    30.588173158491930
 Root    334 :    30.647844394130540
 Root    335 :    30.779821410314170
 Root    336 :    30.788938337684060
 Root    337 :    30.837794456917570
 Root    338 :    30.914824821399890
 Root    339 :    30.945160367901010
 Root    340 :    30.962010560991980
 Root    341 :    31.011570225788750
 Root    342 :    31.065570732033010
 Root    343 :    31.195207027329850
 Root    344 :    31.345328205211730
 Root    345 :    31.449543020786770
 Root    346 :    31.585412758425960
 Root    347 :    31.657041731440480
 Root    348 :    31.767426477318690
 Root    349 :    31.786489977161490
 Root    350 :    31.942261365893000
 Root    351 :    31.965004477406260
 Root    352 :    32.019424391548110
 Root    353 :    32.128913990132540
 Root    354 :    32.183210954093230
 Root    355 :    32.260746630388500
 Root    356 :    32.302965778410100
 Root    357 :    32.526163038628790
 Root    358 :    32.567604231433410
 Root    359 :    32.647752985181360
 Root    360 :    32.810761462093180
 Root    361 :    32.823138643892070
 Root    362 :    32.856185008395890
 Root    363 :    32.883273283093020
 Root    364 :    32.984556593692280
 Root    365 :    33.006314471141790
 Root    366 :    33.026104722947940
 Root    367 :    33.075227494225120
 Root    368 :    33.103216143708020
 Root    369 :    33.243770869334960
 Root    370 :    33.336807375987370
 Root    371 :    33.342593010378390
 Root    372 :    33.498791161286230
 Root    373 :    33.636655780765380
 Root    374 :    33.679053859763490
 Root    375 :    33.748405106471890
 Root    376 :    33.766295541578290
 Root    377 :    33.821391809200510
 Root    378 :    33.841002227750370
 Root    379 :    34.013129286852350
 Root    380 :    34.061615706071540
 Root    381 :    34.162899415222260
 Root    382 :    34.240006330257390
 Root    383 :    34.308744407731050
 Root    384 :    34.314643584662450
 Root    385 :    34.496861160823260
 Root    386 :    34.529743548741120
 Root    387 :    34.576891205816790
 Root    388 :    34.662539318625110
 Root    389 :    34.758832571517520
 Root    390 :    34.817139850979740
 Root    391 :    34.817565497523430
 Root    392 :    34.836965634117870
 Root    393 :    34.881660938124910
 Root    394 :    34.898009449495870
 Root    395 :    34.929878673022000
 Root    396 :    35.034218342926390
 Root    397 :    35.134298486756690
 Root    398 :    35.134925177829060
 Root    399 :    35.285184193996830
 Root    400 :    35.347221205499590
 Root    401 :    35.360624838366650
 Root    402 :    35.459980095996500
 Root    403 :    35.460340349375720
 Root    404 :    35.505754759617920
 Root    405 :    35.609144241860310
 Root    406 :    35.666366455845730
 Root    407 :    35.668711276760480
 Root    408 :    35.689562616141390
 Root    409 :    35.779428399761610
 Root    410 :    35.888700575719730
 Root    411 :    35.985066552494860
 Root    412 :    35.986026837212180
 Root    413 :    36.058414332412090
 Root    414 :    36.105474735583240
 Root    415 :    36.137110120451460
 Root    416 :    36.273137703907330
 Root    417 :    36.323831870972680
 Root    418 :    36.449266569237040
 Root    419 :    36.648165042252830
 Root    420 :    36.651398646229560
 Root    421 :    36.878850412350840
 Root    422 :    36.903239060935330
 Root    423 :    36.970285969808230
 Root    424 :    36.976930865154840
 Root    425 :    36.984122896270290
 Root    426 :    37.092045112147550
 Root    427 :    37.245864252810370
 Root    428 :    37.313725594514840
 Root    429 :    37.393506763399490
 Root    430 :    37.475705184536780
 Root    431 :    37.494383326757760
 Root    432 :    37.592244064810020
 Root    433 :    37.758129322286510
 Root    434 :    37.859889195407500
 Root    435 :    38.055757054497680
 Root    436 :    38.121555947650630
 Root    437 :    38.212085696670950
 Root    438 :    38.242490289034420
 Root    439 :    38.345310042841670
 Root    440 :    38.374983626203220
 Root    441 :    38.441741744830100
 Root    442 :    38.514844304080920
 Root    443 :    38.557633859860350
 Root    444 :    38.652717790031290
 Root    445 :    38.705283549258820
 Root    446 :    38.885783951064240
 Root    447 :    39.065901199001340
 Root    448 :    39.234376466057160
 Root    449 :    39.296746084996450
 Root    450 :    39.437545605611690
 Root    451 :    39.524254375736460
 Root    452 :    39.545364348754130
 Root    453 :    39.565731491291300
 Root    454 :    39.709079052682580
 Root    455 :    39.737543182824250
 Root    456 :    39.889005314563000
 Root    457 :    39.897475920521790
 Root    458 :    40.028885275553990
 Root    459 :    40.071894311556700
 Root    460 :    40.126553269646720
 Root    461 :    40.196837189491080
 Root    462 :    40.285606381573650
 Root    463 :    40.413947093944990
 Root    464 :    40.473180787637570
 Root    465 :    40.543453593106100
 Root    466 :    40.652323699370220
 Root    467 :    40.900005761033680
 Root    468 :    40.905956737929510
 Root    469 :    40.949346521614000
 Root    470 :    40.951261719652390
 Root    471 :    41.032023985616710
 Root    472 :    41.098143395028200
 Root    473 :    41.109354745861720
 Root    474 :    41.333382865727250
 Root    475 :    41.531052536303700
 Root    476 :    41.609945712562310
 Root    477 :    41.615251158604230
 Root    478 :    41.842128893049730
 Root    479 :    41.876315620310190
 Root    480 :    41.963377755007240
 Root    481 :    42.103398721547760
 Root    482 :    42.172671066173240
 Root    483 :    42.231299265671930
 Root    484 :    42.249939094677260
 Root    485 :    42.391780562457360
 Root    486 :    42.497251651511330
 Root    487 :    42.574167712363400
 Root    488 :    42.617498948325360
 Root    489 :    42.663251254791520
 Root    490 :    42.716753460727720
 Root    491 :    42.793802926433810
 Root    492 :    42.863477273750000
 Root    493 :    42.874631221710960
 Root    494 :    42.945738590986060
 Root    495 :    42.996313255097980
 Root    496 :    43.069387126213140
 Root    497 :    43.138952071994790
 Root    498 :    43.424343622232090
 Root    499 :    43.479458581913470
 Root    500 :    43.572535520016490
 Root    501 :    43.795816019602370
 Root    502 :    43.860488057360890
 Root    503 :    44.146228936530580
 Root    504 :    44.163159687736740
 Root    505 :    44.238228733050180
 Root    506 :    44.312744294821210
 Root    507 :    44.313405727623250
 Root    508 :    44.459990515231260
 Root    509 :    44.544521994451230
 Root    510 :    44.709110450288190
 Root    511 :    44.870469171713680
 Root    512 :    44.872076574748040
 Root    513 :    44.993487273920330
 Root    514 :    45.137264452313550
 Root    515 :    45.322261543362510
 Root    516 :    45.472231604604320
 Root    517 :    45.507337452148360
 Root    518 :    45.554796401491500
 Root    519 :    45.657617010429920
 Root    520 :    45.967725738486170
 Root    521 :    46.012637197896840
 Root    522 :    46.193210904131800
 Root    523 :    46.355053597778060
 Root    524 :    46.515427177372000
 Root    525 :    46.673418457613830
 Root    526 :    46.720103689824330
 Root    527 :    46.722741512987590
 Root    528 :    47.008145514427120
 Root    529 :    47.104173044323570
 Root    530 :    47.109957239442370
 Root    531 :    47.308038956155920
 Root    532 :    47.390832836177540
 Root    533 :    47.408158372725910
 Root    534 :    47.736988022862490
 Root    535 :    49.109695327009330
 Root    536 :    50.028451531974100
 Root    537 :    50.061610649433390
 Root    538 :    50.361081133509000
 Root    539 :    50.417178391271550
 Root    540 :    50.542261867807580
 Root    541 :    50.644110728737860
 Root    542 :    50.883175461295920
 Root    543 :    50.935961602240540
 Root    544 :    51.155242807012700
 Root    545 :    51.236181106767550
 Root    546 :    51.628686239364620
 Root    547 :    51.834826137548390
 Root    548 :    51.943178675509360
 Root    549 :    52.050241284436090
 Root    550 :    52.254230011589880
 Root    551 :    52.423631746495440
 Root    552 :    52.490059407826710
 Root    553 :    52.689329051697400
 Root    554 :    52.781477175670890
 Root    555 :    52.788432680421050
 Root    556 :    52.826930310508510
 Root    557 :    53.069883349362630
 Root    558 :    53.145056595054570
 Root    559 :    53.349789525463960
 Root    560 :    53.575718521598870
 Root    561 :    53.731805189671190
 Root    562 :    53.803707374730120
 Root    563 :    53.888492552709050
 Root    564 :    54.018092622763040
 Root    565 :    54.200092739030190
 Root    566 :    54.319197826708680
 Root    567 :    54.345201895209290
 Root    568 :    54.423640452774200
 Root    569 :    54.495351455476920
 Root    570 :    54.621751084875800
 Root    571 :    55.007740488334250
 Root    572 :    55.065355533908710
 Root    573 :    55.170938018470550
 Root    574 :    55.222422272146680
 Root    575 :    55.338517725522390
 Root    576 :    55.418631696833440
 Root    577 :    55.668654975234150
 Root    578 :    55.672554229601350
 Root    579 :    55.795476318505570
 Root    580 :    55.906723965409460
 Root    581 :    56.000400230885340
 Root    582 :    56.482669932126410
 Root    583 :    56.588696820049980
 Root    584 :    56.594197955694330
 Root    585 :    56.666274846839360
 Root    586 :    56.771917560859100
 Root    587 :    56.809354456882490
 Root    588 :    56.862477999786760
 Root    589 :    56.956705626083870
 Root    590 :    57.208596781594790
 Root    591 :    57.710400674102520
 Root    592 :    58.014661776256300
 Root    593 :    58.171869270481400
 Root    594 :    58.471599203304190
 Root    595 :    58.500080147311210
 Root    596 :    58.506065740469940
 Root    597 :    58.651551975810880
 Root    598 :    58.824871878798750
 Root    599 :    58.843421025046090
 Root    600 :    59.005195599377560
 Root    601 :    59.045728293900130
 Root    602 :    59.082151536730520
 Root    603 :    59.207937509661790
 Root    604 :    59.271947984987330
 Root    605 :    59.357263338702840
 Root    606 :    59.414131181018540
 Root    607 :    59.646293781944490
 Root    608 :    59.846261805175820
 Root    609 :    60.004926736052670
 Root    610 :    60.218885831331780
 Root    611 :    60.221204063016400
 Root    612 :    60.349587398415360
 Root    613 :    60.414131528812720
 Root    614 :    60.525478148193190
 Root    615 :    60.598030985364570
 Root    616 :    60.990019472650220
 Root    617 :    61.320103570933480
 Root    618 :    61.480661866677820
 Root    619 :    61.640903513738800
 Root    620 :    61.667917654213980
 Root    621 :    61.822538508918820
 Root    622 :    61.899107366154710
 Root    623 :    62.029273740089580
 Root    624 :    62.063321211394980
 Root    625 :    62.138960645140740
 Root    626 :    62.144910626887340
 Root    627 :    62.299207793351210
 Root    628 :    62.385109452645860
 Root    629 :    62.412160915543770
 Root    630 :    62.493532709498990
 Root    631 :    62.608307366946810
 Root    632 :    62.662180640207290
 Root    633 :    62.705997219249530
 Root    634 :    62.754329669455810
 Root    635 :    62.834918376298290
 Root    636 :    62.850136250393580
 Root    637 :    62.984446775837210
 Root    638 :    63.119716076271350
 Root    639 :    63.189657476358970
 Root    640 :    63.329850602657310
 Root    641 :    63.342361086432860
 Root    642 :    63.532305332979670
 Root    643 :    63.596091852130650
 Root    644 :    63.638112661932860
 Root    645 :    63.942517244932730
 Root    646 :    63.974986565200660
 Root    647 :    64.081281559592040
 Root    648 :    64.178593389811100
 Root    649 :    64.304757764342230
 Root    650 :    64.495583250806630
 Root    651 :    64.525330291164290
[...]
     15   0.000000D+00  0.122644D+00 -0.396360D+00  0.000000D+00  0.000000D+00
     16   0.000000D+00  0.126582D-01 -0.956595D-01  0.000000D+00  0.000000D+00
               831           832           833           834           835 
      1  -0.175291D+03 -0.175284D+03 -0.175271D+03 -0.175269D+03 -0.175244D+03
      2   0.000000D+00  0.228276D-01  0.252172D-01  0.000000D+00  0.000000D+00
      3   0.000000D+00 -0.138814D-01  0.195850D-01  0.000000D+00  0.000000D+00
      4  -0.230643D-01  0.000000D+00  0.000000D+00 -0.232407D-01  0.634381D-01
      5   0.000000D+00 -0.137993D+00 -0.629069D-01  0.000000D+00  0.000000D+00
      6   0.000000D+00  0.546818D-01 -0.659779D-01  0.000000D+00  0.000000D+00
      7   0.116495D+00  0.000000D+00  0.000000D+00  0.693880D-01 -0.172860D+00
      8  -0.902149D-01  0.000000D+00  0.000000D+00  0.114127D+00 -0.166808D-01
      9  -0.312799D+00  0.000000D+00  0.000000D+00 -0.196036D+00 -0.304563D+00
     10   0.000000D+00  0.502893D-02 -0.179769D+00  0.000000D+00  0.000000D+00
     11   0.000000D+00 -0.573927D+00 -0.296908D+00  0.000000D+00  0.000000D+00
     12   0.000000D+00  0.728482D+00 -0.446843D+00  0.000000D+00  0.000000D+00
     13   0.000000D+00  0.828641D+00 -0.161771D+00  0.000000D+00  0.000000D+00
     14   0.000000D+00  0.342919D+00 -0.215846D+00  0.000000D+00  0.000000D+00
     15   0.491206D+00  0.000000D+00  0.000000D+00  0.170393D+00  0.360189D+00
     16  -0.174125D+00  0.000000D+00  0.000000D+00  0.187744D+00 -0.537356D-01
               836           837           838           839           840 
      1  -0.175237D+03 -0.175211D+03 -0.175210D+03 -0.175201D+03 -0.175182D+03
      2  -0.393288D-01  0.000000D+00  0.780348D-03 -0.706054D-01  0.154553D-01
      3   0.275581D-03  0.000000D+00 -0.403511D-02  0.121846D-01 -0.128820D-01
      4   0.000000D+00  0.799897D-02  0.000000D+00  0.000000D+00  0.000000D+00
      5   0.155737D+00  0.000000D+00 -0.124891D-01  0.183831D+00 -0.541067D-01
      6  -0.425733D-01  0.000000D+00  0.123734D-01 -0.522243D-01  0.515918D-01
      7   0.000000D+00 -0.244024D-01  0.000000D+00  0.000000D+00  0.000000D+00
      8   0.000000D+00  0.235472D-02  0.000000D+00  0.000000D+00  0.000000D+00
      9   0.000000D+00  0.575102D-01  0.000000D+00  0.000000D+00  0.000000D+00
     10  -0.217735D+00  0.000000D+00  0.116712D+00  0.306174D+00  0.145456D+00
     11   0.453904D+00  0.000000D+00 -0.285179D+00 -0.353306D+00 -0.181059D+00
     12  -0.131979D+00  0.000000D+00  0.427872D-01  0.414304D+00  0.601492D-01
     13  -0.494655D+00  0.000000D+00 -0.741063D-02 -0.923500D-01  0.151081D+00
     14  -0.494239D+00  0.000000D+00  0.136214D+00  0.649634D-01  0.161592D+00
     15   0.000000D+00 -0.572859D-01  0.000000D+00  0.000000D+00  0.000000D+00
     16   0.000000D+00 -0.212910D-02  0.000000D+00  0.000000D+00  0.000000D+00
               841           842           843           844           845 
      1  -0.175179D+03 -0.175167D+03 -0.175123D+03 -0.175123D+03 -0.175122D+03
      2   0.110080D-01  0.000000D+00  0.768737D-01  0.000000D+00  0.000000D+00
      3   0.454356D-01  0.000000D+00  0.141368D+00  0.000000D+00  0.000000D+00
      4   0.000000D+00  0.358667D-01  0.000000D+00 -0.146656D+00  0.108772D+00
      5  -0.104857D-01  0.000000D+00 -0.250185D+00  0.000000D+00  0.000000D+00
      6  -0.102656D+00  0.000000D+00 -0.467596D+00  0.000000D+00  0.000000D+00
      7   0.000000D+00 -0.120929D+00  0.000000D+00  0.495468D+00 -0.374520D+00
      8   0.000000D+00  0.309293D+00  0.000000D+00  0.295028D-02 -0.202199D-01
      9   0.000000D+00 -0.235847D+00  0.000000D+00 -0.111288D+01  0.898897D+00
     10   0.242860D+00  0.000000D+00 -0.880252D+00  0.000000D+00  0.000000D+00
     11   0.235417D+00  0.000000D+00 -0.112289D+01  0.000000D+00  0.000000D+00
     12   0.815471D-01  0.000000D+00 -0.161321D-02  0.000000D+00  0.000000D+00
     13   0.238716D-01  0.000000D+00  0.418323D-01  0.000000D+00  0.000000D+00
     14   0.355244D+00  0.000000D+00 -0.849760D+00  0.000000D+00  0.000000D+00
     15   0.000000D+00  0.245222D+00  0.000000D+00  0.109371D+01 -0.854317D+00
     16   0.000000D+00  0.798539D-01  0.000000D+00 -0.275240D-01 -0.799385D-01
               846           847           848           849           850 
      1  -0.175111D+03 -0.175105D+03 -0.175102D+03 -0.175089D+03 -0.175087D+03
      2   0.440945D-01  0.000000D+00  0.000000D+00 -0.253006D-02  0.000000D+00
      3   0.135614D+00  0.000000D+00  0.000000D+00  0.452546D-01  0.000000D+00
      4   0.000000D+00 -0.239802D-01 -0.835938D-01  0.000000D+00  0.669625D-02
      5  -0.149688D+00  0.000000D+00  0.000000D+00  0.596211D-02  0.000000D+00
      6  -0.456258D+00  0.000000D+00  0.000000D+00 -0.157552D+00  0.000000D+00
      7   0.000000D+00  0.874741D-01  0.278172D+00  0.000000D+00 -0.203394D-01
      8   0.000000D+00  0.653522D-01 -0.127886D+00  0.000000D+00  0.474812D-01
      9   0.000000D+00 -0.332955D+00 -0.356183D+00  0.000000D+00  0.353958D-01
     10  -0.979376D+00  0.000000D+00  0.000000D+00 -0.171892D+00  0.000000D+00
     11  -0.405152D+00  0.000000D+00  0.000000D+00 -0.186811D+00  0.000000D+00
     12  -0.932843D-01  0.000000D+00  0.000000D+00  0.123516D+00  0.000000D+00
     13  -0.114112D-01  0.000000D+00  0.000000D+00 -0.945751D-01  0.000000D+00
     14  -0.890037D+00  0.000000D+00  0.000000D+00 -0.215528D+00  0.000000D+00
     15   0.000000D+00  0.319957D+00  0.231586D+00  0.000000D+00 -0.104094D+00
     16   0.000000D+00  0.973739D-01 -0.318864D-01  0.000000D+00 -0.103626D-01
               851           852           853           854           855 
      1  -0.175082D+03 -0.175069D+03 -0.175069D+03 -0.175067D+03 -0.175066D+03
      2   0.000000D+00  0.000000D+00  0.214190D-02  0.172256D-01  0.407112D-01
      3   0.000000D+00  0.000000D+00 -0.867385D-01 -0.227634D-01  0.215960D-01
      4   0.163396D-01  0.804526D-01  0.000000D+00  0.000000D+00  0.000000D+00
      5   0.000000D+00  0.000000D+00 -0.429164D-03 -0.704579D-01 -0.136101D+00
      6   0.000000D+00  0.000000D+00  0.266045D+00  0.555391D-01 -0.917898D-01
      7  -0.375908D-01 -0.268617D+00  0.000000D+00  0.000000D+00  0.000000D+00
      8  -0.606961D-01  0.846121D-02  0.000000D+00  0.000000D+00  0.000000D+00
      9  -0.500112D-01  0.648397D+00  0.000000D+00  0.000000D+00  0.000000D+00
     10   0.000000D+00  0.000000D+00  0.117425D-01 -0.242440D+00 -0.666307D+00
     11   0.000000D+00  0.000000D+00  0.418021D+00 -0.945418D-01 -0.229531D-01
     12   0.000000D+00  0.000000D+00 -0.187653D+00  0.516916D-01 -0.142416D+00
     13   0.000000D+00  0.000000D+00  0.532022D-01  0.181144D+00  0.681700D-01
     14   0.000000D+00  0.000000D+00  0.158506D+00 -0.177685D+00 -0.557280D+00
     15   0.111318D+00 -0.569844D+00  0.000000D+00  0.000000D+00  0.000000D+00
     16  -0.928979D-01 -0.289388D-01  0.000000D+00  0.000000D+00  0.000000D+00
               856           857           858           859           860 
      1  -0.175043D+03 -0.175036D+03 -0.175023D+03 -0.175017D+03 -0.175000D+03
      2   0.000000D+00 -0.334798D-01  0.000000D+00 -0.125866D+00  0.721724D-02
      3   0.000000D+00 -0.111736D+00  0.000000D+00  0.429142D-01 -0.133347D-01
      4   0.521679D-01  0.000000D+00 -0.115102D+00  0.000000D+00  0.000000D+00
      5   0.000000D+00  0.111228D+00  0.000000D+00  0.423296D+00 -0.247830D-01
      6   0.000000D+00  0.365000D+00  0.000000D+00 -0.148361D+00  0.403397D-01
      7  -0.170465D+00  0.000000D+00  0.345032D+00  0.000000D+00  0.000000D+00
      8   0.366193D-01  0.000000D+00 -0.225142D-02  0.000000D+00  0.000000D+00
      9   0.556397D+00  0.000000D+00  0.173322D+00  0.000000D+00  0.000000D+00
     10   0.000000D+00  0.861415D+00  0.000000D+00 -0.263747D+00  0.110127D-01
     11   0.000000D+00  0.380801D+00  0.000000D+00  0.234486D+01  0.339881D-01
     12   0.000000D+00 -0.224749D-01  0.000000D+00  0.129954D+00  0.183102D+00
     13   0.000000D+00  0.221093D-01  0.000000D+00 -0.682812D-01 -0.902974D-01
     14   0.000000D+00  0.772800D+00  0.000000D+00 -0.644104D+00  0.654418D-01
     15  -0.438422D+00  0.000000D+00 -0.171379D+00  0.000000D+00  0.000000D+00
     16   0.241272D-01  0.000000D+00  0.266713D-01  0.000000D+00  0.000000D+00
               861           862           863           864           865 
      1  -0.174999D+03 -0.174984D+03 -0.174981D+03 -0.174981D+03 -0.174974D+03
      2   0.000000D+00  0.000000D+00  0.133592D-01  0.000000D+00 -0.983748D-01
      3   0.000000D+00  0.000000D+00  0.147145D-01  0.000000D+00  0.712018D-01
      4  -0.185578D-01  0.206176D-01  0.000000D+00  0.225310D-01  0.000000D+00
      5   0.000000D+00  0.000000D+00 -0.559306D-01  0.000000D+00  0.351743D+00
      6   0.000000D+00  0.000000D+00 -0.541018D-01  0.000000D+00 -0.245675D+00
      7   0.617713D-01 -0.824367D-01  0.000000D+00 -0.809316D-01  0.000000D+00
      8   0.248674D-01 -0.169381D-02  0.000000D+00  0.247032D-01  0.000000D+00
      9  -0.767351D-01  0.297910D+00  0.000000D+00  0.141368D+00  0.000000D+00
     10   0.000000D+00  0.000000D+00 -0.816559D-01  0.000000D+00 -0.278007D+00
     11   0.000000D+00  0.000000D+00 -0.197249D+00  0.000000D+00  0.183971D+01
     12   0.000000D+00  0.000000D+00  0.143917D-01  0.000000D+00  0.240498D+00
     13   0.000000D+00  0.000000D+00 -0.170048D-01  0.000000D+00  0.335378D-02
     14   0.000000D+00  0.000000D+00 -0.795416D-01  0.000000D+00 -0.615797D+00
     15   0.792596D-01 -0.338211D+00  0.000000D+00 -0.126295D+00  0.000000D+00
     16  -0.819261D-01  0.140730D-01  0.000000D+00 -0.377934D-01  0.000000D+00
               866           867           868           869           870 
      1  -0.174972D+03 -0.174934D+03 -0.174931D+03 -0.174912D+03 -0.174887D+03
      2   0.000000D+00  0.177668D+00  0.000000D+00 -0.253503D-01  0.000000D+00
      3   0.000000D+00  0.218538D-01  0.000000D+00  0.125372D+00  0.000000D+00
      4  -0.353618D-01  0.000000D+00 -0.118172D+00  0.000000D+00 -0.232581D-01
      5   0.000000D+00 -0.617397D+00  0.000000D+00  0.872429D-01  0.000000D+00
      6   0.000000D+00 -0.700407D-01  0.000000D+00 -0.440456D+00  0.000000D+00
      7   0.108852D+00  0.000000D+00  0.395015D+00  0.000000D+00  0.853000D-01
      8   0.317571D-01  0.000000D+00 -0.666622D-01  0.000000D+00 -0.159947D-01
      9  -0.279398D+00  0.000000D+00 -0.917777D+00  0.000000D+00 -0.259005D+00
     10   0.000000D+00 -0.278390D+00  0.000000D+00 -0.966223D+00  0.000000D+00
     11   0.000000D+00 -0.263180D+01  0.000000D+00  0.862416D+00  0.000000D+00
     12   0.000000D+00 -0.718755D-01  0.000000D+00  0.134118D+00  0.000000D+00
     13   0.000000D+00  0.515203D-02  0.000000D+00  0.778129D-02  0.000000D+00
     14   0.000000D+00  0.668996D-01  0.000000D+00 -0.934946D+00  0.000000D+00
     15   0.183352D+00  0.000000D+00  0.888589D+00  0.000000D+00  0.188849D+00
     16   0.796124D-01  0.000000D+00 -0.550986D-01  0.000000D+00  0.319406D-01
               871           872           873           874           875 
      1  -0.174881D+03 -0.174874D+03 -0.174848D+03 -0.174844D+03 -0.174835D+03
      2  -0.336674D-01  0.193760D+00  0.000000D+00 -0.108441D+00  0.000000D+00
      3   0.193276D-01 -0.176353D+00  0.000000D+00 -0.130544D+00  0.000000D+00
      4   0.000000D+00  0.000000D+00 -0.299434D+00  0.000000D+00 -0.173093D+00
      5   0.123555D+00 -0.687567D+00  0.000000D+00  0.386133D+00  0.000000D+00
      6  -0.607791D-01  0.626100D+00  0.000000D+00  0.460741D+00  0.000000D+00
      7   0.000000D+00  0.000000D+00  0.105477D+01  0.000000D+00  0.600030D+00
      8   0.000000D+00  0.000000D+00 -0.250797D+00  0.000000D+00 -0.996725D-01
      9   0.000000D+00  0.000000D+00 -0.246274D+01  0.000000D+00 -0.137127D+01
     10   0.129522D-01  0.140561D+01  0.000000D+00  0.115930D+01  0.000000D+00
     11   0.685498D+00 -0.324345D+01  0.000000D+00  0.200265D+01  0.000000D+00
     12  -0.236814D+00 -0.279694D+00  0.000000D+00 -0.113383D+00  0.000000D+00
     13  -0.388774D-01 -0.109367D+00  0.000000D+00 -0.113509D+00  0.000000D+00
     14  -0.522282D-01  0.164267D+01  0.000000D+00  0.116585D+01  0.000000D+00
     15   0.000000D+00  0.000000D+00  0.260029D+01  0.000000D+00  0.133752D+01
     16   0.000000D+00  0.000000D+00 -0.214400D+00  0.000000D+00 -0.262955D+00
               876           877           878           879           880 
      1  -0.174826D+03 -0.174756D+03 -0.174742D+03 -0.174739D+03 -0.174687D+03
      2   0.162523D+00  0.000000D+00 -0.926529D-02  0.182530D-01  0.391584D-02
      3   0.233392D+00  0.000000D+00  0.168068D-01  0.534614D-01  0.148199D-02
      4   0.000000D+00 -0.690353D-01  0.000000D+00  0.000000D+00  0.000000D+00
      5  -0.567807D+00  0.000000D+00  0.223069D-01 -0.610602D-01 -0.199287D-01
      6  -0.815470D+00  0.000000D+00 -0.662653D-01 -0.174818D+00 -0.758192D-02
      7   0.000000D+00  0.233425D+00  0.000000D+00  0.000000D+00  0.000000D+00
      8   0.000000D+00 -0.393571D-01  0.000000D+00  0.000000D+00  0.000000D+00
      9   0.000000D+00 -0.531637D+00  0.000000D+00  0.000000D+00  0.000000D+00
     10  -0.207151D+01  0.000000D+00 -0.222900D+00 -0.276396D+00 -0.861110D-01
     11  -0.287294D+01  0.000000D+00 -0.133592D+00 -0.177596D+00 -0.584418D-01
     12   0.537226D+00  0.000000D+00  0.273630D+00 -0.414833D-01  0.131434D+00
     13  -0.113154D+00  0.000000D+00 -0.767020D-01  0.906410D-01 -0.142868D+00
     14  -0.189799D+01  0.000000D+00 -0.232140D+00 -0.290142D+00 -0.225107D-01
     15   0.000000D+00  0.715085D+00  0.000000D+00  0.000000D+00  0.000000D+00
     16   0.000000D+00 -0.113684D+00  0.000000D+00  0.000000D+00  0.000000D+00
               881           882           883           884           885 
      1  -0.174686D+03 -0.174683D+03 -0.174654D+03 -0.174646D+03 -0.174609D+03
      2   0.000000D+00  0.000000D+00  0.000000D+00 -0.153957D+00  0.841370D-02
      3   0.000000D+00  0.000000D+00  0.000000D+00 -0.318043D+00 -0.762971D-03
      4  -0.433809D-01  0.188633D-01 -0.323470D+00  0.000000D+00  0.000000D+00
      5   0.000000D+00  0.000000D+00  0.000000D+00  0.570973D+00 -0.278655D-01
      6   0.000000D+00  0.000000D+00  0.000000D+00  0.117149D+01  0.514905D-02
      7   0.151665D+00 -0.709635D-01  0.119169D+01  0.000000D+00  0.000000D+00
      8   0.476969D-01 -0.449418D-01 -0.127862D+00  0.000000D+00  0.000000D+00
      9  -0.200071D+00  0.875073D-01 -0.252158D+01  0.000000D+00  0.000000D+00
     10   0.000000D+00  0.000000D+00  0.000000D+00  0.257912D+01 -0.694613D-01
     11   0.000000D+00  0.000000D+00  0.000000D+00  0.271554D+01  0.843525D-01
     12   0.000000D+00  0.000000D+00  0.000000D+00 -0.364734D+00 -0.304635D-01
     13   0.000000D+00  0.000000D+00  0.000000D+00 -0.410933D-01 -0.178689D+00
     14   0.000000D+00  0.000000D+00  0.000000D+00  0.253753D+01  0.654468D-01
     15   0.140778D+00 -0.926179D-01  0.265933D+01  0.000000D+00  0.000000D+00
     16  -0.199946D+00  0.722071D-01 -0.231783D+00  0.000000D+00  0.000000D+00
               886           887           888           889           890 
      1  -0.174607D+03 -0.174592D+03 -0.174581D+03 -0.174578D+03 -0.174570D+03
      2   0.000000D+00  0.276497D-01  0.000000D+00  0.000000D+00  0.738772D-03
      3   0.000000D+00  0.437017D-01  0.000000D+00  0.000000D+00 -0.179924D+00
      4  -0.208798D-01  0.000000D+00  0.131205D+00 -0.215063D+00  0.000000D+00
      5   0.000000D+00 -0.960586D-01  0.000000D+00  0.000000D+00 -0.288128D-01
      6   0.000000D+00 -0.153692D+00  0.000000D+00  0.000000D+00  0.693895D+00
      7   0.718043D-01  0.000000D+00 -0.498764D+00  0.793638D+00  0.000000D+00
      8   0.455179D-01  0.000000D+00  0.151647D+00 -0.101015D+00  0.000000D+00
      9  -0.129216D+00  0.000000D+00  0.132008D+01 -0.173616D+01  0.000000D+00
     10   0.000000D+00 -0.234517D+00  0.000000D+00  0.000000D+00  0.161100D+01
     11   0.000000D+00 -0.477312D+00  0.000000D+00  0.000000D+00  0.281882D+00
     12   0.000000D+00  0.802725D-01  0.000000D+00  0.000000D+00 -0.530623D+00
     13   0.000000D+00 -0.261312D-01  0.000000D+00  0.000000D+00  0.377278D-01
     14   0.000000D+00 -0.342124D+00  0.000000D+00  0.000000D+00  0.173807D+01
     15   0.219765D+00  0.000000D+00 -0.156930D+01  0.183396D+01  0.000000D+00
     16  -0.211143D-01  0.000000D+00  0.171741D+00 -0.181450D+00  0.000000D+00
               891           892           893           894           895 
      1  -0.174539D+03 -0.174504D+03 -0.174468D+03 -0.174353D+03 -0.174350D+03
      2  -0.198851D+00  0.000000D+00  0.284774D+00  0.106449D+00  0.271509D-01
      3  -0.746379D-01  0.000000D+00 -0.177390D+00 -0.461055D-01 -0.423121D-03
      4   0.000000D+00  0.101901D+00  0.000000D+00  0.000000D+00  0.000000D+00
      5   0.773195D+00  0.000000D+00 -0.116037D+01 -0.504720D+00 -0.122117D+00
      6   0.274897D+00  0.000000D+00  0.720353D+00  0.228388D+00  0.983333D-02
      7   0.000000D+00 -0.399494D+00  0.000000D+00  0.000000D+00  0.000000D+00
      8   0.000000D+00  0.149665D+00  0.000000D+00  0.000000D+00  0.000000D+00
      9   0.000000D+00  0.104190D+01  0.000000D+00  0.000000D+00  0.000000D+00
     10   0.895655D+00  0.000000D+00  0.149947D+01  0.401798D+00 -0.298618D-01
     11   0.359136D+01  0.000000D+00 -0.510464D+01 -0.303924D+01 -0.773344D+00
     12  -0.371778D+00  0.000000D+00 -0.231839D+00 -0.517209D-01 -0.641426D+00
     13   0.355051D-01  0.000000D+00  0.479636D-01 -0.191587D-01  0.703908D+00
     14   0.784936D+00  0.000000D+00  0.177858D+01  0.111222D+01 -0.145050D+00
     15   0.000000D+00 -0.120478D+01  0.000000D+00  0.000000D+00  0.000000D+00
     16   0.000000D+00  0.220529D+00  0.000000D+00  0.000000D+00  0.000000D+00
               896           897           898           899           900 
      1  -0.174347D+03 -0.174262D+03 -0.174245D+03 -0.174214D+03 -0.173871D+03
      2   0.000000D+00  0.000000D+00  0.299055D-01 -0.344372D-02  0.287545D-01
      3   0.000000D+00  0.000000D+00  0.590663D-01 -0.490514D-03 -0.974801D-02
      4  -0.120010D-02 -0.726039D-01  0.000000D+00  0.000000D+00  0.000000D+00
      5   0.000000D+00  0.000000D+00 -0.117469D+00 -0.357774D-01 -0.203414D+00
      6   0.000000D+00  0.000000D+00 -0.233090D+00  0.290091D-01  0.841338D-01
      7   0.149359D-02  0.283435D+00  0.000000D+00  0.000000D+00  0.000000D+00
      8   0.220210D-01 -0.417480D-01  0.000000D+00  0.000000D+00  0.000000D+00
      9   0.314233D-01 -0.632425D+00  0.000000D+00  0.000000D+00  0.000000D+00
     10   0.000000D+00  0.000000D+00 -0.538811D+00  0.139792D+00  0.169388D+00
     11   0.000000D+00  0.000000D+00 -0.116087D+00 -0.879895D+00 -0.613060D+00
     12   0.000000D+00  0.000000D+00 -0.265147D+00 -0.188833D+00 -0.716298D-01
     13   0.000000D+00  0.000000D+00 -0.782145D-01  0.901884D-01 -0.172584D+00
     14   0.000000D+00  0.000000D+00 -0.161176D+00  0.479492D+00 -0.226146D-01
     15   0.314501D+00  0.165373D+00  0.000000D+00  0.000000D+00  0.000000D+00
     16   0.640787D+00  0.229176D+00  0.000000D+00  0.000000D+00  0.000000D+00
 Unable to Open any file for archive entry.
 1\1\GINC-HEL12\SP\RCAM-B3LYP TD-FC\Gen\C2H5F1\SABYASACHI\21-Mar-2022\0
 \\#P TD(Nstates=10000) cam-b3lyp/Gen SCF(maxcycles=100) Int(Grid=ultra
 fine)\\xGDB7_00001_tier4.com\\0,1\C,0,-1.122844,-0.45232,0.\C,0,0.,0.5
 53997,0.\F,0,1.225284,-0.098236,0.\H,0,-2.083314,0.066805,0.\H,0,-1.07
 2796,-1.085651,0.886148\H,0,-1.072796,-1.085651,-0.886148\H,0,-0.03079
 4,1.189278,0.888716\H,0,-0.030794,1.189278,-0.888716\\Version=EM64L-G1
 6RevC.01\State=1-A'\HF=-178.8670254\RMSD=7.950e-09\PG=CS [SG(C2H1F1),X
 (H4)]\\@
 The archive entry for this job was punched.


 NO SCIENCE HAS EVER MADE MORE RAPID PROGRESS IN A
 SHORTER TIME THAN CHEMISTRY.
   -- MARTIN HEINRICH KLOPROTH, 1791
 (FIRST PROFESSOR OF CHEMISTRY AT THE UNIVERSITY OF BERLIN)
 Job cpu time:       0 days  0 hours  9 minutes 22.6 seconds.
 Elapsed time:       0 days  0 hours  1 minutes 10.6 seconds.
 File lengths (MBytes):  RWF=   1039 Int=      0 D2E=      0 Chk=    234 Scr=      1
 Normal termination of Gaussian 16 at Mon Mar 21 20:08:49 2022.
