 Entering Gaussian System, Link 0=g16
 Input=000027.com
 Output=000027.log
 Initial command:
 /home/sabyasachi/g16/l1.exe "/scratch/sabyasachi/PBS_7976293.helios/Gau-107942.inp" -scrdir="/scratch/sabyasachi/PBS_7976293.helios/"
 Entering Link 1 = /home/sabyasachi/g16/l1.exe PID=    107943.
  
 Copyright (c) 1988-2019, Gaussian, Inc.  All Rights Reserved.
  
 This is part of the Gaussian(R) 16 program.  It is based on
 the Gaussian(R) 09 system (copyright 2009, Gaussian, Inc.),
 the Gaussian(R) 03 system (copyright 2003, Gaussian, Inc.),
 the Gaussian(R) 98 system (copyright 1998, Gaussian, Inc.),
 the Gaussian(R) 94 system (copyright 1995, Gaussian, Inc.),
 the Gaussian 92(TM) system (copyright 1992, Gaussian, Inc.),
 the Gaussian 90(TM) system (copyright 1990, Gaussian, Inc.),
 the Gaussian 88(TM) system (copyright 1988, Gaussian, Inc.),
 the Gaussian 86(TM) system (copyright 1986, Carnegie Mellon
 University), and the Gaussian 82(TM) system (copyright 1983,
 Carnegie Mellon University). Gaussian is a federally registered
 trademark of Gaussian, Inc.
  
 This software contains proprietary and confidential information,
 including trade secrets, belonging to Gaussian, Inc.
  
 This software is provided under written license and may be
 used, copied, transmitted, or stored only in accord with that
 written license.
  
 The following legend is applicable only to US Government
 contracts under FAR:
  
                    RESTRICTED RIGHTS LEGEND
  
 Use, reproduction and disclosure by the US Government is
 subject to restrictions as set forth in subparagraphs (a)
 and (c) of the Commercial Computer Software - Restricted
 Rights clause in FAR 52.227-19.
  
 Gaussian, Inc.
 340 Quinnipiac St., Bldg. 40, Wallingford CT 06492
  
  
 ---------------------------------------------------------------
 Warning -- This program may not be used in any manner that
 competes with the business of Gaussian, Inc. or will provide
 assistance to any competitor of Gaussian, Inc.  The licensee
 of this program is prohibited from giving any competitor of
 Gaussian, Inc. access to this program.  By using this program,
 the user acknowledges that Gaussian, Inc. is engaged in the
 business of creating and licensing software in the field of
 computational chemistry and represents and warrants to the
 licensee that it is not a competitor of Gaussian, Inc. and that
 it will not use this program in any manner prohibited above.
 ---------------------------------------------------------------
  

 Cite this work as:
 Gaussian 16, Revision C.01,
 M. J. Frisch, G. W. Trucks, H. B. Schlegel, G. E. Scuseria, 
 M. A. Robb, J. R. Cheeseman, G. Scalmani, V. Barone, 
 G. A. Petersson, H. Nakatsuji, X. Li, M. Caricato, A. V. Marenich, 
 J. Bloino, B. G. Janesko, R. Gomperts, B. Mennucci, H. P. Hratchian, 
 J. V. Ortiz, A. F. Izmaylov, J. L. Sonnenberg, D. Williams-Young, 
 F. Ding, F. Lipparini, F. Egidi, J. Goings, B. Peng, A. Petrone, 
 T. Henderson, D. Ranasinghe, V. G. Zakrzewski, J. Gao, N. Rega, 
 G. Zheng, W. Liang, M. Hada, M. Ehara, K. Toyota, R. Fukuda, 
 J. Hasegawa, M. Ishida, T. Nakajima, Y. Honda, O. Kitao, H. Nakai, 
 T. Vreven, K. Throssell, J. A. Montgomery, Jr., J. E. Peralta, 
 F. Ogliaro, M. J. Bearpark, J. J. Heyd, E. N. Brothers, K. N. Kudin, 
 V. N. Staroverov, T. A. Keith, R. Kobayashi, J. Normand, 
 K. Raghavachari, A. P. Rendell, J. C. Burant, S. S. Iyengar, 
 J. Tomasi, M. Cossi, J. M. Millam, M. Klene, C. Adamo, R. Cammi, 
 J. W. Ochterski, R. L. Martin, K. Morokuma, O. Farkas, 
 J. B. Foresman, and D. J. Fox, Gaussian, Inc., Wallingford CT, 2019.
 
 ******************************************
 Gaussian 16:  EM64L-G16RevC.01  3-Jul-2019
                21-Mar-2022 
 ******************************************
 %mem=64gb
 %nproc=8
 Will use up to    8 processors via shared memory.
 ----------------------------------------------------------------------
 #P TD(Nstates=10000) cam-b3lyp/Gen SCF(maxcycles=100) Int(Grid=ultrafi
 ne)
 ----------------------------------------------------------------------
 1/38=1,172=1/1;
 2/12=2,17=6,18=5,40=1/2;
 3/5=7,11=9,25=1,30=1,74=-40,75=-5/1,2,3,8;
 4//1;
 5/5=2,7=100,38=5/2;
 8/6=1,10=1,108=10000/1;
 9/41=10000,42=1,70=2/14;
 6/7=2,8=2,9=2,10=2/1;
 99/5=1,9=1/99;
 Leave Link    1 at Mon Mar 21 04:12:42 2022, MaxMem=  8589934592 cpu:               0.4 elap:               0.1
 (Enter /home/sabyasachi/g16/l101.exe)
 ---------------------
 xGDB7_00001_tier4.com
 ---------------------
 Symbolic Z-matrix:
 Charge =  0 Multiplicity = 1
 9                    -1.13972  -0.26973   0. 
 6                     0.        0.43028   0. 
 6                     1.18085  -0.14876   0. 
 1                    -0.18045   1.49833   0. 
 1                     1.28363  -1.22517   0. 
 1                     2.06922   0.46524   0. 
 
 ITRead=  0  0  0  0  0  0
 MicOpt= -1 -1 -1 -1 -1 -1
 NAtoms=      6 NQM=        6 NQMF=       0 NMMI=      0 NMMIF=      0
                NMic=       0 NMicF=      0.
                    Isotopes and Nuclear Properties:
 (Nuclear quadrupole moments (NQMom) in fm**2, nuclear magnetic moments (NMagM)
  in nuclear magnetons)

  Atom         1           2           3           4           5           6
 IAtWgt=          19          12          12           1           1           1
 AtmWgt=  18.9984033  12.0000000  12.0000000   1.0078250   1.0078250   1.0078250
 NucSpn=           1           0           0           1           1           1
 AtZEff=  -0.0000000  -0.0000000  -0.0000000  -0.0000000  -0.0000000  -0.0000000
 NQMom=    0.0000000   0.0000000   0.0000000   0.0000000   0.0000000   0.0000000
 NMagM=    2.6288670   0.0000000   0.0000000   2.7928460   2.7928460   2.7928460
 AtZNuc=   9.0000000   6.0000000   6.0000000   1.0000000   1.0000000   1.0000000
 Leave Link  101 at Mon Mar 21 04:12:43 2022, MaxMem=  8589934592 cpu:               0.6 elap:               0.1
 (Enter /home/sabyasachi/g16/l202.exe)
                          Input orientation:                          
 ---------------------------------------------------------------------
 Center     Atomic      Atomic             Coordinates (Angstroms)
 Number     Number       Type             X           Y           Z
 ---------------------------------------------------------------------
      1          9           0       -1.139724   -0.269725    0.000000
      2          6           0        0.000000    0.430281    0.000000
      3          6           0        1.180852   -0.148760    0.000000
      4          1           0       -0.180450    1.498331    0.000000
      5          1           0        1.283634   -1.225170    0.000000
      6          1           0        2.069222    0.465238    0.000000
 ---------------------------------------------------------------------
                    Distance matrix (angstroms):
                    1          2          3          4          5
     1  F    0.000000
     2  C    1.337527   0.000000
     3  C    2.323727   1.315181   0.000000
     4  H    2.011524   1.083187   2.136832   0.000000
     5  H    2.604907   2.094811   1.081306   3.092087   0.000000
     6  H    3.292037   2.069517   1.079905   2.475541   1.864035
                    6
     6  H    0.000000
 Stoichiometry    C2H3F
 Framework group  CS[SG(C2H3F)]
 Deg. of freedom     9
 Full point group                 CS      NOp   2
 Largest Abelian subgroup         CS      NOp   2
 Largest concise Abelian subgroup C1      NOp   1
                         Standard orientation:                         
 ---------------------------------------------------------------------
 Center     Atomic      Atomic             Coordinates (Angstroms)
 Number     Number       Type             X           Y           Z
 ---------------------------------------------------------------------
      1          9           0       -1.139724   -0.269725    0.000000
      2          6           0        0.000000    0.430281    0.000000
      3          6           0        1.180852   -0.148760    0.000000
      4          1           0       -0.180450    1.498331    0.000000
      5          1           0        1.283634   -1.225170    0.000000
      6          1           0        2.069222    0.465238    0.000000
 ---------------------------------------------------------------------
 Rotational constants (GHZ):          66.0732883          10.7041900           9.2118294
 Leave Link  202 at Mon Mar 21 04:12:43 2022, MaxMem=  8589934592 cpu:               0.1 elap:               0.0
 (Enter /home/sabyasachi/g16/l301.exe)
 General basis read from cards:  (5D, 7F)
 Centers:       4      5      6
 S 3 1.00
     Exponent=  1.3010701000D+01 Coefficients=  1.9682158000D-02
     Exponent=  1.9622572000D+00 Coefficients=  1.3796524000D-01
     Exponent=  4.4453796000D-01 Coefficients=  4.7831935000D-01
 S 1 1.00
     Exponent=  1.2194962000D-01 Coefficients=  1.0000000000D+00
 P 1 1.00
     Exponent=  8.0000000000D-01 Coefficients=  1.0000000000D+00
 P 1 1.00
     Exponent=  1.1704099050D-01 Coefficients=  1.0000000000D+00
 ****
 Centers:       2      3
 S 5 1.00
     Exponent=  1.2384016938D+03 Coefficients=  5.4568832082D-03
     Exponent=  1.8629004992D+02 Coefficients=  4.0638409211D-02
     Exponent=  4.2251176346D+01 Coefficients=  1.8025593888D-01
     Exponent=  1.1676557932D+01 Coefficients=  4.6315121755D-01
     Exponent=  3.5930506482D+00 Coefficients=  4.4087173314D-01
 S 1 1.00
     Exponent=  4.0245147363D-01 Coefficients=  1.0000000000D+00
 S 1 1.00
     Exponent=  1.3090182668D-01 Coefficients=  1.0000000000D+00
 S 1 1.00
     Exponent=  6.7053540256D-02 Coefficients=  1.0000000000D+00
 P 3 1.00
     Exponent=  9.4680970621D+00 Coefficients=  3.8387871728D-02
     Exponent=  2.0103545142D+00 Coefficients=  2.1117025112D-01
     Exponent=  5.4771004707D-01 Coefficients=  5.1328172114D-01
 P 1 1.00
     Exponent=  1.5268613795D-01 Coefficients=  1.0000000000D+00
 D 1 1.00
     Exponent=  8.0000000000D-01 Coefficients=  1.0000000000D+00
 D 1 1.00
     Exponent=  1.1713185140D-01 Coefficients=  1.0000000000D+00
 ****
 Centers:       1
 S 5 1.00
     Exponent=  2.8948325990D+03 Coefficients= -5.3408255515D-03
     Exponent=  4.3541939120D+02 Coefficients= -3.9904258866D-02
     Exponent=  9.8843328866D+01 Coefficients= -1.7912768038D-01
     Exponent=  2.7485198001D+01 Coefficients= -4.6758090825D-01
     Exponent=  8.5405498171D+00 Coefficients= -4.4653131020D-01
 S 1 1.00
     Exponent=  1.0654578038D+00 Coefficients=  1.0000000000D+00
 S 1 1.00
     Exponent=  3.3247346748D-01 Coefficients=  1.0000000000D+00
 S 1 1.00
     Exponent=  9.8097752264D-02 Coefficients=  1.0000000000D+00
 P 3 1.00
     Exponent=  2.2696633924D+01 Coefficients= -4.5212874436D-02
     Exponent=  4.9872339257D+00 Coefficients= -2.3754317067D-01
     Exponent=  1.3491613954D+00 Coefficients= -5.1287353587D-01
 P 1 1.00
     Exponent=  3.4829881977D-01 Coefficients=  1.0000000000D+00
 P 1 1.00
     Exponent=  8.3372148304D-02 Coefficients=  1.0000000000D+00
 D 1 1.00
     Exponent=  1.4000000000D+00 Coefficients=  1.0000000000D+00
 D 1 1.00
     Exponent=  2.2301361948D-01 Coefficients=  1.0000000000D+00
 ****
 Ernie: Thresh=  0.10000D-02 Tol=  0.10000D-05 Strict=F.
 There are    68 symmetry adapted cartesian basis functions of A'  symmetry.
 There are    25 symmetry adapted cartesian basis functions of A"  symmetry.
 There are    62 symmetry adapted basis functions of A'  symmetry.
 There are    25 symmetry adapted basis functions of A"  symmetry.
    87 basis functions,   129 primitive gaussians,    93 cartesian basis functions
    12 alpha electrons       12 beta electrons
       nuclear repulsion energy        67.8016714376 Hartrees.
 IExCor=20419 DFT=T Ex+Corr=CAM-B3LYP ExCW=0 ScaHFX=  1.000000
 ScaDFX=  1.000000  1.000000  1.000000  0.810000 ScalE2=  1.000000  1.000000
 IRadAn=      5 IRanWt=     -1 IRanGd=            0 ICorTp=0 IEmpDi=  4
 HFx  wShort=  0.000000 wLong=  0.330000 cFull=  0.190000 cShort=  0.000000 cLong=  0.460000
 DFx  wShort=  0.000000 wLong=  0.330000 cFull=  0.190000 cShort=  0.000000 cLong=  0.460000
 NAtoms=    6 NActive=    6 NUniq=    6 SFac= 1.00D+00 NAtFMM=   60 NAOKFM=F Big=F
 Integral buffers will be    131072 words long.
 Raffenetti 1 integral format.
 Two-electron integral symmetry is turned on.
 Leave Link  301 at Mon Mar 21 04:12:43 2022, MaxMem=  8589934592 cpu:               0.5 elap:               0.1
 (Enter /home/sabyasachi/g16/l302.exe)
 NPDir=0 NMtPBC=     1 NCelOv=     1 NCel=       1 NClECP=     1 NCelD=      1
         NCelK=      1 NCelE2=     1 NClLst=     1 CellRange=     0.0.
 One-electron integrals computed using PRISM.
 One-electron integral symmetry used in STVInt
 NBasis=    87 RedAO= T EigKep=  1.02D-04  NBF=    62    25
 NBsUse=    87 1.00D-06 EigRej= -1.00D+00 NBFU=    62    25
 Precomputing XC quadrature grid using
 IXCGrd= 4 IRadAn=           5 IRanWt=          -1 IRanGd=           0 AccXCQ= 0.00D+00.
 Generated NRdTot=       0 NPtTot=           0 NUsed=           0 NTot=          32
 NSgBfM=    93    93    93    93    93 MxSgAt=     6 MxSgA2=     6.
 Leave Link  302 at Mon Mar 21 04:12:43 2022, MaxMem=  8589934592 cpu:               0.9 elap:               0.1
 (Enter /home/sabyasachi/g16/l303.exe)
 DipDrv:  MaxL=1.
 Leave Link  303 at Mon Mar 21 04:12:43 2022, MaxMem=  8589934592 cpu:               0.2 elap:               0.0
 (Enter /home/sabyasachi/g16/l308.exe)
 Leave Link  308 at Mon Mar 21 04:12:43 2022, MaxMem=  8589934592 cpu:               0.2 elap:               0.0
 (Enter /home/sabyasachi/g16/l401.exe)
 ExpMin= 6.71D-02 ExpMax= 2.89D+03 ExpMxC= 4.35D+02 IAcc=3 IRadAn=         5 AccDes= 0.00D+00
 Harris functional with IExCor=20419 and IRadAn=       5 diagonalized for initial guess.
 HarFok:  IExCor=20419 AccDes= 0.00D+00 IRadAn=         5 IDoV= 1 UseB2=F ITyADJ=14
 ICtDFT=  3500011 ScaDFX=  1.000000  1.000000  1.000000  1.000000
 FoFCou: FMM=F IPFlag=           0 FMFlag=      100000 FMFlg1=           0
         NFxFlg=           0 DoJE=T BraDBF=F KetDBF=T FulRan=T
         wScrn=  0.000000 ICntrl=       500 IOpCl=  0 I1Cent=   200000004 NGrid=           0
         NMat0=    1 NMatS0=      1 NMatT0=    0 NMatD0=    1 NMtDS0=    0 NMtDT0=    0
 Petite list used in FoFCou.
 Harris En= -171.622435773147    
 JPrj=0 DoOrth=F DoCkMO=F.
 Initial guess orbital symmetries:
       Occupied  (A') (A') (A') (A') (A') (A') (A') (A') (A') (A")
                 (A') (A")
       Virtual   (A") (A') (A') (A') (A') (A') (A") (A') (A') (A")
                 (A') (A") (A') (A") (A') (A') (A') (A') (A") (A')
                 (A') (A") (A') (A') (A") (A') (A') (A') (A') (A")
                 (A') (A') (A") (A') (A") (A') (A") (A') (A") (A')
                 (A') (A') (A') (A') (A') (A') (A') (A") (A") (A")
                 (A') (A") (A') (A') (A') (A') (A") (A') (A') (A")
                 (A') (A') (A") (A') (A') (A") (A') (A') (A') (A')
                 (A") (A') (A") (A') (A')
 The electronic state of the initial guess is 1-A'.
 Leave Link  401 at Mon Mar 21 04:12:43 2022, MaxMem=  8589934592 cpu:               1.8 elap:               0.3
 (Enter /home/sabyasachi/g16/l502.exe)
 Keep R1 ints in memory in symmetry-blocked form, NReq=22354432.
 FoFCou: FMM=F IPFlag=           0 FMFlag=           0 FMFlg1=           0
         NFxFlg=           0 DoJE=F BraDBF=F KetDBF=F FulRan=T
         wScrn=  0.000000 ICntrl=       600 IOpCl=  0 I1Cent=           0 NGrid=           0
         NMat0=    1 NMatS0=   3828 NMatT0=    0 NMatD0=    1 NMtDS0=    0 NMtDT0=    0
 Petite list used in FoFCou.
 Closed shell SCF:
 Using DIIS extrapolation, IDIIS=  1040.
 NGot=  8589934592 LenX=  8586108576 LenY=  8586099486
 Requested convergence on RMS density matrix=1.00D-08 within 100 cycles.
 Requested convergence on MAX density matrix=1.00D-06.
 Requested convergence on             energy=1.00D-06.
 No special actions if energy rises.
 Integral accuracy reduced to 1.0D-05 until final iterations.

 Cycle   1  Pass 0  IDiag  1:
 E= -177.474672350160    
 DIIS: error= 4.17D-02 at cycle   1 NSaved=   1.
 NSaved= 1 IEnMin= 1 EnMin= -177.474672350160     IErMin= 1 ErrMin= 4.17D-02
 ErrMax= 4.17D-02  0.00D+00 EMaxC= 1.00D-01 BMatC= 2.48D-01 BMatP= 2.48D-01
 IDIUse=3 WtCom= 5.83D-01 WtEn= 4.17D-01
 Coeff-Com:  0.100D+01
 Coeff-En:   0.100D+01
 Coeff:      0.100D+01
 Gap=     0.431 Goal=   None    Shift=    0.000
 GapD=    0.431 DampG=2.000 DampE=0.500 DampFc=1.0000 IDamp=-1.
 RMSDP=9.14D-03 MaxDP=1.85D-01              OVMax= 2.60D-01

 Cycle   2  Pass 0  IDiag  1:
 E= -177.395845352354     Delta-E=        0.078826997806 Rises=F Damp=F
 DIIS: error= 5.58D-02 at cycle   2 NSaved=   2.
 NSaved= 2 IEnMin= 1 EnMin= -177.474672350160     IErMin= 1 ErrMin= 4.17D-02
 ErrMax= 5.58D-02  0.00D+00 EMaxC= 1.00D-01 BMatC= 3.42D-01 BMatP= 2.48D-01
 IDIUse=2 WtCom= 0.00D+00 WtEn= 1.00D+00
 Coeff-En:   0.591D+00 0.409D+00
 Coeff:      0.591D+00 0.409D+00
 Gap=     0.377 Goal=   None    Shift=    0.000
 RMSDP=3.97D-03 MaxDP=9.44D-02 DE= 7.88D-02 OVMax= 1.45D-01

 Cycle   3  Pass 0  IDiag  1:
 E= -177.630509517537     Delta-E=       -0.234664165183 Rises=F Damp=F
 DIIS: error= 5.97D-03 at cycle   3 NSaved=   3.
 NSaved= 3 IEnMin= 3 EnMin= -177.630509517537     IErMin= 3 ErrMin= 5.97D-03
 ErrMax= 5.97D-03  0.00D+00 EMaxC= 1.00D-01 BMatC= 3.43D-03 BMatP= 2.48D-01
 IDIUse=3 WtCom= 9.40D-01 WtEn= 5.97D-02
 Coeff-Com:  0.129D-01-0.942D-01 0.108D+01
 Coeff-En:   0.000D+00 0.000D+00 0.100D+01
 Coeff:      0.122D-01-0.885D-01 0.108D+01
 Gap=     0.387 Goal=   None    Shift=    0.000
 RMSDP=6.32D-04 MaxDP=1.28D-02 DE=-2.35D-01 OVMax= 1.00D-02

 Cycle   4  Pass 0  IDiag  1:
 E= -177.632489936897     Delta-E=       -0.001980419360 Rises=F Damp=F
 DIIS: error= 1.81D-03 at cycle   4 NSaved=   4.
 NSaved= 4 IEnMin= 4 EnMin= -177.632489936897     IErMin= 4 ErrMin= 1.81D-03
 ErrMax= 1.81D-03  0.00D+00 EMaxC= 1.00D-01 BMatC= 3.26D-04 BMatP= 3.43D-03
 IDIUse=3 WtCom= 9.82D-01 WtEn= 1.81D-02
 Coeff-Com:  0.315D-03-0.531D-01 0.570D+00 0.483D+00
 Coeff-En:   0.000D+00 0.000D+00 0.000D+00 0.100D+01
 Coeff:      0.309D-03-0.521D-01 0.559D+00 0.492D+00
 Gap=     0.388 Goal=   None    Shift=    0.000
 RMSDP=1.92D-04 MaxDP=4.26D-03 DE=-1.98D-03 OVMax= 5.98D-03

 Cycle   5  Pass 0  IDiag  1:
 E= -177.632765116806     Delta-E=       -0.000275179909 Rises=F Damp=F
 DIIS: error= 2.06D-04 at cycle   5 NSaved=   5.
 NSaved= 5 IEnMin= 5 EnMin= -177.632765116806     IErMin= 5 ErrMin= 2.06D-04
 ErrMax= 2.06D-04  0.00D+00 EMaxC= 1.00D-01 BMatC= 4.76D-06 BMatP= 3.26D-04
 IDIUse=3 WtCom= 9.98D-01 WtEn= 2.06D-03
 Coeff-Com: -0.141D-02-0.957D-03-0.242D-01 0.438D-01 0.983D+00
 Coeff-En:   0.000D+00 0.000D+00 0.000D+00 0.000D+00 0.100D+01
 Coeff:     -0.140D-02-0.955D-03-0.242D-01 0.437D-01 0.983D+00
 Gap=     0.387 Goal=   None    Shift=    0.000
 RMSDP=5.23D-05 MaxDP=5.52D-04 DE=-2.75D-04 OVMax= 1.41D-03

 Cycle   6  Pass 0  IDiag  1:
 E= -177.632771312544     Delta-E=       -0.000006195738 Rises=F Damp=F
 DIIS: error= 4.05D-05 at cycle   6 NSaved=   6.
 NSaved= 6 IEnMin= 6 EnMin= -177.632771312544     IErMin= 6 ErrMin= 4.05D-05
 ErrMax= 4.05D-05  0.00D+00 EMaxC= 1.00D-01 BMatC= 3.06D-07 BMatP= 4.76D-06
 IDIUse=1 WtCom= 1.00D+00 WtEn= 0.00D+00
 Coeff-Com: -0.552D-04 0.166D-02-0.264D-01-0.281D-01 0.937D-01 0.959D+00
 Coeff:     -0.552D-04 0.166D-02-0.264D-01-0.281D-01 0.937D-01 0.959D+00
 Gap=     0.387 Goal=   None    Shift=    0.000
 RMSDP=1.25D-05 MaxDP=1.76D-04 DE=-6.20D-06 OVMax= 2.72D-04

 Cycle   7  Pass 0  IDiag  1:
 E= -177.632771729292     Delta-E=       -0.000000416748 Rises=F Damp=F
 DIIS: error= 1.92D-05 at cycle   7 NSaved=   7.
 NSaved= 7 IEnMin= 7 EnMin= -177.632771729292     IErMin= 7 ErrMin= 1.92D-05
 ErrMax= 1.92D-05  0.00D+00 EMaxC= 1.00D-01 BMatC= 3.37D-08 BMatP= 3.06D-07
 IDIUse=1 WtCom= 1.00D+00 WtEn= 0.00D+00
 Coeff-Com:  0.564D-04 0.387D-03-0.589D-02-0.142D-01-0.333D-01 0.264D+00
 Coeff-Com:  0.789D+00
 Coeff:      0.564D-04 0.387D-03-0.589D-02-0.142D-01-0.333D-01 0.264D+00
 Coeff:      0.789D+00
 Gap=     0.387 Goal=   None    Shift=    0.000
 RMSDP=3.40D-06 MaxDP=7.13D-05 DE=-4.17D-07 OVMax= 7.53D-05

 Initial convergence to 1.0D-05 achieved.  Increase integral accuracy.
 Cycle   8  Pass 1  IDiag  1:
 E= -177.632772349971     Delta-E=       -0.000000620678 Rises=F Damp=F
 DIIS: error= 3.41D-06 at cycle   1 NSaved=   1.
 NSaved= 1 IEnMin= 1 EnMin= -177.632772349971     IErMin= 1 ErrMin= 3.41D-06
 ErrMax= 3.41D-06  0.00D+00 EMaxC= 1.00D-01 BMatC= 2.04D-09 BMatP= 2.04D-09
 IDIUse=1 WtCom= 1.00D+00 WtEn= 0.00D+00
 Coeff-Com:  0.100D+01
 Coeff:      0.100D+01
 Gap=     0.387 Goal=   None    Shift=    0.000
 RMSDP=3.40D-06 MaxDP=7.13D-05 DE=-6.21D-07 OVMax= 1.80D-05

 Cycle   9  Pass 1  IDiag  1:
 E= -177.632772350957     Delta-E=       -0.000000000987 Rises=F Damp=F
 DIIS: error= 3.75D-06 at cycle   2 NSaved=   2.
 NSaved= 2 IEnMin= 2 EnMin= -177.632772350957     IErMin= 1 ErrMin= 3.41D-06
 ErrMax= 3.75D-06  0.00D+00 EMaxC= 1.00D-01 BMatC= 1.39D-09 BMatP= 2.04D-09
 IDIUse=1 WtCom= 1.00D+00 WtEn= 0.00D+00
 Coeff-Com:  0.448D+00 0.552D+00
 Coeff:      0.448D+00 0.552D+00
 Gap=     0.387 Goal=   None    Shift=    0.000
 RMSDP=5.20D-07 MaxDP=1.41D-05 DE=-9.87D-10 OVMax= 2.08D-05

 Cycle  10  Pass 1  IDiag  1:
 E= -177.632772352349     Delta-E=       -0.000000001392 Rises=F Damp=F
 DIIS: error= 6.79D-07 at cycle   3 NSaved=   3.
 NSaved= 3 IEnMin= 3 EnMin= -177.632772352349     IErMin= 3 ErrMin= 6.79D-07
 ErrMax= 6.79D-07  0.00D+00 EMaxC= 1.00D-01 BMatC= 8.93D-11 BMatP= 1.39D-09
 IDIUse=1 WtCom= 1.00D+00 WtEn= 0.00D+00
 Coeff-Com:  0.317D-01 0.198D+00 0.770D+00
 Coeff:      0.317D-01 0.198D+00 0.770D+00
 Gap=     0.387 Goal=   None    Shift=    0.000
 RMSDP=1.79D-07 MaxDP=2.89D-06 DE=-1.39D-09 OVMax= 2.14D-06

 Cycle  11  Pass 1  IDiag  1:
 E= -177.632772352430     Delta-E=       -0.000000000081 Rises=F Damp=F
 DIIS: error= 2.23D-07 at cycle   4 NSaved=   4.
 NSaved= 4 IEnMin= 4 EnMin= -177.632772352430     IErMin= 4 ErrMin= 2.23D-07
 ErrMax= 2.23D-07  0.00D+00 EMaxC= 1.00D-01 BMatC= 7.05D-12 BMatP= 8.93D-11
 IDIUse=1 WtCom= 1.00D+00 WtEn= 0.00D+00
 Coeff-Com: -0.639D-01 0.423D-02 0.213D+00 0.847D+00
 Coeff:     -0.639D-01 0.423D-02 0.213D+00 0.847D+00
 Gap=     0.387 Goal=   None    Shift=    0.000
 RMSDP=8.68D-08 MaxDP=1.37D-06 DE=-8.09D-11 OVMax= 2.05D-06

 Cycle  12  Pass 1  IDiag  1:
 E= -177.632772352440     Delta-E=       -0.000000000010 Rises=F Damp=F
 DIIS: error= 6.59D-08 at cycle   5 NSaved=   5.
 NSaved= 5 IEnMin= 5 EnMin= -177.632772352440     IErMin= 5 ErrMin= 6.59D-08
 ErrMax= 6.59D-08  0.00D+00 EMaxC= 1.00D-01 BMatC= 3.96D-13 BMatP= 7.05D-12
 IDIUse=1 WtCom= 1.00D+00 WtEn= 0.00D+00
 Coeff-Com: -0.141D-01-0.635D-02-0.220D-01 0.160D+00 0.882D+00
 Coeff:     -0.141D-01-0.635D-02-0.220D-01 0.160D+00 0.882D+00
 Gap=     0.387 Goal=   None    Shift=    0.000
 RMSDP=1.95D-08 MaxDP=3.24D-07 DE=-9.92D-12 OVMax= 2.29D-07

 Cycle  13  Pass 1  IDiag  1:
 E= -177.632772352441     Delta-E=       -0.000000000001 Rises=F Damp=F
 DIIS: error= 1.19D-08 at cycle   6 NSaved=   6.
 NSaved= 6 IEnMin= 6 EnMin= -177.632772352441     IErMin= 6 ErrMin= 1.19D-08
 ErrMax= 1.19D-08  0.00D+00 EMaxC= 1.00D-01 BMatC= 1.52D-14 BMatP= 3.96D-13
 IDIUse=1 WtCom= 1.00D+00 WtEn= 0.00D+00
 Coeff-Com:  0.294D-03-0.690D-03-0.146D-01-0.744D-03 0.181D+00 0.835D+00
 Coeff:      0.294D-03-0.690D-03-0.146D-01-0.744D-03 0.181D+00 0.835D+00
 Gap=     0.387 Goal=   None    Shift=    0.000
 RMSDP=4.60D-09 MaxDP=5.08D-08 DE=-9.95D-13 OVMax= 1.11D-07

 SCF Done:  E(RCAM-B3LYP) =  -177.632772352     A.U. after   13 cycles
            NFock= 13  Conv=0.46D-08     -V/T= 2.0087
 KE= 1.760965604828D+02 PE=-5.532941579986D+02 EE= 1.317631537256D+02
 Leave Link  502 at Mon Mar 21 04:12:45 2022, MaxMem=  8589934592 cpu:              11.1 elap:               1.5
 (Enter /home/sabyasachi/g16/l801.exe)
 DoSCS=F DFT=T ScalE2(SS,OS)=  1.000000  1.000000
 ExpMin= 6.71D-02 ExpMax= 2.89D+03 ExpMxC= 4.35D+02 IAcc=3 IRadAn=         5 AccDes= 0.00D+00
 HarFok:  IExCor=  205 AccDes= 0.00D+00 IRadAn=         5 IDoV=-2 UseB2=F ITyADJ=14
 ICtDFT= 12500011 ScaDFX=  1.000000  1.000000  1.000000  1.000000
 Largest valence mixing into a core orbital is  6.94D-05
 Largest core mixing into a valence orbital is  1.80D-05
 Range of M.O.s used for correlation:     4    87
 NBasis=    87 NAE=    12 NBE=    12 NFC=     3 NFV=     0
 NROrb=     84 NOA=     9 NOB=     9 NVA=    75 NVB=    75

 **** Warning!!: The largest alpha MO coefficient is  0.36634604D+02

 Leave Link  801 at Mon Mar 21 04:12:45 2022, MaxMem=  8589934592 cpu:               0.5 elap:               0.1
 (Enter /home/sabyasachi/g16/l914.exe)
 RHF ground state
 Keep R1, R2, and R3 ints in memory in symmetry-blocked form, NReq=506697564.
 FoFCou: FMM=F IPFlag=           0 FMFlag=           0 FMFlg1=           0
         NFxFlg=           0 DoJE=F BraDBF=F KetDBF=F FulRan=T
         wScrn=  0.000000 ICntrl=       600 IOpCl=  0 I1Cent=           0 NGrid=           0
         NMat0=    1 NMatS0=   3828 NMatT0=    0 NMatD0=    1 NMtDS0=    0 NMtDT0=    0
 Petite list used in FoFCou.
 MDV=  8589934592 DFT=T DoStab=F Mixed=T DoRPA=T DoScal=F NonHer=T
 Making orbital integer symmetry assigments:
 Orbital symmetries:
       Occupied  (A') (A') (A') (A') (A') (A') (A') (A') (A") (A')
                 (A') (A")
       Virtual   (A") (A') (A') (A') (A') (A') (A") (A') (A') (A")
                 (A') (A") (A') (A") (A') (A') (A') (A') (A") (A')
                 (A') (A") (A') (A') (A") (A') (A') (A') (A') (A")
                 (A') (A') (A") (A') (A") (A') (A") (A') (A") (A')
                 (A') (A') (A') (A') (A') (A') (A') (A") (A") (A")
                 (A') (A") (A') (A') (A') (A') (A") (A') (A') (A")
                 (A') (A') (A") (A') (A') (A") (A') (A') (A') (A')
                 (A") (A') (A") (A') (A')
   675 initial guesses have been made.
 Convergence on wavefunction:    0.001000000000000
 Davidson Disk Diagonalization:  ConvIn= 1.00D-03 SkipCon=T Conv= 1.00D-03.
 Max sub-space:  4050 roots to seek:  1350 dimension of matrix:         1350
 *** WARNING: Number of orthogonal guesses is          675
 Iteration     1 Dimension   675 NMult     0 NNew    675
 CISAX will form   675 AO SS matrices at one time.
 NMat=   675 NSing=   675 JSym2X=-1.
 New state      1 was old state      2
 New state      2 was old state      1
 New state      5 was old state      7
 New state      6 was old state      5
 New state      7 was old state     12
 New state      8 was old state      6
 New state      9 was old state      8
 New state     10 was old state      9
 New state     11 was old state     10
 New state     12 was old state     13
 New state     13 was old state     14
 New state     14 was old state     15
 New state     15 was old state     11
 New state     16 was old state     18
 New state     17 was old state     16
 New state     18 was old state     25
 New state     19 was old state     17
 New state     21 was old state     19
 New state     22 was old state     21
 New state     24 was old state     26
 New state     25 was old state     22
 New state     26 was old state     27
 New state     27 was old state     38
 New state     28 was old state     24
 New state     30 was old state     35
 New state     31 was old state     28
 New state     33 was old state     31
 New state     34 was old state     30
 New state     35 was old state     37
 New state     37 was old state     33
 New state     38 was old state     40
 New state     39 was old state     34
 New state     40 was old state     39
 New state     42 was old state     43
 New state     43 was old state     46
 New state     44 was old state     42
 New state     45 was old state     44
 New state     46 was old state     49
 New state     47 was old state     45
 New state     48 was old state     50
 New state     49 was old state     47
 New state     50 was old state     54
 New state     51 was old state     53
 New state     52 was old state     55
 New state     53 was old state     48
 New state     54 was old state     56
 New state     55 was old state     59
 New state     56 was old state     51
 New state     57 was old state     60
 New state     58 was old state     52
 New state     59 was old state     63
 New state     60 was old state     67
 New state     61 was old state     57
 New state     62 was old state     64
 New state     63 was old state     61
 New state     64 was old state     62
 New state     65 was old state     58
 New state     66 was old state     70
 New state     67 was old state     68
 New state     68 was old state     66
 New state     69 was old state     65
 New state     70 was old state     69
 New state     71 was old state     74
 New state     72 was old state     73
 New state     73 was old state     72
 New state     74 was old state     76
 New state     75 was old state     84
 New state     76 was old state     80
 New state     77 was old state     79
 New state     78 was old state     77
 New state     79 was old state     81
 New state     80 was old state     83
 New state     81 was old state     78
 New state     82 was old state     75
 New state     83 was old state     86
 New state     84 was old state     82
 New state     85 was old state     87
 New state     86 was old state     85
 New state     87 was old state     90
 New state     88 was old state     92
 New state     89 was old state     88
 New state     90 was old state     96
 New state     91 was old state     99
 New state     92 was old state     89
 New state     93 was old state     98
 New state     94 was old state     93
 New state     96 was old state     94
 New state     97 was old state     91
 New state     98 was old state     97
 New state     99 was old state    103
 New state    102 was old state    108
 New state    103 was old state    109
 New state    105 was old state    112
 New state    108 was old state    102
 New state    109 was old state    116
 New state    110 was old state    105
 New state    111 was old state    110
 New state    112 was old state    113
 New state    113 was old state    111
 New state    114 was old state    123
 New state    115 was old state    114
 New state    116 was old state    118
 New state    117 was old state    115
 New state    118 was old state    119
 New state    119 was old state    117
 New state    120 was old state    121
 New state    121 was old state    120
 New state    122 was old state    125
 New state    123 was old state    132
 New state    124 was old state    122
 New state    125 was old state    124
 New state    127 was old state    134
 New state    129 was old state    139
 New state    130 was old state    131
 New state    131 was old state    129
 New state    132 was old state    130
 New state    133 was old state    127
 New state    134 was old state    137
 New state    135 was old state    140
 New state    136 was old state    147
 New state    137 was old state    133
 New state    138 was old state    148
 New state    139 was old state    141
 New state    140 was old state    144
 New state    141 was old state    142
 New state    142 was old state    146
 New state    143 was old state    135
 New state    144 was old state    136
 New state    145 was old state    162
 New state    146 was old state    143
 New state    147 was old state    150
 New state    148 was old state    149
 New state    149 was old state    138
 New state    150 was old state    145
 New state    151 was old state    152
 New state    152 was old state    156
 New state    154 was old state    155
 New state    155 was old state    151
 New state    156 was old state    160
 New state    157 was old state    154
 New state    160 was old state    161
 New state    161 was old state    166
 New state    162 was old state    164
 New state    164 was old state    165
 New state    165 was old state    157
 New state    166 was old state    168
 New state    167 was old state    172
 New state    168 was old state    178
 New state    169 was old state    167
 New state    170 was old state    169
 New state    171 was old state    170
 New state    172 was old state    171
 New state    175 was old state    181
 New state    176 was old state    184
 New state    177 was old state    180
 New state    178 was old state    176
 New state    180 was old state    175
 New state    181 was old state    197
 New state    183 was old state    177
 New state    184 was old state    185
 New state    185 was old state    183
 New state    186 was old state    189
 New state    187 was old state    198
 New state    189 was old state    190
 New state    190 was old state    192
 New state    191 was old state    193
 New state    192 was old state    187
 New state    193 was old state    186
 New state    194 was old state    191
 New state    195 was old state    196
 New state    196 was old state    200
 New state    197 was old state    194
 New state    198 was old state    195
 New state    199 was old state    201
 New state    200 was old state    199
 New state    201 was old state    205
 New state    202 was old state    204
 New state    203 was old state    208
 New state    204 was old state    202
 New state    205 was old state    203
 New state    206 was old state    212
 New state    207 was old state    209
 New state    208 was old state    210
 New state    209 was old state    207
 New state    210 was old state    206
 New state    211 was old state    220
 New state    212 was old state    213
 New state    213 was old state    214
 New state    214 was old state    211
 New state    215 was old state    216
 New state    216 was old state    222
 New state    217 was old state    219
 New state    218 was old state    217
 New state    219 was old state    215
 New state    220 was old state    221
 New state    221 was old state    218
 New state    222 was old state    229
 New state    225 was old state    226
 New state    226 was old state    225
 New state    227 was old state    228
 New state    228 was old state    227
 New state    229 was old state    231
 New state    231 was old state    235
 New state    232 was old state    233
 New state    233 was old state    238
 New state    234 was old state    236
 New state    235 was old state    241
 New state    236 was old state    232
 New state    237 was old state    234
 New state    238 was old state    243
 New state    239 was old state    249
 New state    240 was old state    242
 New state    241 was old state    240
 New state    242 was old state    244
 New state    243 was old state    237
 New state    244 was old state    247
 New state    245 was old state    239
 New state    246 was old state    251
 New state    247 was old state    256
 New state    248 was old state    245
 New state    249 was old state    246
 New state    250 was old state    248
 New state    251 was old state    255
 New state    252 was old state    250
 New state    253 was old state    254
 New state    254 was old state    253
 New state    255 was old state    259
 New state    256 was old state    252
 New state    257 was old state    262
 New state    258 was old state    257
 New state    259 was old state    258
 New state    260 was old state    261
 New state    261 was old state    266
 New state    262 was old state    263
 New state    263 was old state    260
 New state    264 was old state    269
 New state    266 was old state    264
 New state    267 was old state    273
 New state    268 was old state    267
 New state    269 was old state    268
 New state    270 was old state    278
 New state    271 was old state    275
 New state    272 was old state    271
 New state    273 was old state    272
 New state    274 was old state    276
 New state    275 was old state    270
 New state    276 was old state    285
 New state    277 was old state    279
 New state    278 was old state    282
 New state    279 was old state    274
 New state    280 was old state    286
 New state    281 was old state    277
 New state    282 was old state    287
 New state    284 was old state    281
 New state    285 was old state    284
 New state    286 was old state    290
 New state    287 was old state    288
 New state    288 was old state    289
 New state    289 was old state    292
 New state    290 was old state    291
 New state    291 was old state    280
 New state    292 was old state    295
 New state    295 was old state    298
 New state    296 was old state    299
 New state    297 was old state    301
 New state    298 was old state    297
 New state    299 was old state    300
 New state    300 was old state    302
 New state    301 was old state    307
 New state    302 was old state    311
 New state    303 was old state    305
 New state    304 was old state    306
 New state    305 was old state    309
 New state    306 was old state    304
 New state    307 was old state    296
 New state    309 was old state    316
 New state    310 was old state    303
 New state    311 was old state    313
 New state    312 was old state    310
 New state    313 was old state    320
 New state    314 was old state    312
 New state    315 was old state    324
 New state    316 was old state    314
 New state    317 was old state    319
 New state    318 was old state    317
 New state    319 was old state    325
 New state    320 was old state    315
 New state    321 was old state    323
 New state    322 was old state    321
 New state    323 was old state    331
 New state    324 was old state    318
 New state    325 was old state    326
 New state    326 was old state    322
 New state    327 was old state    330
 New state    328 was old state    327
 New state    330 was old state    340
 New state    331 was old state    332
 New state    332 was old state    338
 New state    333 was old state    335
 New state    335 was old state    336
 New state    336 was old state    328
 New state    337 was old state    346
 New state    338 was old state    342
 New state    339 was old state    333
 New state    340 was old state    339
 New state    341 was old state    343
 New state    342 was old state    347
 New state    343 was old state    344
 New state    344 was old state    341
 New state    345 was old state    351
 New state    346 was old state    337
 New state    347 was old state    349
 New state    348 was old state    345
 New state    349 was old state    350
 New state    350 was old state    348
 New state    351 was old state    353
 New state    353 was old state    354
 New state    354 was old state    363
 New state    355 was old state    364
 New state    357 was old state    355
 New state    359 was old state    357
 New state    360 was old state    362
 New state    361 was old state    359
 New state    362 was old state    365
 New state    363 was old state    360
 New state    364 was old state    366
 New state    365 was old state    371
 New state    366 was old state    367
 New state    367 was old state    368
 New state    368 was old state    361
 New state    369 was old state    370
 New state    370 was old state    372
 New state    371 was old state    374
 New state    372 was old state    375
 New state    373 was old state    369
 New state    374 was old state    382
 New state    375 was old state    373
 New state    376 was old state    377
 New state    377 was old state    378
 New state    378 was old state    384
 New state    379 was old state    376
 New state    380 was old state    381
 New state    381 was old state    379
 New state    382 was old state    383
 New state    383 was old state    386
 New state    384 was old state    387
 New state    385 was old state    380
 New state    386 was old state    385
 New state    387 was old state    394
 New state    388 was old state    389
 New state    389 was old state    388
 New state    390 was old state    391
 New state    391 was old state    390
 New state    394 was old state    395
 New state    395 was old state    401
 New state    396 was old state    399
 New state    398 was old state    396
 New state    399 was old state    398
 No map to state    400
 New state    401 was old state    402
 New state    402 was old state    405
 New state    403 was old state    400
 New state    404 was old state    403
 New state    405 was old state    406
 New state    406 was old state    404
 New state    411 was old state    414
 New state    413 was old state    411
 New state    414 was old state    416
 New state    416 was old state    417
 New state    417 was old state    413
 New state    418 was old state    422
 New state    420 was old state    418
 New state    422 was old state    420
 New state    424 was old state    427
 New state    425 was old state    424
 New state    426 was old state    429
 New state    427 was old state    428
 New state    428 was old state    426
 New state    429 was old state    425
 New state    430 was old state    431
 New state    431 was old state    430
 New state    435 was old state    437
 New state    437 was old state    435
 New state    438 was old state    439
 New state    439 was old state    438
 New state    440 was old state    442
 New state    441 was old state    440
 New state    442 was old state    444
 New state    443 was old state    441
 New state    444 was old state    445
 New state    445 was old state    443
 New state    447 was old state    449
 New state    448 was old state    450
 New state    449 was old state    447
 New state    450 was old state    455
 New state    451 was old state    453
 New state    453 was old state    448
 New state    455 was old state    462
 New state    457 was old state    451
 New state    460 was old state    461
 New state    461 was old state    457
 New state    462 was old state    464
 New state    463 was old state    465
 New state    464 was old state    460
 New state    465 was old state    466
 New state    466 was old state    463
 New state    468 was old state    470
 New state    469 was old state    468
 New state    470 was old state    469
 New state    472 was old state    475
 New state    475 was old state    472
 New state    476 was old state    479
 New state    477 was old state    485
 New state    478 was old state    482
 New state    479 was old state    476
 New state    480 was old state    484
 New state    481 was old state    477
 New state    482 was old state    483
 New state    483 was old state    481
 New state    484 was old state    486
 New state    485 was old state    480
 New state    486 was old state    478
 New state    487 was old state    488
 New state    488 was old state    490
 New state    489 was old state    491
 New state    490 was old state    487
 New state    491 was old state    489
 New state    494 was old state    496
 New state    495 was old state    494
 New state    496 was old state    499
 New state    497 was old state    501
 New state    498 was old state    497
 New state    499 was old state    498
 New state    500 was old state    502
 New state    501 was old state    500
 New state    502 was old state    503
 New state    503 was old state    504
 New state    504 was old state    508
 New state    505 was old state    507
 New state    506 was old state    505
 New state    507 was old state    506
 New state    508 was old state    509
 New state    509 was old state    510
 New state    510 was old state    513
 New state    512 was old state    514
 New state    513 was old state    516
 New state    514 was old state    515
 New state    515 was old state    512
 New state    516 was old state    517
 New state    517 was old state    519
 New state    518 was old state    521
 New state    519 was old state    520
 New state    520 was old state    518
 New state    521 was old state    523
 New state    523 was old state    525
 New state    524 was old state    528
 New state    525 was old state    524
 New state    528 was old state    536
 New state    529 was old state    530
 New state    530 was old state    529
 New state    531 was old state    533
 New state    532 was old state    531
 New state    533 was old state    535
 New state    535 was old state    532
 New state    536 was old state    537
 New state    537 was old state    538
 New state    538 was old state    542
 New state    539 was old state    541
 New state    540 was old state    539
 New state    541 was old state    545
 New state    542 was old state    540
 New state    544 was old state    547
 New state    545 was old state    544
 New state    546 was old state    549
 New state    547 was old state    546
 New state    549 was old state    554
 New state    550 was old state    553
 New state    551 was old state    552
 New state    552 was old state    550
 New state    553 was old state    555
 New state    554 was old state    551
 New state    555 was old state    557
 New state    556 was old state    558
 New state    557 was old state    556
 New state    558 was old state    563
 New state    559 was old state    561
 New state    561 was old state    562
 New state    562 was old state    559
 New state    563 was old state    564
 New state    564 was old state    566
 New state    566 was old state    569
 New state    567 was old state    568
 New state    568 was old state    571
 New state    569 was old state    572
 New state    570 was old state    567
 New state    571 was old state    570
 New state    572 was old state    573
 New state    573 was old state    585
 New state    574 was old state    575
 New state    575 was old state    574
 New state    576 was old state    577
 New state    577 was old state    576
 New state    580 was old state    581
 New state    581 was old state    583
 New state    582 was old state    584
 New state    583 was old state    580
 New state    584 was old state    582
 New state    585 was old state    587
 New state    587 was old state    588
 New state    588 was old state    590
 No map to state    590
 New state    591 was old state    593
 New state    592 was old state    591
 New state    593 was old state    592
 New state    603 was old state    604
 New state    604 was old state    603
 New state    608 was old state    610
 New state    609 was old state    608
 New state    610 was old state    611
 New state    611 was old state    609
 New state    612 was old state    614
 New state    614 was old state    612
 New state    616 was old state    618
 New state    618 was old state    620
 New state    619 was old state    616
 New state    620 was old state    619
 New state    623 was old state    624
 New state    624 was old state    623
 New state    625 was old state    626
 New state    626 was old state    625
 New state    628 was old state    631
 New state    630 was old state    628
 New state    631 was old state    630
 New state    632 was old state    634
 New state    633 was old state    637
 New state    634 was old state    633
 New state    636 was old state    638
 New state    637 was old state    639
 New state    638 was old state    641
 New state    639 was old state    640
 New state    640 was old state    642
 New state    641 was old state    643
 New state    642 was old state    632
 New state    643 was old state    645
 New state    645 was old state    646
 New state    646 was old state    647
 New state    647 was old state    652
 New state    648 was old state    649
 New state    649 was old state    651
 New state    650 was old state    648
 New state    651 was old state    650
 New state    652 was old state    659
 New state    656 was old state    657
 New state    657 was old state    656
 New state    659 was old state    660
 No map to state    660
 New state    663 was old state    665
 New state    664 was old state    663
 New state    665 was old state    664
 New state    670 was old state    671
 New state    671 was old state    670
 Excitation Energies [eV] at current iteration:
 Root      1 :     7.471060798840043
 Root      2 :     7.740885976398631
 Root      3 :     8.145385592799341
 Root      4 :     8.876170311162488
 Root      5 :     9.007121897339999
 Root      6 :     9.356445779542128
 Root      7 :     9.901821817994989
 Root      8 :    10.216264137805390
 Root      9 :    10.438840102548450
 Root     10 :    10.552730012871720
 Root     11 :    10.796153554872010
 Root     12 :    11.300283893395950
 Root     13 :    11.393328374020940
 Root     14 :    11.521463016885710
 Root     15 :    11.598118344057790
 Root     16 :    11.948681213966490
 Root     17 :    12.017873923757100
 Root     18 :    12.112923036344490
 Root     19 :    12.214078567074240
 Root     20 :    12.350498893272490
 Root     21 :    12.752436725644810
 Root     22 :    12.942951030703460
 Root     23 :    13.070965607167350
 Root     24 :    13.133423353840890
 Root     25 :    13.179616885494540
 Root     26 :    13.383857525867220
 Root     27 :    13.439246352909300
 Root     28 :    13.453353310429880
 Root     29 :    13.511092480423720
 Root     30 :    13.721735001798190
 Root     31 :    13.802860777224350
 Root     32 :    13.878690145598890
 Root     33 :    14.054463342443480
 Root     34 :    14.128695980372500
 Root     35 :    14.216814016950750
 Root     36 :    14.289698745737520
 Root     37 :    14.374297890982560
 Root     38 :    14.434938301569040
 Root     39 :    14.543257590214710
 Root     40 :    14.637747128722640
 Root     41 :    14.745965096073650
 Root     42 :    15.110533937169030
 Root     43 :    15.171490694247280
 Root     44 :    15.188084898717320
 Root     45 :    15.252950519968220
 Root     46 :    15.332631818058760
 Root     47 :    15.370785335450720
 Root     48 :    15.449083427659860
 Root     49 :    15.704438803364460
 Root     50 :    15.855687322967620
 Root     51 :    15.864243556586950
 Root     52 :    15.919917962830150
 Root     53 :    15.943734896913070
 Root     54 :    15.960523503769780
 Root     55 :    16.063606361274440
 Root     56 :    16.094860584476770
 Root     57 :    16.119838604926210
 Root     58 :    16.224041709695440
 Root     59 :    16.316055604411640
 Root     60 :    16.453186686617020
 Root     61 :    16.485460134733500
 Root     62 :    16.490539662025530
 Root     63 :    16.521762823824850
 Root     64 :    16.547138069518580
 Root     65 :    16.642004842794980
 Root     66 :    16.760261657228740
 Root     67 :    16.841833675006570
 Root     68 :    16.847789898938470
 Root     69 :    17.009579704011860
 Root     70 :    17.166097898728860
 Root     71 :    17.283498724685430
 Root     72 :    17.307528607817780
 Root     73 :    17.346121352845170
 Root     74 :    17.588423808799790
 Root     75 :    17.635592588056000
 Root     76 :    17.647155911073860
 Root     77 :    17.690989018618400
 Root     78 :    17.719334942840620
 Root     79 :    17.861374584789330
 Root     80 :    17.862190270172500
 Root     81 :    17.961163598870770
 Root     82 :    17.999025706860810
 Root     83 :    18.073086451932620
 Root     84 :    18.167188022842230
 Root     85 :    18.211492167587310
 Root     86 :    18.278081165174700
 Root     87 :    18.496173050076140
 Root     88 :    18.564393367034740
 Root     89 :    18.600156951497930
 Root     90 :    18.633227677249610
 Root     91 :    18.812068207760690
 Root     92 :    18.838272240128410
 Root     93 :    18.860329075914840
 Root     94 :    18.907022415589570
 Root     95 :    18.987744317302120
 Root     96 :    19.055140202571170
 Root     97 :    19.067509857551050
 Root     98 :    19.090384379684230
 Root     99 :    19.250217233285190
 Root    100 :    19.290059555337730
 Root    101 :    19.385479681328740
 Root    102 :    19.544147007775080
 Root    103 :    19.563025444064330
 Root    104 :    19.580491694187300
 Root    105 :    19.608109178800750
 Root    106 :    19.736392685311110
 Root    107 :    19.812888027554990
 Root    108 :    19.877336431896740
 Root    109 :    19.930738182801900
 Root    110 :    19.943976228878320
 Root    111 :    19.978627932917480
 Root    112 :    20.025098222668240
 Root    113 :    20.127906340033050
 Root    114 :    20.217384573880920
 Root    115 :    20.235126739230970
 Root    116 :    20.378951842540330
 Root    117 :    20.467895873440130
 Root    118 :    20.583582217596990
 Root    119 :    20.618330922337210
 Root    120 :    20.783885593372550
 Root    121 :    20.897073496638210
 Root    122 :    21.012188782797290
 Root    123 :    21.053724862840670
 Root    124 :    21.185669605665250
 Root    125 :    21.254308943216730
 Root    126 :    21.271441191054660
 Root    127 :    21.325310965742610
 Root    128 :    21.368142657164510
 Root    129 :    21.492303335187450
 Root    130 :    21.504912852744050
 Root    131 :    21.516505649853440
 Root    132 :    21.595465900575310
 Root    133 :    21.662393943518780
 Root    134 :    21.716869016221940
 Root    135 :    21.732882634164470
 Root    136 :    21.827364626185900
 Root    137 :    21.899496107452150
 Root    138 :    21.932340487655670
 Root    139 :    22.046886094926420
 Root    140 :    22.141247747457700
 Root    141 :    22.196706690239270
 Root    142 :    22.200977395227770
 Root    143 :    22.222319994018790
 Root    144 :    22.299998240417690
 Root    145 :    22.433269153210930
 Root    146 :    22.491660665008120
 Root    147 :    22.550226276880750
 Root    148 :    22.696892895281320
 Root    149 :    22.773440787501310
 Root    150 :    22.782481460709100
 Root    151 :    22.848268981829310
 Root    152 :    22.852236328338050
 Root    153 :    22.932981461111980
 Root    154 :    23.057105588506170
 Root    155 :    23.138068319252740
 Root    156 :    23.273794272674280
 Root    157 :    23.274410542143070
 Root    158 :    23.407759809511120
 Root    159 :    23.411589019678030
 Root    160 :    23.444512357727240
 Root    161 :    23.570479709826850
 Root    162 :    23.571773374913310
 Root    163 :    23.625757557732770
 Root    164 :    23.662645286177390
 Root    165 :    23.752597591867300
 Root    166 :    23.901888878552310
 Root    167 :    24.061542433167100
 Root    168 :    24.098949338710830
 Root    169 :    24.216095674959270
 Root    170 :    24.257888252472270
 Root    171 :    24.267280805627450
 Root    172 :    24.414747427160580
 Root    173 :    24.443004563926970
 Root    174 :    24.457237499134610
 Root    175 :    24.580459272287900
 Root    176 :    24.651353752755520
 Root    177 :    24.654022780356250
 Root    178 :    24.767160396996670
 Root    179 :    24.791454820759790
 Root    180 :    24.791644124515720
 Root    181 :    24.868136741344240
 Root    182 :    24.970503767140500
 Root    183 :    25.040693203814960
 Root    184 :    25.165150029143600
 Root    185 :    25.232841789667730
 Root    186 :    25.382654648182910
 Root    187 :    25.391456923373480
 Root    188 :    25.400732169827060
 Root    189 :    25.437922072730490
 Root    190 :    25.521470444276060
 Root    191 :    25.573078912416080
 Root    192 :    25.573901025122420
 Root    193 :    25.660297124048760
 Root    194 :    25.676016826353130
 Root    195 :    25.755213464273420
 Root    196 :    26.004916234405920
 Root    197 :    26.065744890678700
 Root    198 :    26.162501531096820
 Root    199 :    26.254743101766190
 Root    200 :    26.338910091813850
 Root    201 :    26.353401144481720
 Root    202 :    26.382446442866890
 Root    203 :    26.504044217679210
 Root    204 :    26.538845293813940
 Root    205 :    26.582343001119890
 Root    206 :    26.707066972805990
 Root    207 :    26.776578727125310
 Root    208 :    26.811593748025220
 Root    209 :    26.951683169087400
 Root    210 :    27.006505309218730
 Root    211 :    27.248760336020980
 Root    212 :    27.333415785487030
 Root    213 :    27.385948904541390
 Root    214 :    27.426506028803810
 Root    215 :    27.623560110197810
 Root    216 :    27.749474592811540
 Root    217 :    27.762105790256580
 Root    218 :    27.790340233104290
 Root    219 :    27.902567062511990
 Root    220 :    27.924131467324540
 Root    221 :    28.089104396285880
 Root    222 :    28.129830419641750
 Root    223 :    28.152979975262780
 Root    224 :    28.281594412045140
 Root    225 :    28.448353992095970
 Root    226 :    28.465110847459340
 Root    227 :    28.515577298933540
 Root    228 :    28.590521854862760
 Root    229 :    28.645033396997750
 Root    230 :    28.847567931552860
 Root    231 :    28.940019823032520
 Root    232 :    28.959010855090350
 Root    233 :    29.048636462156270
 Root    234 :    29.057425653160820
 Root    235 :    29.188238521523820
 Root    236 :    29.273624436416170
 Root    237 :    29.412820085682200
 Root    238 :    29.586660207674760
 Root    239 :    29.596985586402330
 Root    240 :    29.784415910786550
 Root    241 :    29.840561511034480
 Root    242 :    29.920732386350490
 Root    243 :    29.958012742677300
 Root    244 :    29.981192204783710
 Root    245 :    30.086869821468130
 Root    246 :    30.485646135635220
 Root    247 :    30.555105403830400
 Root    248 :    30.611707242868610
 Root    249 :    30.677710782892540
 Root    250 :    30.746614101501460
 Root    251 :    30.790944081309880
 Root    252 :    30.915351596376210
 Root    253 :    30.948565224686710
 Root    254 :    31.103164020951040
 Root    255 :    31.160450382266970
 Root    256 :    31.205435080962850
 Root    257 :    31.259051138240460
 Root    258 :    31.297336868736920
 Root    259 :    31.347300760620450
 Root    260 :    31.695426057399330
 Root    261 :    31.823412791416260
 Root    262 :    31.982319271875030
 Root    263 :    32.014016644306140
 Root    264 :    32.141141550294810
 Root    265 :    32.188135313390900
 Root    266 :    32.291781281896650
 Root    267 :    32.356358895148230
 Root    268 :    32.387665174535140
 Root    269 :    32.454629747923430
 Root    270 :    32.572024475691440
 Root    271 :    32.623105385687260
 Root    272 :    32.664534091576100
 Root    273 :    32.803879519578540
 Root    274 :    32.832891832816010
 Root    275 :    32.869407247531180
 Root    276 :    32.932723877976660
 Root    277 :    33.077637956981090
 Root    278 :    33.139801572431920
 Root    279 :    33.273295082254160
 Root    280 :    33.446530651525890
 Root    281 :    33.498691692490380
 Root    282 :    33.573202039662250
 Root    283 :    33.653717065777910
 Root    284 :    33.817843166412980
 Root    285 :    33.938842888351050
 Root    286 :    33.962876329611100
 Root    287 :    34.251320611870180
 Root    288 :    34.269322852202080
 Root    289 :    34.328849667056560
 Root    290 :    34.437006333561560
 Root    291 :    34.582631782547940
 Root    292 :    34.641204011726150
 Root    293 :    34.706222106152520
 Root    294 :    35.048717701085290
 Root    295 :    35.134730194463960
 Root    296 :    35.179469817830280
 Root    297 :    35.420145385109390
 Root    298 :    35.432091803148040
 Root    299 :    35.469042611676810
 Root    300 :    35.611032605695830
 Root    301 :    35.674412040040920
 Root    302 :    35.711713581246760
 Root    303 :    35.855160438322970
 Root    304 :    35.861393718990090
 Root    305 :    36.043953364787240
 Root    306 :    36.092731521248180
 Root    307 :    36.126377187253510
 Root    308 :    36.250399421111650
 Root    309 :    36.525231439750290
 Root    310 :    36.548761889182760
 Root    311 :    36.694376949468400
 Root    312 :    36.768505832312280
 Root    313 :    36.813232391501920
 Root    314 :    36.825182443897720
 Root    315 :    36.915862457064550
 Root    316 :    37.059845551787750
 Root    317 :    37.198436367738750
 Root    318 :    37.266549057860450
 Root    319 :    37.440372270957300
 Root    320 :    37.513278253030480
 Root    321 :    37.519313821007400
 Root    322 :    37.671705355981930
 Root    323 :    37.816793714908750
 Root    324 :    37.854041929757940
 Root    325 :    38.082384013496640
 Root    326 :    38.194590428299680
 Root    327 :    38.378901274427380
 Root    328 :    38.519000103665380
 Root    329 :    38.585028637550550
 Root    330 :    38.733261519526200
 Root    331 :    38.779420027813960
 Root    332 :    38.871107337140260
 Root    333 :    38.970159745073170
 Root    334 :    38.980232545414810
 Root    335 :    39.280780727731500
 Root    336 :    39.283507130961400
 Root    337 :    39.435261291761890
 Root    338 :    39.636103813330340
 Root    339 :    39.726113043727930
 Root    340 :    39.767443250480780
 Root    341 :    39.919750754810100
 Root    342 :    39.981503805874990
 Root    343 :    40.100955973512960
 Root    344 :    40.207297516026670
 Root    345 :    40.238595935987420
 Root    346 :    40.265653182613310
 Root    347 :    40.365147437051240
 Root    348 :    40.475158708907630
 Root    349 :    40.647248146847420
 Root    350 :    40.666434638121330
 Root    351 :    40.790188530563970
 Root    352 :    41.160541086477070
 Root    353 :    41.259158648942330
 Root    354 :    41.499192061677570
 Root    355 :    41.584199773228850
 Root    356 :    41.623214168604740
 Root    357 :    41.858520337465960
 Root    358 :    41.992361592639050
 Root    359 :    42.021509685727230
 Root    360 :    42.103111806263690
 Root    361 :    42.185157224142610
 Root    362 :    42.288797865055730
 Root    363 :    42.324047598260000
 Root    364 :    42.343061292636640
 Root    365 :    42.457945399505260
 Root    366 :    42.744657169485840
 Root    367 :    42.873835067451860
 Root    368 :    42.943848680304620
 Root    369 :    43.141589430403270
 Root    370 :    43.262050855655000
 Root    371 :    43.547007188242340
 Root    372 :    43.639080957358100
 Root    373 :    43.651320123358310
 Root    374 :    43.848552916554240
 Root    375 :    44.104418368242680
 Root    376 :    44.275646124601920
 Root    377 :    44.364070837552450
 Root    378 :    44.449509648146550
 Root    379 :    44.697794919236790
 Root    380 :    44.809214133878830
 Root    381 :    44.947984150131160
 Root    382 :    44.966288860690270
 Root    383 :    45.102089764350530
 Root    384 :    45.230033789617180
 Root    385 :    45.265015358487990
 Root    386 :    45.287210119060140
 Root    387 :    45.518716343893810
 Root    388 :    45.789602830886380
 Root    389 :    46.017122767965580
 Root    390 :    46.161657852989160
 Root    391 :    46.275366800560270
 Root    392 :    46.565751109540730
 Root    393 :    46.811622129264240
 Root    394 :    46.931000699763650
 Root    395 :    47.246499045059760
 Root    396 :    47.438033708187940
 Root    397 :    47.518063528405100
 Root    398 :    47.573555710538770
 Root    399 :    47.782140506636260
 Root    400 :    47.895320546650500
 Root    401 :    48.071287471382830
 Root    402 :    48.136053461583480
 Root    403 :    48.515160493844700
 Root    404 :    48.557591322699520
 Root    405 :    48.726401455035150
 Root    406 :    48.807762256312980
 Root    407 :    49.390645720788040
 Root    408 :    49.457286778841130
 Root    409 :    49.630843787784000
 Root    410 :    50.212313825783500
 Root    411 :    50.229689780372730
 Root    412 :    50.306584898925270
 Root    413 :    50.504789454844680
 Root    414 :    50.523341156838700
 Root    415 :    50.788459634275270
 Root    416 :    51.026071120811600
 Root    417 :    51.184262614311790
 Root    418 :    51.391590828045300
 Root    419 :    51.513763423526620
 Root    420 :    51.589733234827950
 Root    421 :    51.954013866274650
 Root    422 :    52.095959802841780
 Root    423 :    52.574132440437110
 Root    424 :    52.960630306951640
 Root    425 :    53.077232806409220
 Root    426 :    53.306942664212610
 Root    427 :    53.412290618341530
 Root    428 :    53.590248501561480
 Root    429 :    53.592450241402250
 Root    430 :    53.685107094458830
 Root    431 :    53.829477172851180
 Root    432 :    53.942053154018720
 Root    433 :    55.228213556214510
 Root    434 :    55.358300866869590
 Root    435 :    55.499367662847670
 Root    436 :    55.554980366803340
 Root    437 :    55.577014070634810
 Root    438 :    56.489206379467740
 Root    439 :    56.571635905818020
 Root    440 :    56.637114089368670
 Root    441 :    56.831620607134030
 Root    442 :    57.179033283853200
 Root    443 :    57.239759265592700
 Root    444 :    57.403420883741570
 Root    445 :    57.528712274551680
 Root    446 :    57.654217092721820
 Root    447 :    57.806937832487480
 Root    448 :    57.909822676488390
 Root    449 :    57.980452261141400
 Root    450 :    58.164759483562380
 Root    451 :    58.331400343494020
 Root    452 :    58.475630708907470
 Root    453 :    58.593064068263120
 Root    454 :    59.092866565368820
 Root    455 :    59.155288714186850
 Root    456 :    59.195174147050520
 Root    457 :    59.239330284940690
 Root    458 :    59.315525254498730
 Root    459 :    59.455312929851810
 Root    460 :    59.587268862515590
 Root    461 :    59.634296632371300
 Root    462 :    59.870880289521720
 Root    463 :    59.913569790809570
 Root    464 :    60.192255322055520
 Root    465 :    60.195929054309870
 Root    466 :    60.444577893180680
 Root    467 :    60.499170956685020
 Root    468 :    60.633553528596250
 Root    469 :    60.695822281234830
 Root    470 :    60.893343723547940
 Root    471 :    60.976638880058840
 Root    472 :    61.380653096090050
 Root    473 :    61.683452376254290
 Root    474 :    61.757582510054550
 Root    475 :    61.783445292059160
 Root    476 :    62.350762973453430
 Root    477 :    62.368197185404650
 Root    478 :    62.485469580740680
 Root    479 :    62.503664236077650
 Root    480 :    62.631652845782580
 Root    481 :    62.730759048175320
 Root    482 :    62.766530180152240
 Root    483 :    62.854807102763510
 Root    484 :    63.138896790954460
 Root    485 :    63.172573338821170
 Root    486 :    63.321001546696740
 Root    487 :    63.463935928856270
 Root    488 :    63.640659326859900
 Root    489 :    63.779264606698590
 Root    490 :    63.882237874714450
 Root    491 :    64.066480800646590
 Root    492 :    64.443336520230640
 Root    493 :    64.567021680484440
 Root    494 :    64.636021120786710
 Root    495 :    64.687195331726230
 Root    496 :    65.215771912467320
 Root    497 :    65.329828192613680
 Root    498 :    65.336400319410470
 Root    499 :    65.591565795725050
 Root    500 :    65.612457799644120
 Root    501 :    65.747535365068440
 Root    502 :    65.960134362264090
 Root    503 :    66.181857118782600
 Root    504 :    66.334048489358380
 Root    505 :    66.411863998342040
 Root    506 :    66.583402029389620
 Root    507 :    66.818919246759360
 Root    508 :    66.895415134352750
 Root    509 :    66.975047525223500
 Root    510 :    67.109323612047620
 Root    511 :    67.541116322945300
 Root    512 :    67.939012785632930
 Root    513 :    68.108821189115940
 Root    514 :    68.146186652912890
 Root    515 :    68.277205427217440
 Root    516 :    68.598237442385770
 Root    517 :    68.819518982042110
 Root    518 :    69.148536568848500
 Root    519 :    69.254116629603190
 Root    520 :    69.563315379419270
 Root    521 :    69.907289543647650
 Root    522 :    70.009634711803860
 Root    523 :    70.240869658458050
 Root    524 :    70.473714305160700
 Root    525 :    70.589710833586300
 Root    526 :    70.593777281153920
 Root    527 :    70.697014438762340
 Root    528 :    71.108170544418370
 Root    529 :    71.482600166667200
 Root    530 :    71.518072066322560
 Root    531 :    71.801188094043480
 Root    532 :    71.827191509822950
 Root    533 :    72.150040536908490
 Root    534 :    72.356520572856140
 Root    535 :    72.554017725844940
 Root    536 :    72.949127240307190
 Root    537 :    73.139779161119240
 Root    538 :    73.697461886753660
 Root    539 :    73.838219894173590
 Root    540 :    73.963008838764610
 Root    541 :    74.223880026799490
 Root    542 :    74.297459728535290
 Root    543 :    74.374657280622340
 Root    544 :    74.453587695844220
 Root    545 :    75.002417828151340
 Root    546 :    75.498840412949040
 Root    547 :    75.540269742706640
 Root    548 :    75.586551491652260
 Root    549 :    75.924906565986280
 Root    550 :    76.006550007455430
 Root    551 :    76.204965386803850
 Root    552 :    76.625721879004350
 Root    553 :    76.675326745743580
 Root    554 :    76.884965010708740
 Root    555 :    77.229791398058320
 Root    556 :    77.282105983872210
 Root    557 :    77.930251898997500
 Root    558 :    77.931084204575780
 Root    559 :    77.968471751168170
 Root    560 :    78.366283214770280
 Root    561 :    78.521118887369880
 Root    562 :    78.554475142219130
 Root    563 :    78.759205767788130
 Root    564 :    79.107940388620830
 Root    565 :    79.497825669530510
 Root    566 :    79.500488962445630
 Root    567 :    80.004487568996850
 Root    568 :    80.238347270042840
 Root    569 :    80.248612776794030
 Root    570 :    80.356270313426140
 Root    571 :    80.465861074140080
 Root    572 :    80.618472612050440
 Root    573 :    80.808568443810340
 Root    574 :    81.534791703629810
 Root    575 :    81.645563492858030
 Root    576 :    82.056060824394420
 Root    577 :    82.096292368048170
 Root    578 :    83.180443959858170
 Root    579 :    83.432472049567820
 Root    580 :    83.774136685143690
 Root    581 :    84.111961907746520
 Root    582 :    84.301307875497910
 Root    583 :    84.500127399289520
 Root    584 :    84.812967681618300
 Root    585 :    85.360650989064990
 Root    586 :    85.706018590527830
 Root    587 :    85.899838411141660
 Root    588 :    86.184381536857670
 Root    589 :    86.276751991903950
 Root    590 :    86.375237154026910
 Root    591 :    87.440296579227390
 Root    592 :    87.997024315528520
 Root    593 :    88.423763710314420
 Root    594 :    88.542534926223690
 Root    595 :    88.666095558315850
 Root    596 :    88.737220330881580
 Root    597 :    89.126857446288080
 Root    598 :    89.954257253366960
 Root    599 :    90.881319912407890
 Root    600 :    90.982305356095540
 Root    601 :    92.037328113922510
 Root    602 :    92.393060955502730
 Root    603 :    92.787343957257140
 Root    604 :    93.202343115416920
 Root    605 :    93.267678581629230
 Root    606 :    93.559915174891190
 Root    607 :    94.392033780178420
 Root    608 :    95.487642386704760
 Root    609 :    95.944986381527440
 Root    610 :    95.976886827217780
 Root    611 :    95.985941143273930
 Root    612 :    96.820385457928000
 Root    613 :    97.421749135675470
 Root    614 :    97.529511780606430
 Root    615 :    97.786387478826940
 Root    616 :    98.064352748578200
 Root    617 :    98.291189215669350
 Root    618 :    98.359143460259590
 Root    619 :    98.444588169865440
 Root    620 :    99.048339840933750
 Root    621 :    99.201828738436570
 Root    622 :    99.279868256480470
 Root    623 :    99.791978385124030
 Root    624 :   100.251973327285000
 Root    625 :   100.350658107714900
 Root    626 :   100.526958748300100
 Root    627 :   100.750696448479500
 Root    628 :   100.923159414302600
 Root    629 :   101.155622311140300
 Root    630 :   101.652210061007000
 Root    631 :   102.610929633541200
 Root    632 :   102.894670556104500
 Root    633 :   102.982222732058500
 Root    634 :   103.355348787848600
 Root    635 :   103.397248077023400
 Root    636 :   103.661177863690500
 Root    637 :   104.471155828413900
 Root    638 :   104.648692637745800
 Root    639 :   104.856872661126900
 Root    640 :   105.141875759883800
 Root    641 :   105.383425381001900
 Root    642 :   105.896224157662500
 Root    643 :   106.500458469653700
 Root    644 :   106.907029671041300
 Root    645 :   107.435336104289700
 Root    646 :   108.004042073448300
 Root    647 :   108.391512350511200
 Root    648 :   108.922406612583800
 Root    649 :   109.127941137115500
 Root    650 :   109.133771828394100
 Root    651 :   110.010930718794300
 Root    652 :   110.833488206109000
 Root    653 :   111.355254739635000
 Root    654 :   111.648598757753000
 Root    655 :   112.038535815215000
 Root    656 :   112.703053081809000
 Root    657 :   112.855872996695300
 Root    658 :   114.163496447128200
 Root    659 :   114.523940062592800
 Root    660 :   114.625276927009500
 Root    661 :   116.478112989885900
 Root    662 :   117.499645105344000
 Root    663 :   118.998879783008000
 Root    664 :   119.047483071713900
 Root    665 :   119.208768907318000
 Root    666 :   119.909007756734300
 Root    667 :   120.788230371220200
 Root    668 :   122.030716326956500
 Root    669 :   122.294754314242600
 Root    670 :   123.611147083901200
 Root    671 :   124.267201326103500
 Root    672 :   124.697613501795900
 Root    673 :   128.406109915895800
 Root    674 :   130.195788217679700
 Root    675 :   139.031834888372800
 Convergence achieved for final wavefunctions.
 ***********************************************************************
 Excited states from <AA,BB:AA,BB> singles matrix:
 ***********************************************************************
 
 1PDM for each excited state written to RWF  633
 Ground to excited state transition densities written to RWF  633
 Ground to excited state transition electric dipole moments (Au):
       state          X           Y           Z        Dip. S.      Osc.
         1        -0.0000      0.0000     -0.4946      0.2446      0.0448
         2         1.1972     -0.5604      0.0000      1.7472      0.3314
         3         0.0000      0.0000      0.1963      0.0385      0.0077
         4         0.0000     -0.0000      0.1065      0.0113      0.0025
         5         0.0000     -0.0000     -0.0415      0.0017      0.0004
         6         0.0000      0.0000      0.0899      0.0081      0.0019
         7         0.0000     -0.0000      0.0366      0.0013      0.0003
         8        -0.0000      0.0000      0.1956      0.0383      0.0096
         9        -0.0398     -0.0464      0.0000      0.0037      0.0010
        10        -0.0181     -0.1875     -0.0000      0.0355      0.0092
        11        -0.0000     -0.0000      0.6784      0.4602      0.1217
        12        -0.1596     -0.4859      0.0000      0.2616      0.0724
        13         0.0000     -0.0000     -0.2094      0.0439      0.0122
        14        -0.1181     -0.2975     -0.0000      0.1025      0.0289
        15         0.6073     -0.3604     -0.0000      0.4987      0.1417
        16        -0.3014     -0.7801     -0.0000      0.6994      0.2047
        17         0.0000     -0.0000      0.2100      0.0441      0.0130
        18        -0.0000      0.0000     -0.2521      0.0636      0.0189
        19        -0.5342      0.2052      0.0000      0.3274      0.0980
        20         0.0806      0.3558     -0.0000      0.1331      0.0403
        21        -0.0955     -0.4433      0.0000      0.2056      0.0642
        22         0.2932      0.1916     -0.0000      0.1227      0.0389
        23         0.0000     -0.0000      0.3527      0.1244      0.0398
        24        -0.0000     -0.0000     -0.3079      0.0948      0.0305
        25         0.6342     -0.2718      0.0000      0.4761      0.1537
        26         0.0000     -0.0000      0.3397      0.1154      0.0378
        27        -0.0000      0.0000     -0.0508      0.0026      0.0008
        28         0.2708     -0.0986      0.0000      0.0830      0.0274
        29        -0.2941      0.1869      0.0000      0.1214      0.0402
        30        -0.0000      0.0000      0.1473      0.0217      0.0073
        31        -0.0851      0.1301      0.0000      0.0242      0.0082
        32        -0.4091      0.2993      0.0000      0.2570      0.0874
        33        -0.1097     -0.1007      0.0000      0.0222      0.0076
        34        -0.0000     -0.0000     -0.0752      0.0057      0.0020
        35         0.4824      0.0980     -0.0000      0.2423      0.0844
        36         0.0000     -0.0000      0.1240      0.0154      0.0054
        37        -0.1457     -0.6405      0.0000      0.4315      0.1520
        38        -0.0000     -0.0000     -0.1680      0.0282      0.0100
        39        -0.3799      0.0126      0.0000      0.1445      0.0515
        40        -0.0000     -0.0000     -0.0347      0.0012      0.0004
        41        -0.1926     -0.2542     -0.0000      0.1017      0.0368
        42         0.0862     -0.0798     -0.0000      0.0138      0.0051
        43        -0.0000      0.0000     -0.0799      0.0064      0.0024
        44        -0.2082     -0.5392     -0.0000      0.3341      0.1243
        45        -0.2951     -0.1487     -0.0000      0.1092      0.0408
        46        -0.0000     -0.0000     -0.3606      0.1301      0.0489
        47         0.0000      0.0000     -0.2179      0.0475      0.0179
        48         0.3747      0.0592     -0.0000      0.1439      0.0545
        49        -0.3437      0.1713     -0.0000      0.1475      0.0567
        50        -0.0431     -0.0878     -0.0000      0.0096      0.0037
        51        -0.0000     -0.0000     -0.3101      0.0962      0.0374
        52        -0.0000     -0.0000     -0.2557      0.0654      0.0255
        53         0.5552      0.1888     -0.0000      0.3439      0.1343
        54         0.0000      0.0000     -0.1629      0.0265      0.0104
        55        -0.2574     -0.0020     -0.0000      0.0663      0.0261
        56         0.0000      0.0000      0.2246      0.0504      0.0199
        57        -0.0000      0.0000     -0.2290      0.0524      0.0207
        58         0.1251      0.7594      0.0000      0.5924      0.2355
        59        -0.3782     -0.3358     -0.0000      0.2558      0.1022
        60        -0.0000     -0.0000     -0.4833      0.2336      0.0942
        61        -0.3304      0.1028     -0.0000      0.1197      0.0484
        62        -0.0000      0.0000      0.5766      0.3324      0.1343
        63        -0.4439      0.0886      0.0000      0.2049      0.0829
        64         0.0000     -0.0000      0.0559      0.0031      0.0013
        65        -0.0000     -0.0000     -0.1689      0.0285      0.0116
        66        -0.0000      0.0000     -0.1777      0.0316      0.0130
        67        -0.0061     -0.1232     -0.0000      0.0152      0.0063
        68        -0.0000      0.0000     -0.2029      0.0412      0.0170
        69        -0.0728      0.2675     -0.0000      0.0768      0.0320
        70         0.0962      0.1946      0.0000      0.0471      0.0198
        71         0.0503     -0.0026     -0.0000      0.0025      0.0011
        72        -0.0000     -0.0000      0.3801      0.1445      0.0613
        73        -0.0291      0.1658      0.0000      0.0283      0.0120
        74        -0.0897      0.3063      0.0000      0.1019      0.0439
        75         0.1010      0.0207      0.0000      0.0106      0.0046
        76        -0.0000     -0.0000      0.4985      0.2485      0.1074
        77         0.0000     -0.0000     -0.1779      0.0317      0.0137
        78        -0.0000      0.0000     -0.0879      0.0077      0.0034
        79        -0.0000     -0.0000      0.4037      0.1629      0.0713
        80         0.0879      0.0031     -0.0000      0.0077      0.0034
        81         0.0937     -0.1678      0.0000      0.0370      0.0163
        82         0.2233      0.0858      0.0000      0.0572      0.0252
        83         0.1725      0.3571      0.0000      0.1573      0.0696
        84         0.4783      0.2613      0.0000      0.2970      0.1322
        85        -0.0000     -0.0000      0.3429      0.1176      0.0525
        86         0.1816     -0.1403      0.0000      0.0527      0.0236
[...]
     12   0.492593D-01 -0.264431D-01  0.667769D-01 -0.234209D+00 -0.546403D+00
     13   0.179587D+00 -0.130578D-01  0.701434D-01 -0.180183D+00 -0.135045D+00
     14   0.358869D+00  0.866375D-01 -0.381024D+00 -0.528111D+00  0.164164D+00
     15   0.000000D+00  0.000000D+00  0.000000D+00  0.000000D+00  0.000000D+00
     16   0.000000D+00  0.000000D+00  0.000000D+00  0.000000D+00  0.000000D+00
               606           607           608           609           610 
      1  -0.174195D+03 -0.174164D+03 -0.174124D+03 -0.174107D+03 -0.174106D+03
      2   0.000000D+00 -0.310882D-01 -0.111087D-01  0.000000D+00  0.247152D-01
      3   0.000000D+00 -0.518518D-01 -0.137434D-01  0.000000D+00  0.761264D-01
      4  -0.339590D-01  0.000000D+00  0.000000D+00  0.143526D-01  0.000000D+00
      5   0.000000D+00  0.967471D-01  0.319606D-01  0.000000D+00 -0.117427D+00
      6   0.000000D+00  0.156281D+00  0.280346D-01  0.000000D+00 -0.235122D+00
      7   0.104950D+00  0.000000D+00  0.000000D+00 -0.400164D-01  0.000000D+00
      8  -0.158274D+00  0.000000D+00  0.000000D+00 -0.412433D-01  0.000000D+00
      9   0.228140D+00  0.000000D+00  0.000000D+00 -0.106302D+00  0.000000D+00
     10   0.000000D+00 -0.826623D-01  0.183420D+00  0.000000D+00 -0.202696D+00
     11   0.000000D+00  0.443789D+00  0.889219D+00  0.000000D+00  0.433305D+00
     12   0.000000D+00  0.120700D+00 -0.100856D-02  0.000000D+00 -0.432641D+00
     13   0.000000D+00 -0.767950D-01 -0.583483D-01  0.000000D+00 -0.754148D+00
     14   0.000000D+00 -0.485502D+00  0.292268D+00  0.000000D+00  0.300200D+00
     15  -0.216636D+00  0.000000D+00  0.000000D+00  0.115375D+00  0.000000D+00
     16  -0.235015D+00  0.000000D+00  0.000000D+00 -0.191167D-01  0.000000D+00
               611           612           613           614           615 
      1  -0.174105D+03 -0.174075D+03 -0.174053D+03 -0.174049D+03 -0.174039D+03
      2   0.343833D-01 -0.405515D-01 -0.114045D-01  0.000000D+00 -0.626699D-01
      3  -0.514114D-01  0.295135D-01 -0.332131D-01  0.000000D+00  0.627227D-01
      4   0.000000D+00  0.000000D+00  0.000000D+00  0.647114D-02  0.000000D+00
      5  -0.150631D+00  0.118258D+00  0.218141D-01  0.000000D+00  0.199114D+00
      6   0.127321D+00 -0.775712D-01  0.973704D-01  0.000000D+00 -0.206724D+00
      7   0.000000D+00  0.000000D+00  0.000000D+00 -0.526003D-01  0.000000D+00
      8   0.000000D+00  0.000000D+00  0.000000D+00  0.899355D-01  0.000000D+00
      9   0.000000D+00  0.000000D+00  0.000000D+00 -0.208676D+00  0.000000D+00
     10   0.195673D+00 -0.164353D+00  0.828185D-01  0.000000D+00  0.190444D+00
     11   0.523731D+00 -0.100954D+01 -0.386266D+00  0.000000D+00 -0.462200D+00
     12  -0.528525D+00  0.210381D+00 -0.294648D+00  0.000000D+00  0.255929D+00
     13  -0.637502D+00  0.410591D-01 -0.123033D+00  0.000000D+00  0.978964D-01
     14   0.473660D+00 -0.332479D+00  0.117871D+00  0.000000D+00  0.386778D-01
     15   0.000000D+00  0.000000D+00  0.000000D+00  0.338685D+00  0.000000D+00
     16   0.000000D+00  0.000000D+00  0.000000D+00  0.169558D+00  0.000000D+00
               616           617           618           619           620 
      1  -0.174029D+03 -0.174021D+03 -0.174018D+03 -0.174015D+03 -0.173993D+03
      2   0.000000D+00 -0.584123D-01  0.624095D-01 -0.115360D-01  0.115076D-01
      3   0.000000D+00  0.534753D-01  0.757589D-01 -0.228948D-01  0.311249D-01
      4  -0.414576D-01  0.000000D+00  0.000000D+00  0.000000D+00  0.000000D+00
      5   0.000000D+00  0.160678D+00 -0.187324D+00  0.274925D-01 -0.535933D-01
      6   0.000000D+00 -0.163809D+00 -0.217212D+00  0.610002D-01 -0.135689D+00
      7   0.136470D+00  0.000000D+00  0.000000D+00  0.000000D+00  0.000000D+00
      8   0.115824D-01  0.000000D+00  0.000000D+00  0.000000D+00  0.000000D+00
      9   0.236861D+00  0.000000D+00  0.000000D+00  0.000000D+00  0.000000D+00
     10   0.000000D+00  0.492461D+00  0.220910D-01 -0.150508D-01  0.413140D+00
     11   0.000000D+00 -0.880081D+00 -0.115870D+01  0.451539D-03  0.138513D+00
     12   0.000000D+00  0.275385D+00  0.136756D-01  0.321977D-01  0.376847D-01
     13   0.000000D+00 -0.796433D-01 -0.159036D+00 -0.121523D+00 -0.331347D+00
     14   0.000000D+00  0.414835D+00 -0.708729D-01  0.149975D-01  0.632662D+00
     15  -0.198450D+00  0.000000D+00  0.000000D+00  0.000000D+00  0.000000D+00
     16   0.311260D-01  0.000000D+00  0.000000D+00  0.000000D+00  0.000000D+00
               621           622           623           624           625 
      1  -0.173987D+03 -0.173984D+03 -0.173965D+03 -0.173949D+03 -0.173945D+03
      2  -0.482428D-01  0.000000D+00 -0.245612D-01  0.942381D-01  0.000000D+00
      3   0.187674D-01  0.000000D+00  0.246550D-01 -0.226109D-01  0.000000D+00
      4   0.000000D+00 -0.747776D-02  0.000000D+00  0.000000D+00  0.205306D+00
      5   0.143805D+00  0.000000D+00  0.677189D-01 -0.311527D+00  0.000000D+00
      6  -0.417839D-01  0.000000D+00 -0.786466D-01  0.668655D-01  0.000000D+00
      7   0.000000D+00  0.736679D-02  0.000000D+00  0.000000D+00 -0.675996D+00
      8   0.000000D+00 -0.101883D-02  0.000000D+00  0.000000D+00  0.233670D+00
      9   0.000000D+00 -0.258777D-01  0.000000D+00  0.000000D+00 -0.129709D+01
     10  -0.292163D-01  0.000000D+00  0.662566D+00 -0.408931D+00  0.000000D+00
     11   0.402934D+00  0.000000D+00  0.391301D+00  0.157144D+01  0.000000D+00
     12  -0.220753D+00  0.000000D+00 -0.239654D-01  0.179767D+00  0.000000D+00
     13   0.153229D+00  0.000000D+00 -0.114724D+00 -0.747428D-01  0.000000D+00
     14  -0.146839D+00  0.000000D+00  0.731354D+00  0.748019D-01  0.000000D+00
     15   0.000000D+00  0.857706D-01  0.000000D+00  0.000000D+00  0.117602D+01
     16   0.000000D+00  0.284759D-01  0.000000D+00  0.000000D+00  0.163996D+00
               626           627           628           629           630 
      1  -0.173938D+03 -0.173930D+03 -0.173924D+03 -0.173915D+03 -0.173897D+03
      2   0.000000D+00 -0.198662D-01  0.000000D+00  0.819503D-01  0.000000D+00
      3   0.000000D+00 -0.681579D-01  0.000000D+00  0.311808D-01  0.000000D+00
      4   0.597676D-01  0.000000D+00 -0.149223D-01  0.000000D+00  0.223357D-01
      5   0.000000D+00  0.535039D-01  0.000000D+00 -0.254628D+00  0.000000D+00
      6   0.000000D+00  0.246667D+00  0.000000D+00 -0.132292D+00  0.000000D+00
      7  -0.185846D+00  0.000000D+00  0.510941D-01  0.000000D+00 -0.657227D-01
      8   0.205306D-01  0.000000D+00 -0.220841D-01  0.000000D+00  0.144668D-01
      9  -0.267885D+00  0.000000D+00  0.869252D-01  0.000000D+00 -0.121650D+00
     10   0.000000D+00 -0.175375D+00  0.000000D+00  0.258862D+00  0.000000D+00
     11   0.000000D+00 -0.105428D+01  0.000000D+00  0.620555D+00  0.000000D+00
     12   0.000000D+00 -0.247170D+00  0.000000D+00  0.302662D+00  0.000000D+00
     13   0.000000D+00  0.598294D-01  0.000000D+00 -0.221121D-01  0.000000D+00
     14   0.000000D+00 -0.547365D+00  0.000000D+00  0.470009D+00  0.000000D+00
     15   0.229073D+00  0.000000D+00 -0.761505D-02  0.000000D+00  0.112615D+00
     16  -0.140697D+00  0.000000D+00 -0.702811D-01  0.000000D+00 -0.475324D-01
               631           632           633           634           635 
      1  -0.173862D+03 -0.173851D+03 -0.173848D+03 -0.173835D+03 -0.173833D+03
      2  -0.775542D-02 -0.203528D-01  0.000000D+00 -0.130125D-01  0.000000D+00
      3   0.210667D-01  0.902599D-02  0.000000D+00 -0.311672D-01  0.000000D+00
      4   0.000000D+00  0.000000D+00 -0.727681D-01  0.000000D+00  0.456308D-01
      5   0.311417D-01  0.751875D-01  0.000000D+00  0.416935D-01  0.000000D+00
      6  -0.567872D-01 -0.491227D-01  0.000000D+00  0.983935D-01  0.000000D+00
      7   0.000000D+00  0.000000D+00  0.236795D+00  0.000000D+00 -0.140394D+00
      8   0.000000D+00  0.000000D+00 -0.120818D+00  0.000000D+00  0.647253D-01
      9   0.000000D+00  0.000000D+00  0.473714D+00  0.000000D+00 -0.260583D+00
     10   0.107551D-01  0.673937D+00  0.000000D+00  0.110374D+00  0.000000D+00
     11   0.988253D-01 -0.426076D+00  0.000000D+00 -0.179394D+00  0.000000D+00
     12   0.657271D-01  0.203528D+00  0.000000D+00  0.179814D-01  0.000000D+00
     13   0.614485D-01 -0.467465D-01  0.000000D+00 -0.872210D-01  0.000000D+00
     14   0.123902D-01  0.596318D+00  0.000000D+00  0.211159D+00  0.000000D+00
     15   0.000000D+00  0.000000D+00 -0.390598D+00  0.000000D+00  0.983248D-01
     16   0.000000D+00  0.000000D+00  0.592098D-02  0.000000D+00  0.686171D-01
               636           637           638           639           640 
      1  -0.173823D+03 -0.173794D+03 -0.173787D+03 -0.173779D+03 -0.173769D+03
      2   0.909635D-01  0.000000D+00  0.210540D+00  0.000000D+00  0.000000D+00
      3  -0.215188D+00  0.000000D+00 -0.288267D-01  0.000000D+00  0.000000D+00
      4   0.000000D+00  0.397673D-01  0.000000D+00 -0.483963D-01 -0.926531D-01
      5  -0.294473D+00  0.000000D+00 -0.699807D+00  0.000000D+00  0.000000D+00
      6   0.707099D+00  0.000000D+00  0.815301D-01  0.000000D+00  0.000000D+00
      7   0.000000D+00 -0.137654D+00  0.000000D+00  0.154412D+00  0.290764D+00
      8   0.000000D+00  0.664565D-01  0.000000D+00 -0.878368D-01 -0.109109D+00
      9   0.000000D+00 -0.300012D+00  0.000000D+00  0.270279D+00  0.637754D+00
     10  -0.145229D+01  0.000000D+00 -0.301442D+00  0.000000D+00  0.000000D+00
     11   0.893444D+00  0.000000D+00  0.286403D+01  0.000000D+00  0.000000D+00
     12  -0.259889D+00  0.000000D+00  0.142770D+00  0.000000D+00  0.000000D+00
     13  -0.934749D-01  0.000000D+00  0.105569D+00  0.000000D+00  0.000000D+00
     14  -0.119550D+01  0.000000D+00  0.233533D+00  0.000000D+00  0.000000D+00
     15   0.000000D+00  0.340589D+00  0.000000D+00 -0.299104D+00 -0.590127D+00
     16   0.000000D+00  0.169930D+00  0.000000D+00 -0.994664D-01  0.296897D-01
               641           642           643           644           645 
      1  -0.173760D+03 -0.173741D+03 -0.173719D+03 -0.173704D+03 -0.173685D+03
      2  -0.595078D-01 -0.965820D-01  0.000000D+00  0.000000D+00 -0.440684D-01
      3   0.119595D+00  0.267064D+00  0.000000D+00  0.000000D+00 -0.213392D-01
      4   0.000000D+00  0.000000D+00  0.975099D-01  0.237755D-01  0.000000D+00
      5   0.206095D+00  0.325399D+00  0.000000D+00  0.000000D+00  0.151411D+00
      6  -0.400749D+00 -0.904677D+00  0.000000D+00  0.000000D+00  0.650671D-01
      7   0.000000D+00  0.000000D+00 -0.331022D+00 -0.848865D-01  0.000000D+00
      8   0.000000D+00  0.000000D+00  0.168511D+00  0.439400D-01  0.000000D+00
      9   0.000000D+00  0.000000D+00 -0.683147D+00 -0.156651D+00  0.000000D+00
     10   0.653179D+00  0.178349D+01  0.000000D+00  0.000000D+00  0.381423D+00
     11  -0.450797D+00 -0.164284D+01  0.000000D+00  0.000000D+00 -0.510082D+00
     12   0.468273D+00  0.820790D+00  0.000000D+00  0.000000D+00 -0.227718D+00
     13  -0.133950D+00  0.587615D-01  0.000000D+00  0.000000D+00  0.107049D+00
     14   0.516646D+00  0.149343D+01  0.000000D+00  0.000000D+00  0.400091D+00
     15   0.000000D+00  0.000000D+00  0.643715D+00  0.277295D+00  0.000000D+00
     16   0.000000D+00  0.000000D+00  0.189778D+00 -0.563642D-01  0.000000D+00
               646           647           648           649           650 
      1  -0.173664D+03 -0.173649D+03 -0.173630D+03 -0.173622D+03 -0.173622D+03
      2   0.992817D-01  0.000000D+00 -0.580221D-01  0.000000D+00  0.629541D-01
      3  -0.190592D-01  0.000000D+00 -0.814783D-01  0.000000D+00  0.212871D+00
      4   0.000000D+00  0.215340D+00  0.000000D+00 -0.765435D-02  0.000000D+00
      5  -0.340348D+00  0.000000D+00  0.204230D+00  0.000000D+00 -0.253476D+00
      6   0.609071D-01  0.000000D+00  0.303628D+00  0.000000D+00 -0.739159D+00
      7   0.000000D+00 -0.766596D+00  0.000000D+00  0.252819D-01  0.000000D+00
      8   0.000000D+00  0.404437D+00  0.000000D+00  0.126792D-01  0.000000D+00
      9   0.000000D+00 -0.164525D+01  0.000000D+00  0.636220D-01  0.000000D+00
     10  -0.485571D+00  0.000000D+00 -0.777540D+00  0.000000D+00  0.118255D+01
     11   0.139388D+01  0.000000D+00 -0.836068D+00  0.000000D+00  0.172900D+01
     12  -0.867437D-01  0.000000D+00 -0.805948D+00  0.000000D+00  0.667414D+00
     13   0.163796D+00  0.000000D+00 -0.426460D-01  0.000000D+00 -0.998241D-01
     14  -0.985886D-01  0.000000D+00 -0.106376D+01  0.000000D+00  0.174923D+01
     15   0.000000D+00  0.172254D+01  0.000000D+00 -0.823870D-01  0.000000D+00
     16   0.000000D+00  0.486329D+00  0.000000D+00 -0.229324D-01  0.000000D+00
               651           652           653           654           655 
      1  -0.173590D+03 -0.173560D+03 -0.173541D+03 -0.173530D+03 -0.173515D+03
      2   0.206020D+00  0.000000D+00  0.405281D-01  0.163889D-01  0.000000D+00
      3   0.732018D-02  0.000000D+00  0.469439D-01  0.177574D+00  0.000000D+00
      4   0.000000D+00 -0.383984D+00  0.000000D+00  0.000000D+00  0.281636D-01
      5  -0.756087D+00  0.000000D+00 -0.143190D+00 -0.772824D-01  0.000000D+00
      6  -0.418098D-01  0.000000D+00 -0.181588D+00 -0.641335D+00  0.000000D+00
      7   0.000000D+00  0.136598D+01  0.000000D+00  0.000000D+00 -0.106011D+00
      8   0.000000D+00 -0.709591D+00  0.000000D+00  0.000000D+00  0.652625D-01
      9   0.000000D+00  0.293225D+01  0.000000D+00  0.000000D+00 -0.286183D+00
     10  -0.358563D+00  0.000000D+00  0.434922D+00  0.158746D+01  0.000000D+00
     11   0.258727D+01  0.000000D+00  0.230453D+00  0.380945D+00  0.000000D+00
     12   0.703568D-01  0.000000D+00  0.382435D+00  0.623142D+00  0.000000D+00
     13  -0.522774D-02  0.000000D+00 -0.219357D+00  0.894797D-01  0.000000D+00
     14   0.371916D+00  0.000000D+00  0.536054D+00  0.169106D+01  0.000000D+00
     15   0.000000D+00 -0.318259D+01  0.000000D+00  0.000000D+00  0.388011D+00
     16   0.000000D+00 -0.881435D+00  0.000000D+00  0.000000D+00 -0.631184D-01
               656           657           658           659           660 
      1  -0.173491D+03 -0.173485D+03 -0.173437D+03 -0.173424D+03 -0.173420D+03
      2  -0.158936D+00 -0.384409D-01  0.000000D+00  0.326286D-01  0.000000D+00
      3   0.674502D-01  0.159982D-01  0.000000D+00 -0.869826D-01  0.000000D+00
      4   0.000000D+00  0.000000D+00  0.268031D-01  0.000000D+00 -0.224301D+00
      5   0.589013D+00  0.140075D+00  0.000000D+00 -0.118787D+00  0.000000D+00
      6  -0.238087D+00 -0.504568D-01  0.000000D+00  0.317930D+00  0.000000D+00
      7   0.000000D+00  0.000000D+00 -0.111467D+00  0.000000D+00  0.810371D+00
      8   0.000000D+00  0.000000D+00  0.545111D-01  0.000000D+00 -0.298516D+00
      9   0.000000D+00  0.000000D+00 -0.303539D+00  0.000000D+00  0.161712D+01
     10   0.104000D+01  0.713998D-01  0.000000D+00 -0.707013D+00  0.000000D+00
     11  -0.315265D+01 -0.719301D+00  0.000000D+00  0.741650D+00  0.000000D+00
     12   0.601100D+00  0.447945D-01  0.000000D+00 -0.504621D+00  0.000000D+00
     13  -0.524343D-01  0.165026D+00  0.000000D+00 -0.242369D-01  0.000000D+00
     14   0.398268D+00 -0.513785D-01  0.000000D+00 -0.503073D+00  0.000000D+00
     15   0.000000D+00  0.000000D+00  0.242731D+00  0.000000D+00 -0.174513D+01
     16   0.000000D+00  0.000000D+00  0.499299D-01  0.000000D+00 -0.324751D+00
               661           662           663           664           665 
      1  -0.173352D+03 -0.173315D+03 -0.173260D+03 -0.173258D+03 -0.173252D+03
      2   0.123071D-01  0.205848D+00  0.000000D+00 -0.351796D-01  0.115144D-01
      3  -0.685937D-02 -0.232136D+00  0.000000D+00 -0.782137D-01 -0.141409D+00
      4   0.000000D+00  0.000000D+00 -0.240783D+00  0.000000D+00  0.000000D+00
      5  -0.376239D-01 -0.786771D+00  0.000000D+00  0.154819D+00 -0.462398D-01
      6   0.143162D-01  0.870984D+00  0.000000D+00  0.317439D+00  0.550809D+00
      7   0.000000D+00  0.000000D+00  0.928421D+00  0.000000D+00  0.000000D+00
      8   0.000000D+00  0.000000D+00 -0.495001D+00  0.000000D+00  0.000000D+00
      9   0.000000D+00  0.000000D+00  0.200675D+01  0.000000D+00  0.000000D+00
     10   0.615146D-01 -0.218726D+01  0.000000D+00 -0.572006D+00 -0.114716D+01
     11  -0.928369D-01  0.326264D+01  0.000000D+00 -0.107814D+01  0.850382D+00
     12   0.219416D+00 -0.886449D+00  0.000000D+00 -0.394401D+00 -0.738616D+00
     13   0.667876D-01  0.128850D-03  0.000000D+00  0.273096D-02 -0.104823D+00
     14   0.113008D+00 -0.155775D+01  0.000000D+00 -0.708283D+00 -0.117339D+01
     15   0.000000D+00  0.000000D+00 -0.225223D+01  0.000000D+00  0.000000D+00
     16   0.000000D+00  0.000000D+00 -0.685215D+00  0.000000D+00  0.000000D+00
               666           667           668           669           670 
      1  -0.173226D+03 -0.173194D+03 -0.173148D+03 -0.173139D+03 -0.173090D+03
      2   0.862352D-02  0.159578D+00  0.167492D+00  0.000000D+00  0.783015D-03
      3   0.601649D-01 -0.258179D-01  0.153435D+00  0.000000D+00 -0.340560D-01
      4   0.000000D+00  0.000000D+00  0.000000D+00 -0.491355D-02  0.000000D+00
      5  -0.452992D-01 -0.643416D+00 -0.699484D+00  0.000000D+00  0.862699D-03
      6  -0.229584D+00  0.962298D-01 -0.628468D+00  0.000000D+00  0.133577D+00
      7   0.000000D+00  0.000000D+00  0.000000D+00  0.193343D-01  0.000000D+00
      8   0.000000D+00  0.000000D+00  0.000000D+00 -0.780246D-02  0.000000D+00
      9   0.000000D+00  0.000000D+00  0.000000D+00  0.413633D-01  0.000000D+00
     10   0.421149D+00 -0.594305D+00  0.118876D+01  0.000000D+00 -0.284334D+00
     11   0.450906D+00  0.315359D+01  0.246961D+01  0.000000D+00  0.874785D-01
     12   0.382807D+00 -0.560571D+00  0.668310D+00  0.000000D+00  0.488081D+00
     13  -0.473072D+00  0.326247D-01 -0.440173D-02  0.000000D+00 -0.521128D+00
     14   0.201708D+00 -0.164548D-01  0.173249D+01  0.000000D+00 -0.449977D+00
     15   0.000000D+00  0.000000D+00  0.000000D+00 -0.404179D+00  0.000000D+00
     16   0.000000D+00  0.000000D+00  0.000000D+00  0.645221D+00  0.000000D+00
               671           672           673           674           675 
      1  -0.173066D+03 -0.173050D+03 -0.172914D+03 -0.172848D+03 -0.172523D+03
      2  -0.173000D+00  0.000000D+00 -0.604013D-02  0.312588D-01 -0.207146D-01
      3  -0.104534D+00  0.000000D+00 -0.781657D-02 -0.289456D-01 -0.108070D-01
      4   0.000000D+00 -0.796437D-01  0.000000D+00  0.000000D+00  0.000000D+00
      5   0.792935D+00  0.000000D+00  0.669097D-01 -0.145495D+00  0.168608D+00
      6   0.480759D+00  0.000000D+00  0.624609D-01  0.120899D+00  0.964524D-01
      7   0.000000D+00  0.307341D+00  0.000000D+00  0.000000D+00  0.000000D+00
      8   0.000000D+00 -0.142004D+00  0.000000D+00  0.000000D+00  0.000000D+00
      9   0.000000D+00  0.629774D+00  0.000000D+00  0.000000D+00  0.000000D+00
     10  -0.585981D+00  0.000000D+00 -0.111064D+00 -0.415470D+00 -0.144275D+00
     11  -0.391748D+01  0.000000D+00 -0.818830D+00  0.367184D+00 -0.469776D+00
     12  -0.531198D+00  0.000000D+00 -0.393558D+00  0.978735D-01 -0.114660D+00
     13   0.113681D+00  0.000000D+00  0.999890D-01  0.469601D-01 -0.154098D+00
     14  -0.179625D+01  0.000000D+00 -0.589583D+00 -0.185049D-01 -0.354165D-01
     15   0.000000D+00 -0.148572D+00  0.000000D+00  0.000000D+00  0.000000D+00
     16   0.000000D+00  0.103393D+00  0.000000D+00  0.000000D+00  0.000000D+00
 Unable to Open any file for archive entry.
 1\1\GINC-HEL13\SP\RCAM-B3LYP TD-FC\Gen\C2H3F1\SABYASACHI\21-Mar-2022\0
 \\#P TD(Nstates=10000) cam-b3lyp/Gen SCF(maxcycles=100) Int(Grid=ultra
 fine)\\xGDB7_00001_tier4.com\\0,1\F,0,-1.139724,-0.269725,0.\C,0,0.,0.
 430281,0.\C,0,1.180852,-0.14876,0.\H,0,-0.18045,1.498331,0.\H,0,1.2836
 34,-1.22517,0.\H,0,2.069222,0.465238,0.\\Version=EM64L-G16RevC.01\Stat
 e=1-A'\HF=-177.6327724\RMSD=4.598e-09\PG=CS [SG(C2H3F1)]\\@
 The archive entry for this job was punched.


 THE CAUTIOUS SELDOM ERR...CONFUCIUS                   
 Job cpu time:       0 days  0 hours  7 minutes 18.6 seconds.
 Elapsed time:       0 days  0 hours  0 minutes 55.1 seconds.
 File lengths (MBytes):  RWF=    584 Int=      0 D2E=      0 Chk=    127 Scr=      1
 Normal termination of Gaussian 16 at Mon Mar 21 04:13:38 2022.
