 Entering Gaussian System, Link 0=g16
 Input=000023.com
 Output=000023.log
 Initial command:
 /home/sabyasachi/g16/l1.exe "/scratch/sabyasachi/PBS_7976553.helios/Gau-160097.inp" -scrdir="/scratch/sabyasachi/PBS_7976553.helios/"
 Entering Link 1 = /home/sabyasachi/g16/l1.exe PID=    160098.
  
 Copyright (c) 1988-2019, Gaussian, Inc.  All Rights Reserved.
  
 This is part of the Gaussian(R) 16 program.  It is based on
 the Gaussian(R) 09 system (copyright 2009, Gaussian, Inc.),
 the Gaussian(R) 03 system (copyright 2003, Gaussian, Inc.),
 the Gaussian(R) 98 system (copyright 1998, Gaussian, Inc.),
 the Gaussian(R) 94 system (copyright 1995, Gaussian, Inc.),
 the Gaussian 92(TM) system (copyright 1992, Gaussian, Inc.),
 the Gaussian 90(TM) system (copyright 1990, Gaussian, Inc.),
 the Gaussian 88(TM) system (copyright 1988, Gaussian, Inc.),
 the Gaussian 86(TM) system (copyright 1986, Carnegie Mellon
 University), and the Gaussian 82(TM) system (copyright 1983,
 Carnegie Mellon University). Gaussian is a federally registered
 trademark of Gaussian, Inc.
  
 This software contains proprietary and confidential information,
 including trade secrets, belonging to Gaussian, Inc.
  
 This software is provided under written license and may be
 used, copied, transmitted, or stored only in accord with that
 written license.
  
 The following legend is applicable only to US Government
 contracts under FAR:
  
                    RESTRICTED RIGHTS LEGEND
  
 Use, reproduction and disclosure by the US Government is
 subject to restrictions as set forth in subparagraphs (a)
 and (c) of the Commercial Computer Software - Restricted
 Rights clause in FAR 52.227-19.
  
 Gaussian, Inc.
 340 Quinnipiac St., Bldg. 40, Wallingford CT 06492
  
  
 ---------------------------------------------------------------
 Warning -- This program may not be used in any manner that
 competes with the business of Gaussian, Inc. or will provide
 assistance to any competitor of Gaussian, Inc.  The licensee
 of this program is prohibited from giving any competitor of
 Gaussian, Inc. access to this program.  By using this program,
 the user acknowledges that Gaussian, Inc. is engaged in the
 business of creating and licensing software in the field of
 computational chemistry and represents and warrants to the
 licensee that it is not a competitor of Gaussian, Inc. and that
 it will not use this program in any manner prohibited above.
 ---------------------------------------------------------------
  

 Cite this work as:
 Gaussian 16, Revision C.01,
 M. J. Frisch, G. W. Trucks, H. B. Schlegel, G. E. Scuseria, 
 M. A. Robb, J. R. Cheeseman, G. Scalmani, V. Barone, 
 G. A. Petersson, H. Nakatsuji, X. Li, M. Caricato, A. V. Marenich, 
 J. Bloino, B. G. Janesko, R. Gomperts, B. Mennucci, H. P. Hratchian, 
 J. V. Ortiz, A. F. Izmaylov, J. L. Sonnenberg, D. Williams-Young, 
 F. Ding, F. Lipparini, F. Egidi, J. Goings, B. Peng, A. Petrone, 
 T. Henderson, D. Ranasinghe, V. G. Zakrzewski, J. Gao, N. Rega, 
 G. Zheng, W. Liang, M. Hada, M. Ehara, K. Toyota, R. Fukuda, 
 J. Hasegawa, M. Ishida, T. Nakajima, Y. Honda, O. Kitao, H. Nakai, 
 T. Vreven, K. Throssell, J. A. Montgomery, Jr., J. E. Peralta, 
 F. Ogliaro, M. J. Bearpark, J. J. Heyd, E. N. Brothers, K. N. Kudin, 
 V. N. Staroverov, T. A. Keith, R. Kobayashi, J. Normand, 
 K. Raghavachari, A. P. Rendell, J. C. Burant, S. S. Iyengar, 
 J. Tomasi, M. Cossi, J. M. Millam, M. Klene, C. Adamo, R. Cammi, 
 J. W. Ochterski, R. L. Martin, K. Morokuma, O. Farkas, 
 J. B. Foresman, and D. J. Fox, Gaussian, Inc., Wallingford CT, 2019.
 
 ******************************************
 Gaussian 16:  EM64L-G16RevC.01  3-Jul-2019
                21-Mar-2022 
 ******************************************
 %mem=64gb
 %nproc=8
 Will use up to    8 processors via shared memory.
 ----------------------------------------------------------------------
 #P TD(Nstates=10000) tpsstpss/Gen SCF(maxcycles=100) Int(Grid=ultrafin
 e)
 ----------------------------------------------------------------------
 1/38=1,172=1/1;
 2/12=2,17=6,18=5,40=1/2;
 3/5=7,11=9,25=1,30=1,74=2523,75=-5/1,2,3,8;
 4//1;
 5/5=2,7=100,38=5/2;
 8/6=1,10=1,108=10000/1;
 9/41=10000,42=1,70=2/14;
 6/7=2,8=2,9=2,10=2/1;
 99/5=1,9=1/99;
 Leave Link    1 at Mon Mar 21 20:26:51 2022, MaxMem=  8589934592 cpu:               0.4 elap:               0.1
 (Enter /home/sabyasachi/g16/l101.exe)
 ---------------------
 xGDB7_00001_tier4.com
 ---------------------
 Symbolic Z-matrix:
 Charge =  0 Multiplicity = 1
 6                     0.        0.       -1.17365 
 6                     0.        0.        0.28099 
 7                     0.        0.        1.42744 
 1                     0.        1.02409  -1.54537 
 1                    -0.88689  -0.51204  -1.54537 
 1                     0.88689  -0.51204  -1.54537 
 
 ITRead=  0  0  0  0  0  0
 MicOpt= -1 -1 -1 -1 -1 -1
 NAtoms=      6 NQM=        6 NQMF=       0 NMMI=      0 NMMIF=      0
                NMic=       0 NMicF=      0.
                    Isotopes and Nuclear Properties:
 (Nuclear quadrupole moments (NQMom) in fm**2, nuclear magnetic moments (NMagM)
  in nuclear magnetons)

  Atom         1           2           3           4           5           6
 IAtWgt=          12          12          14           1           1           1
 AtmWgt=  12.0000000  12.0000000  14.0030740   1.0078250   1.0078250   1.0078250
 NucSpn=           0           0           2           1           1           1
 AtZEff=  -0.0000000  -0.0000000  -0.0000000  -0.0000000  -0.0000000  -0.0000000
 NQMom=    0.0000000   0.0000000   2.0440000   0.0000000   0.0000000   0.0000000
 NMagM=    0.0000000   0.0000000   0.4037610   2.7928460   2.7928460   2.7928460
 AtZNuc=   6.0000000   6.0000000   7.0000000   1.0000000   1.0000000   1.0000000
 Leave Link  101 at Mon Mar 21 20:26:51 2022, MaxMem=  8589934592 cpu:               0.6 elap:               0.1
 (Enter /home/sabyasachi/g16/l202.exe)
                          Input orientation:                          
 ---------------------------------------------------------------------
 Center     Atomic      Atomic             Coordinates (Angstroms)
 Number     Number       Type             X           Y           Z
 ---------------------------------------------------------------------
      1          6           0        0.000000    0.000000   -1.173653
      2          6           0        0.000000    0.000000    0.280989
      3          7           0        0.000000    0.000000    1.427442
      4          1           0        0.000000    1.024088   -1.545371
      5          1           0       -0.886886   -0.512044   -1.545371
      6          1           0        0.886886   -0.512044   -1.545371
 ---------------------------------------------------------------------
                    Distance matrix (angstroms):
                    1          2          3          4          5
     1  C    0.000000
     2  C    1.454642   0.000000
     3  N    2.601095   1.146453   0.000000
     4  H    1.089463   2.093883   3.144260   0.000000
     5  H    1.089463   2.093883   3.144260   1.773772   0.000000
     6  H    1.089463   2.093883   3.144260   1.773772   1.773772
                    6
     6  H    0.000000
 Stoichiometry    C2H3N
 Framework group  C3V[C3(CCN),3SGV(H)]
 Deg. of freedom     4
 Full point group                 C3V     NOp   6
 Largest Abelian subgroup         CS      NOp   2
 Largest concise Abelian subgroup CS      NOp   2
                         Standard orientation:                         
 ---------------------------------------------------------------------
 Center     Atomic      Atomic             Coordinates (Angstroms)
 Number     Number       Type             X           Y           Z
 ---------------------------------------------------------------------
      1          6           0        0.000000    0.000000   -1.173653
      2          6           0        0.000000    0.000000    0.280989
      3          7           0        0.000000    0.000000    1.427442
      4          1           0        0.000000    1.024088   -1.545371
      5          1           0       -0.886886   -0.512044   -1.545371
      6          1           0        0.886886   -0.512044   -1.545371
 ---------------------------------------------------------------------
 Rotational constants (GHZ):         159.3808899           9.3073631           9.3073631
 Leave Link  202 at Mon Mar 21 20:26:51 2022, MaxMem=  8589934592 cpu:               0.1 elap:               0.0
 (Enter /home/sabyasachi/g16/l301.exe)
 General basis read from cards:  (5D, 7F)
 Centers:       4      5      6
 S 3 1.00
     Exponent=  1.3010701000D+01 Coefficients=  1.9682158000D-02
     Exponent=  1.9622572000D+00 Coefficients=  1.3796524000D-01
     Exponent=  4.4453796000D-01 Coefficients=  4.7831935000D-01
 S 1 1.00
     Exponent=  1.2194962000D-01 Coefficients=  1.0000000000D+00
 P 1 1.00
     Exponent=  8.0000000000D-01 Coefficients=  1.0000000000D+00
 P 1 1.00
     Exponent=  1.1704099050D-01 Coefficients=  1.0000000000D+00
 ****
 Centers:       1      2
 S 5 1.00
     Exponent=  1.2384016938D+03 Coefficients=  5.4568832082D-03
     Exponent=  1.8629004992D+02 Coefficients=  4.0638409211D-02
     Exponent=  4.2251176346D+01 Coefficients=  1.8025593888D-01
     Exponent=  1.1676557932D+01 Coefficients=  4.6315121755D-01
     Exponent=  3.5930506482D+00 Coefficients=  4.4087173314D-01
 S 1 1.00
     Exponent=  4.0245147363D-01 Coefficients=  1.0000000000D+00
 S 1 1.00
     Exponent=  1.3090182668D-01 Coefficients=  1.0000000000D+00
 S 1 1.00
     Exponent=  6.7053540256D-02 Coefficients=  1.0000000000D+00
 P 3 1.00
     Exponent=  9.4680970621D+00 Coefficients=  3.8387871728D-02
     Exponent=  2.0103545142D+00 Coefficients=  2.1117025112D-01
     Exponent=  5.4771004707D-01 Coefficients=  5.1328172114D-01
 P 1 1.00
     Exponent=  1.5268613795D-01 Coefficients=  1.0000000000D+00
 D 1 1.00
     Exponent=  8.0000000000D-01 Coefficients=  1.0000000000D+00
 D 1 1.00
     Exponent=  1.1713185140D-01 Coefficients=  1.0000000000D+00
 ****
 Centers:       3
 S 5 1.00
     Exponent=  1.7128415853D+03 Coefficients= -5.3934125305D-03
     Exponent=  2.5764812677D+02 Coefficients= -4.0221581118D-02
     Exponent=  5.8458245853D+01 Coefficients= -1.7931144990D-01
     Exponent=  1.6198367905D+01 Coefficients= -4.6376317823D-01
     Exponent=  5.0052600809D+00 Coefficients= -4.4171422662D-01
 S 1 1.00
     Exponent=  5.8731856571D-01 Coefficients=  1.0000000000D+00
 S 1 1.00
     Exponent=  1.8764592253D-01 Coefficients=  1.0000000000D+00
 S 1 1.00
     Exponent=  9.6171241529D-02 Coefficients=  1.0000000000D+00
 P 3 1.00
     Exponent=  1.3571470233D+01 Coefficients= -4.0072398852D-02
     Exponent=  2.9257372874D+00 Coefficients= -2.1807045028D-01
     Exponent=  7.9927750754D-01 Coefficients= -5.1294466049D-01
 P 1 1.00
     Exponent=  2.1954348034D-01 Coefficients=  1.0000000000D+00
 D 1 1.00
     Exponent=  1.0000000000D+00 Coefficients=  1.0000000000D+00
 D 1 1.00
     Exponent=  1.6697708112D-01 Coefficients=  1.0000000000D+00
 ****
 Ernie: Thresh=  0.10000D-02 Tol=  0.10000D-05 Strict=F.
 There are    62 symmetry adapted cartesian basis functions of A'  symmetry.
 There are    28 symmetry adapted cartesian basis functions of A"  symmetry.
 There are    56 symmetry adapted basis functions of A'  symmetry.
 There are    28 symmetry adapted basis functions of A"  symmetry.
    84 basis functions,   126 primitive gaussians,    90 cartesian basis functions
    11 alpha electrons       11 beta electrons
       nuclear repulsion energy        58.7485374816 Hartrees.
 IExCor= 2523 DFT=T Ex=TPSS Corr=TPSS ExCW=0 ScaHFX=  0.000000
 ScaDFX=  1.000000  1.000000  1.000000  1.000000 ScalE2=  1.000000  1.000000
 IRadAn=      5 IRanWt=     -1 IRanGd=            0 ICorTp=0 IEmpDi=  4
 NAtoms=    6 NActive=    6 NUniq=    4 SFac= 2.25D+00 NAtFMM=   60 NAOKFM=F Big=F
 Integral buffers will be    131072 words long.
 Regular integral format.
 Two-electron integral symmetry is turned on.
 Leave Link  301 at Mon Mar 21 20:26:51 2022, MaxMem=  8589934592 cpu:               0.5 elap:               0.1
 (Enter /home/sabyasachi/g16/l302.exe)
 NPDir=0 NMtPBC=     1 NCelOv=     1 NCel=       1 NClECP=     1 NCelD=      1
         NCelK=      1 NCelE2=     1 NClLst=     1 CellRange=     0.0.
 One-electron integrals computed using PRISM.
 One-electron integral symmetry used in STVInt
 NBasis=    84 RedAO= T EigKep=  2.41D-04  NBF=    56    28
 NBsUse=    84 1.00D-06 EigRej= -1.00D+00 NBFU=    56    28
 Precomputing XC quadrature grid using
 IXCGrd= 4 IRadAn=           5 IRanWt=          -1 IRanGd=           0 AccXCQ= 0.00D+00.
 Generated NRdTot=       0 NPtTot=           0 NUsed=           0 NTot=          32
 NSgBfM=    90    90    90    90    90 MxSgAt=     6 MxSgA2=     6.
 Leave Link  302 at Mon Mar 21 20:26:52 2022, MaxMem=  8589934592 cpu:               0.9 elap:               0.1
 (Enter /home/sabyasachi/g16/l303.exe)
 DipDrv:  MaxL=1.
 Leave Link  303 at Mon Mar 21 20:26:52 2022, MaxMem=  8589934592 cpu:               0.2 elap:               0.0
 (Enter /home/sabyasachi/g16/l308.exe)
 Leave Link  308 at Mon Mar 21 20:26:52 2022, MaxMem=  8589934592 cpu:               0.2 elap:               0.0
 (Enter /home/sabyasachi/g16/l401.exe)
 ExpMin= 6.71D-02 ExpMax= 1.71D+03 ExpMxC= 2.58D+02 IAcc=3 IRadAn=         5 AccDes= 0.00D+00
 Harris functional with IExCor= 1009 and IRadAn=       5 diagonalized for initial guess.
 HarFok:  IExCor= 1009 AccDes= 0.00D+00 IRadAn=         5 IDoV= 1 UseB2=F ITyADJ=14
 ICtDFT=  3500011 ScaDFX=  1.000000  1.000000  1.000000  1.000000
 FoFCou: FMM=F IPFlag=           0 FMFlag=      100000 FMFlg1=           0
         NFxFlg=           0 DoJE=T BraDBF=F KetDBF=T FulRan=T
         wScrn=  0.000000 ICntrl=       500 IOpCl=  0 I1Cent=   200000004 NGrid=           0
         NMat0=    1 NMatS0=      1 NMatT0=    0 NMatD0=    1 NMtDS0=    0 NMtDT0=    0
 Petite list used in FoFCou.
 Harris En= -132.543775350913    
 JPrj=0 DoOrth=F DoCkMO=F.
 Initial guess orbital symmetries:
       Occupied  (A1) (A1) (A1) (A1) (A1) (A1) (E) (E) (A1) (E)
                 (E)
       Virtual   (E) (E) (A1) (A1) (E) (E) (A1) (E) (E) (A1) (E)
                 (E) (A1) (E) (E) (A1) (E) (E) (A1) (E) (E) (A2)
                 (A1) (A1) (E) (E) (E) (E) (E) (E) (A1) (E) (E)
                 (A1) (E) (E) (A1) (A1) (E) (E) (A1) (E) (E) (A1)
                 (A1) (E) (E) (A1) (E) (E) (A1) (A2) (E) (E) (E)
                 (E) (E) (E) (A1) (E) (E) (A1) (E) (E) (E) (E)
                 (A1) (E) (E) (A1) (E) (E) (A1)
 The electronic state of the initial guess is 1-A1.
 Leave Link  401 at Mon Mar 21 20:26:52 2022, MaxMem=  8589934592 cpu:               1.7 elap:               0.2
 (Enter /home/sabyasachi/g16/l502.exe)
 Keep J ints in memory in symmetry-blocked form, NReq=13703489.
 FoFCou: FMM=F IPFlag=           0 FMFlag=           0 FMFlg1=           0
         NFxFlg=           0 DoJE=F BraDBF=F KetDBF=F FulRan=T
         wScrn=  0.000000 ICntrl=       600 IOpCl=  0 I1Cent=           0 NGrid=           0
         NMat0=    1 NMatS0=   3570 NMatT0=    0 NMatD0=    1 NMtDS0=    0 NMtDT0=    0
 Petite list used in FoFCou.
 Closed shell SCF:
 Using DIIS extrapolation, IDIIS=  1040.
 NGot=  8589934592 LenX=  8586672929 LenY=  8586664388
 Requested convergence on RMS density matrix=1.00D-08 within 100 cycles.
 Requested convergence on MAX density matrix=1.00D-06.
 Requested convergence on             energy=1.00D-06.
 No special actions if energy rises.
 Integral accuracy reduced to 1.0D-05 until final iterations.

 Cycle   1  Pass 0  IDiag  1:
 E= -132.614069198854    
 DIIS: error= 2.99D-02 at cycle   1 NSaved=   1.
 NSaved= 1 IEnMin= 1 EnMin= -132.614069198854     IErMin= 1 ErrMin= 2.99D-02
 ErrMax= 2.99D-02  0.00D+00 EMaxC= 1.00D-01 BMatC= 6.87D-02 BMatP= 6.87D-02
 IDIUse=3 WtCom= 7.01D-01 WtEn= 2.99D-01
 Coeff-Com:  0.100D+01
 Coeff-En:   0.100D+01
 Coeff:      0.100D+01
 Gap=     0.274 Goal=   None    Shift=    0.000
 GapD=    0.274 DampG=1.000 DampE=0.500 DampFc=0.5000 IDamp=-1.
 Damping current iteration by 5.00D-01
 RMSDP=1.08D-02 MaxDP=1.91D-01              OVMax= 2.21D-01

 Cycle   2  Pass 0  IDiag  1:
 E= -132.623023697456     Delta-E=       -0.008954498602 Rises=F Damp=T
 DIIS: error= 1.59D-02 at cycle   2 NSaved=   2.
 NSaved= 2 IEnMin= 2 EnMin= -132.623023697456     IErMin= 2 ErrMin= 1.59D-02
 ErrMax= 1.59D-02  0.00D+00 EMaxC= 1.00D-01 BMatC= 2.12D-02 BMatP= 6.87D-02
 IDIUse=3 WtCom= 8.41D-01 WtEn= 1.59D-01
 Coeff-Com:  0.305D+00 0.695D+00
 Coeff-En:   0.442D+00 0.558D+00
 Coeff:      0.327D+00 0.673D+00
 Gap=     0.284 Goal=   None    Shift=    0.000
 RMSDP=4.00D-03 MaxDP=6.37D-02 DE=-8.95D-03 OVMax= 2.04D-01

 Cycle   3  Pass 0  IDiag  1:
 E= -132.654034313430     Delta-E=       -0.031010615974 Rises=F Damp=F
 DIIS: error= 1.78D-02 at cycle   3 NSaved=   3.
 NSaved= 3 IEnMin= 3 EnMin= -132.654034313430     IErMin= 2 ErrMin= 1.59D-02
 ErrMax= 1.78D-02  0.00D+00 EMaxC= 1.00D-01 BMatC= 3.09D-02 BMatP= 2.12D-02
 IDIUse=2 WtCom= 0.00D+00 WtEn= 1.00D+00
 Coeff-En:   0.000D+00 0.257D+00 0.743D+00
 Coeff:      0.000D+00 0.257D+00 0.743D+00
 Gap=     0.287 Goal=   None    Shift=    0.000
 RMSDP=4.97D-03 MaxDP=8.74D-02 DE=-3.10D-02 OVMax= 1.56D-01

 Cycle   4  Pass 0  IDiag  1:
 E= -132.604042355004     Delta-E=        0.049991958425 Rises=F Damp=F
 DIIS: error= 3.16D-02 at cycle   4 NSaved=   4.
 NSaved= 4 IEnMin= 3 EnMin= -132.654034313430     IErMin= 2 ErrMin= 1.59D-02
 ErrMax= 3.16D-02  0.00D+00 EMaxC= 1.00D-01 BMatC= 8.59D-02 BMatP= 2.12D-02
 IDIUse=2 WtCom= 0.00D+00 WtEn= 1.00D+00
 Coeff-En:   0.000D+00 0.000D+00 0.664D+00 0.336D+00
 Coeff:      0.000D+00 0.000D+00 0.664D+00 0.336D+00
 Gap=     0.299 Goal=   None    Shift=    0.000
 RMSDP=2.69D-03 MaxDP=4.72D-02 DE= 5.00D-02 OVMax= 8.54D-02

 Cycle   5  Pass 0  IDiag  1:
 E= -132.681340318312     Delta-E=       -0.077297963307 Rises=F Damp=F
 DIIS: error= 3.85D-03 at cycle   5 NSaved=   5.
 NSaved= 5 IEnMin= 5 EnMin= -132.681340318312     IErMin= 5 ErrMin= 3.85D-03
 ErrMax= 3.85D-03  0.00D+00 EMaxC= 1.00D-01 BMatC= 2.28D-03 BMatP= 2.12D-02
 IDIUse=3 WtCom= 9.62D-01 WtEn= 3.85D-02
 Coeff-Com: -0.256D-01 0.458D-01 0.193D+00-0.389D-01 0.826D+00
 Coeff-En:   0.000D+00 0.000D+00 0.995D-01 0.000D+00 0.900D+00
 Coeff:     -0.246D-01 0.441D-01 0.189D+00-0.374D-01 0.829D+00
 Gap=     0.299 Goal=   None    Shift=    0.000
 RMSDP=5.83D-04 MaxDP=9.64D-03 DE=-7.73D-02 OVMax= 1.47D-02

 Cycle   6  Pass 0  IDiag  1:
 E= -132.683555083587     Delta-E=       -0.002214765276 Rises=F Damp=F
 DIIS: error= 2.21D-04 at cycle   6 NSaved=   6.
 NSaved= 6 IEnMin= 6 EnMin= -132.683555083587     IErMin= 6 ErrMin= 2.21D-04
 ErrMax= 2.21D-04  0.00D+00 EMaxC= 1.00D-01 BMatC= 4.46D-06 BMatP= 2.28D-03
 IDIUse=3 WtCom= 9.98D-01 WtEn= 2.21D-03
 Coeff-Com: -0.881D-02 0.163D-01 0.472D-01-0.153D-01 0.253D+00 0.708D+00
 Coeff-En:   0.000D+00 0.000D+00 0.000D+00 0.000D+00 0.000D+00 0.100D+01
 Coeff:     -0.879D-02 0.162D-01 0.471D-01-0.153D-01 0.252D+00 0.708D+00
 Gap=     0.299 Goal=   None    Shift=    0.000
 RMSDP=2.84D-05 MaxDP=5.76D-04 DE=-2.21D-03 OVMax= 6.88D-04

 Cycle   7  Pass 0  IDiag  1:
 E= -132.683559099138     Delta-E=       -0.000004015550 Rises=F Damp=F
 DIIS: error= 3.40D-05 at cycle   7 NSaved=   7.
 NSaved= 7 IEnMin= 7 EnMin= -132.683559099138     IErMin= 7 ErrMin= 3.40D-05
 ErrMax= 3.40D-05  0.00D+00 EMaxC= 1.00D-01 BMatC= 1.08D-07 BMatP= 4.46D-06
 IDIUse=1 WtCom= 1.00D+00 WtEn= 0.00D+00
 Coeff-Com: -0.164D-02 0.283D-02 0.547D-02-0.288D-02 0.414D-01 0.322D+00
 Coeff-Com:  0.633D+00
 Coeff:     -0.164D-02 0.283D-02 0.547D-02-0.288D-02 0.414D-01 0.322D+00
 Coeff:      0.633D+00
 Gap=     0.299 Goal=   None    Shift=    0.000
 RMSDP=6.83D-06 MaxDP=1.05D-04 DE=-4.02D-06 OVMax= 1.07D-04

 Initial convergence to 1.0D-05 achieved.  Increase integral accuracy.
 Cycle   8  Pass 1  IDiag  1:
 E= -132.683556776973     Delta-E=        0.000002322165 Rises=F Damp=F
 DIIS: error= 4.14D-06 at cycle   1 NSaved=   1.
 NSaved= 1 IEnMin= 1 EnMin= -132.683556776973     IErMin= 1 ErrMin= 4.14D-06
 ErrMax= 4.14D-06  0.00D+00 EMaxC= 1.00D-01 BMatC= 8.36D-10 BMatP= 8.36D-10
 IDIUse=1 WtCom= 1.00D+00 WtEn= 0.00D+00
 Coeff-Com:  0.100D+01
 Coeff:      0.100D+01
 Gap=     0.299 Goal=   None    Shift=    0.000
 RMSDP=6.83D-06 MaxDP=1.05D-04 DE= 2.32D-06 OVMax= 3.37D-05

 Cycle   9  Pass 1  IDiag  1:
 E= -132.683556772908     Delta-E=        0.000000004066 Rises=F Damp=F
 DIIS: error= 1.02D-05 at cycle   2 NSaved=   2.
 NSaved= 2 IEnMin= 1 EnMin= -132.683556776973     IErMin= 1 ErrMin= 4.14D-06
 ErrMax= 1.02D-05  0.00D+00 EMaxC= 1.00D-01 BMatC= 5.55D-09 BMatP= 8.36D-10
 IDIUse=1 WtCom= 1.00D+00 WtEn= 0.00D+00
 Coeff-Com:  0.740D+00 0.260D+00
 Coeff:      0.740D+00 0.260D+00
 Gap=     0.299 Goal=   None    Shift=    0.000
 RMSDP=8.84D-07 MaxDP=1.69D-05 DE= 4.07D-09 OVMax= 2.87D-05

 Cycle  10  Pass 1  IDiag  1:
 E= -132.683556777782     Delta-E=       -0.000000004874 Rises=F Damp=F
 DIIS: error= 8.86D-07 at cycle   3 NSaved=   3.
 NSaved= 3 IEnMin= 3 EnMin= -132.683556777782     IErMin= 3 ErrMin= 8.86D-07
 ErrMax= 8.86D-07  0.00D+00 EMaxC= 1.00D-01 BMatC= 8.73D-11 BMatP= 8.36D-10
 IDIUse=1 WtCom= 1.00D+00 WtEn= 0.00D+00
 Coeff-Com:  0.179D+00 0.127D+00 0.694D+00
 Coeff:      0.179D+00 0.127D+00 0.694D+00
 Gap=     0.299 Goal=   None    Shift=    0.000
 RMSDP=1.81D-07 MaxDP=3.02D-06 DE=-4.87D-09 OVMax= 3.68D-06

 Cycle  11  Pass 1  IDiag  1:
 E= -132.683556777860     Delta-E=       -0.000000000078 Rises=F Damp=F
 DIIS: error= 2.48D-07 at cycle   4 NSaved=   4.
 NSaved= 4 IEnMin= 4 EnMin= -132.683556777860     IErMin= 4 ErrMin= 2.48D-07
 ErrMax= 2.48D-07  0.00D+00 EMaxC= 1.00D-01 BMatC= 6.83D-12 BMatP= 8.73D-11
 IDIUse=1 WtCom= 1.00D+00 WtEn= 0.00D+00
 Coeff-Com:  0.432D-01 0.378D-01 0.319D+00 0.600D+00
 Coeff:      0.432D-01 0.378D-01 0.319D+00 0.600D+00
 Gap=     0.299 Goal=   None    Shift=    0.000
 RMSDP=4.14D-08 MaxDP=7.60D-07 DE=-7.77D-11 OVMax= 8.59D-07

 Cycle  12  Pass 1  IDiag  1:
 E= -132.683556777867     Delta-E=       -0.000000000007 Rises=F Damp=F
 DIIS: error= 3.74D-08 at cycle   5 NSaved=   5.
 NSaved= 5 IEnMin= 5 EnMin= -132.683556777867     IErMin= 5 ErrMin= 3.74D-08
 ErrMax= 3.74D-08  0.00D+00 EMaxC= 1.00D-01 BMatC= 2.08D-13 BMatP= 6.83D-12
 IDIUse=1 WtCom= 1.00D+00 WtEn= 0.00D+00
 Coeff-Com: -0.129D-02-0.175D-03 0.483D-01 0.187D+00 0.766D+00
 Coeff:     -0.129D-02-0.175D-03 0.483D-01 0.187D+00 0.766D+00
 Gap=     0.299 Goal=   None    Shift=    0.000
 RMSDP=8.83D-09 MaxDP=2.23D-07 DE=-6.59D-12 OVMax= 1.35D-07

 SCF Done:  E(RTPSS-TPSS) =  -132.683556778     A.U. after   12 cycles
            NFock= 12  Conv=0.88D-08     -V/T= 2.0097
 KE= 1.314035204288D+02 PE=-4.253102205824D+02 EE= 1.024746058941D+02
 Leave Link  502 at Mon Mar 21 20:26:53 2022, MaxMem=  8589934592 cpu:              11.1 elap:               1.4
 (Enter /home/sabyasachi/g16/l801.exe)
 DoSCS=F DFT=T ScalE2(SS,OS)=  1.000000  1.000000
 ExpMin= 6.71D-02 ExpMax= 1.71D+03 ExpMxC= 2.58D+02 IAcc=3 IRadAn=         5 AccDes= 0.00D+00
 HarFok:  IExCor=  205 AccDes= 0.00D+00 IRadAn=         5 IDoV=-2 UseB2=F ITyADJ=14
 ICtDFT= 12500011 ScaDFX=  1.000000  1.000000  1.000000  1.000000
 Largest valence mixing into a core orbital is  7.91D-05
 Largest core mixing into a valence orbital is  2.50D-05
 Range of M.O.s used for correlation:     4    84
 NBasis=    84 NAE=    11 NBE=    11 NFC=     3 NFV=     0
 NROrb=     81 NOA=     8 NOB=     8 NVA=    73 NVB=    73

 **** Warning!!: The largest alpha MO coefficient is  0.39716690D+02

 Leave Link  801 at Mon Mar 21 20:26:53 2022, MaxMem=  8589934592 cpu:               0.5 elap:               0.1
 (Enter /home/sabyasachi/g16/l914.exe)
 RHF ground state
 Keep J ints in memory in symmetry-blocked form, NReq=409361869.
 FoFCou: FMM=F IPFlag=           0 FMFlag=           0 FMFlg1=           0
         NFxFlg=           0 DoJE=F BraDBF=F KetDBF=F FulRan=T
         wScrn=  0.000000 ICntrl=       600 IOpCl=  0 I1Cent=           0 NGrid=           0
         NMat0=    1 NMatS0=   3570 NMatT0=    0 NMatD0=    1 NMtDS0=    0 NMtDT0=    0
 Petite list used in FoFCou.
 MDV=  8589934592 DFT=T DoStab=F Mixed=F DoRPA=T DoScal=T NonHer=F
 Making orbital integer symmetry assigments:
 Orbital symmetries:
       Occupied  (A1) (A1) (A1) (A1) (A1) (A1) (E) (E) (A1) (E)
                 (E)
       Virtual   (A1) (E) (E) (A1) (E) (E) (A1) (E) (E) (E) (E)
                 (A1) (A1) (E) (E) (A1) (E) (E) (A1) (A2) (E) (E)
                 (A1) (A1) (E) (E) (E) (E) (A1) (E) (E) (E) (E)
                 (A1) (E) (E) (A1) (A1) (E) (E) (A1) (E) (E) (A1)
                 (A1) (E) (E) (A1) (E) (E) (A1) (A2) (E) (E) (E)
                 (E) (E) (E) (A1) (E) (E) (A1) (E) (E) (E) (E)
                 (A1) (E) (E) (A1) (E) (E) (A1)
   584 initial guesses have been made.
 Convergence on wavefunction:    0.001000000000000
 Davidson Disk Diagonalization:  ConvIn= 1.00D-03 SkipCon=T Conv= 1.00D-03.
 Max sub-space:  2336 roots to seek:  1168 dimension of matrix:         1168
 *** WARNING: Number of orthogonal guesses is          584
 Iteration     1 Dimension   584 NMult     0 NNew    584
 CISAX will form   584 AO SS matrices at one time.
 NMat=   584 NSing=   584 JSym2X=-1.
 New state      3 was old state      6
 New state      5 was old state      3
 New state      6 was old state      7
 New state      7 was old state      9
 New state      9 was old state     11
 New state     11 was old state     15
 New state     13 was old state     14
 New state     14 was old state     16
 New state     15 was old state     13
 New state     16 was old state     18
 New state     18 was old state     24
 New state     19 was old state     23
 New state     20 was old state     22
 New state     22 was old state     19
 New state     23 was old state     20
 New state     24 was old state     29
 New state     25 was old state     31
 New state     26 was old state     25
 New state     27 was old state     26
 New state     28 was old state     33
 New state     29 was old state     32
 New state     31 was old state     28
 New state     32 was old state     27
 New state     33 was old state     40
 New state     37 was old state     38
 New state     38 was old state     37
 New state     39 was old state     41
 New state     40 was old state     42
 New state     41 was old state     39
 New state     42 was old state     44
 New state     44 was old state     47
 New state     47 was old state     54
 New state     48 was old state     49
 New state     49 was old state     50
 New state     50 was old state     51
 New state     51 was old state     52
 New state     52 was old state     48
 New state     53 was old state     55
 New state     54 was old state     59
 New state     55 was old state     58
 New state     58 was old state     53
 New state     59 was old state     62
 New state     60 was old state     63
 New state     61 was old state     60
 New state     62 was old state     61
 New state     63 was old state     79
 New state     64 was old state     67
 New state     65 was old state     66
 New state     66 was old state     69
 New state     67 was old state     70
 New state     68 was old state     71
 New state     69 was old state     72
 New state     70 was old state     74
 New state     71 was old state     73
 New state     72 was old state     78
 New state     73 was old state     77
 New state     74 was old state     75
 New state     75 was old state     80
 New state     76 was old state     81
 New state     77 was old state     93
 New state     78 was old state     76
 New state     79 was old state     84
 New state     80 was old state     83
 New state     81 was old state     82
 New state     82 was old state     94
 New state     83 was old state     85
 New state     84 was old state     68
 New state     85 was old state     89
 New state     86 was old state     90
 New state     87 was old state     88
 New state     88 was old state     86
 New state     89 was old state     91
 New state     90 was old state     87
 New state     91 was old state     95
 New state     93 was old state    100
 New state     94 was old state      5
 New state     95 was old state     97
 New state     97 was old state     98
 New state     98 was old state     99
 No map to state     99
 New state    100 was old state    101
 New state    101 was old state    108
 New state    106 was old state    107
 New state    107 was old state    109
 New state    108 was old state    110
 New state    109 was old state    106
 New state    110 was old state    113
 New state    112 was old state    114
 New state    113 was old state    118
 New state    114 was old state    112
 New state    116 was old state    120
 New state    117 was old state    119
 New state    118 was old state    116
 New state    119 was old state    125
 New state    120 was old state    127
 New state    121 was old state    117
 New state    122 was old state    126
 New state    124 was old state    122
 New state    125 was old state    124
 New state    126 was old state    121
 New state    127 was old state    130
 New state    128 was old state    129
 New state    129 was old state    131
 New state    130 was old state    132
 New state    131 was old state    135
 New state    132 was old state    136
 New state    133 was old state    134
 New state    134 was old state    133
 New state    135 was old state    143
 New state    136 was old state    145
 New state    137 was old state    139
 New state    138 was old state    141
 New state    139 was old state    142
 New state    140 was old state    144
 New state    141 was old state    138
 New state    142 was old state    146
 New state    143 was old state    147
 New state    144 was old state    151
 New state    145 was old state    157
 New state    146 was old state    137
 New state    147 was old state    149
 New state    149 was old state    150
 New state    150 was old state    152
 New state    151 was old state    140
 New state    152 was old state    153
 New state    153 was old state    154
 New state    154 was old state    155
 New state    155 was old state    156
 New state    156 was old state    158
 New state    157 was old state    159
 New state    158 was old state    172
 New state    159 was old state    175
 New state    162 was old state    165
 New state    163 was old state    166
 New state    164 was old state    171
 New state    165 was old state    173
 New state    166 was old state    164
 New state    167 was old state    169
 New state    169 was old state    162
 New state    170 was old state    163
 New state    171 was old state    167
 New state    172 was old state    176
 New state    173 was old state    170
 New state    174 was old state    178
 New state    175 was old state    177
 New state    176 was old state    180
 New state    177 was old state    174
 New state    178 was old state    187
 New state    179 was old state    181
 New state    180 was old state    183
 New state    181 was old state    185
 New state    182 was old state    179
 New state    183 was old state    188
 New state    184 was old state    191
 New state    185 was old state    192
 New state    186 was old state    193
 New state    187 was old state    186
 New state    188 was old state    190
 New state    190 was old state    182
 New state    191 was old state    184
 New state    192 was old state    194
 No map to state    193
 New state    194 was old state    214
 New state    195 was old state    196
 New state    196 was old state    195
 New state    199 was old state    200
 New state    200 was old state    201
 New state    201 was old state    199
 New state    202 was old state    205
 New state    203 was old state    204
 New state    204 was old state    203
 New state    205 was old state    202
 New state    206 was old state    208
 New state    207 was old state    209
 New state    208 was old state    207
 New state    209 was old state    206
 New state    213 was old state    216
 New state    214 was old state    215
 New state    215 was old state    213
 New state    216 was old state    221
 New state    217 was old state    220
 New state    220 was old state    217
 New state    221 was old state    227
 New state    227 was old state    230
 No map to state    228
 New state    230 was old state    228
 New state    231 was old state    235
 New state    232 was old state    234
 New state    234 was old state    231
 New state    235 was old state    232
 New state    238 was old state    242
 New state    239 was old state    240
 New state    240 was old state    243
 New state    241 was old state    244
 New state    242 was old state    245
 New state    243 was old state    238
 New state    244 was old state    239
 New state    245 was old state    246
 New state    246 was old state    247
 New state    247 was old state    248
 New state    248 was old state    241
 New state    250 was old state    251
 New state    251 was old state    250
 New state    253 was old state    256
 New state    256 was old state    258
 New state    258 was old state    253
 New state    267 was old state    269
 New state    268 was old state    270
 New state    269 was old state    267
 New state    270 was old state    271
 New state    271 was old state    273
 New state    273 was old state    274
 New state    274 was old state    277
 New state    275 was old state    278
 New state    277 was old state    275
 New state    278 was old state    283
 New state    279 was old state    282
 New state    280 was old state    281
 New state    281 was old state    280
 New state    282 was old state    279
 New state    283 was old state    288
 New state    284 was old state    285
 New state    285 was old state    284
 New state    288 was old state    305
 New state    289 was old state    292
 New state    290 was old state    291
 New state    291 was old state    289
 New state    292 was old state    290
 New state    293 was old state    294
 New state    294 was old state    293
 New state    297 was old state    300
 New state    298 was old state    299
 New state    299 was old state    298
 New state    300 was old state    301
 New state    301 was old state    302
 New state    302 was old state    304
 New state    303 was old state    306
 New state    304 was old state    303
 New state    305 was old state    307
 New state    306 was old state    308
 New state    307 was old state    319
 New state    308 was old state    309
 New state    309 was old state    310
 New state    310 was old state    316
 New state    311 was old state    317
 New state    312 was old state    318
 New state    313 was old state    311
 New state    314 was old state    313
 New state    315 was old state    312
 New state    316 was old state    315
 New state    317 was old state    314
 New state    318 was old state    320
 New state    319 was old state    321
 New state    320 was old state    323
 New state    321 was old state    322
 New state    322 was old state    325
 New state    323 was old state    324
 New state    324 was old state    327
 New state    325 was old state    329
 New state    326 was old state    328
 New state    327 was old state    326
 New state    328 was old state    297
 New state    329 was old state    348
 New state    330 was old state    335
 New state    331 was old state    336
 New state    332 was old state    330
 New state    333 was old state    331
 New state    335 was old state    339
 New state    336 was old state    340
 New state    337 was old state    332
 New state    338 was old state    337
 New state    339 was old state    338
 New state    340 was old state    341
 New state    341 was old state    342
 New state    342 was old state    344
 New state    344 was old state    345
 New state    345 was old state    346
 New state    346 was old state    347
 New state    347 was old state    349
 New state    348 was old state    351
 New state    349 was old state    350
 New state    350 was old state    353
 New state    351 was old state    352
 New state    352 was old state    356
 New state    353 was old state    354
 New state    354 was old state    355
 New state    355 was old state    357
 New state    356 was old state    362
 New state    357 was old state    358
 New state    358 was old state    359
 New state    359 was old state    363
 New state    360 was old state    361
 New state    361 was old state    360
 New state    362 was old state    365
 New state    363 was old state    366
 New state    365 was old state    371
 New state    366 was old state    367
 New state    367 was old state    368
 No map to state    368
 New state    371 was old state    373
 New state    372 was old state    375
 New state    373 was old state    374
 New state    374 was old state    372
 New state    375 was old state    379
 New state    376 was old state    377
 New state    377 was old state    376
 New state    379 was old state    393
 New state    386 was old state    388
 New state    387 was old state    391
 New state    388 was old state    390
 New state    389 was old state    386
 New state    390 was old state    387
 New state    391 was old state    389
 New state    393 was old state    394
 New state    394 was old state    395
 New state    395 was old state    396
 New state    396 was old state    403
 New state    397 was old state    404
 New state    398 was old state    400
 New state    400 was old state    398
 New state    401 was old state    397
 New state    402 was old state    401
 New state    403 was old state    402
 New state    404 was old state    406
 New state    406 was old state    409
 New state    407 was old state    410
 New state    408 was old state    407
 New state    409 was old state    408
 New state    410 was old state    413
 New state    411 was old state    414
 New state    412 was old state    424
 New state    413 was old state    415
 New state    414 was old state    416
 New state    415 was old state    417
 New state    416 was old state    418
 New state    417 was old state    412
 New state    418 was old state    411
 New state    420 was old state    421
 New state    421 was old state    420
 No map to state    424
 New state    427 was old state    428
 New state    428 was old state    430
 New state    430 was old state    427
 New state    431 was old state    432
 New state    432 was old state    431
 New state    433 was old state    434
 New state    434 was old state    433
 New state    435 was old state    436
 New state    436 was old state    435
 New state    437 was old state    439
 New state    438 was old state    440
 New state    439 was old state    438
 New state    440 was old state    437
 New state    442 was old state    443
 New state    443 was old state    442
 New state    444 was old state    450
 New state    445 was old state    447
 New state    446 was old state    449
 New state    447 was old state    444
 New state    448 was old state    445
 New state    449 was old state    446
 New state    450 was old state    448
 New state    452 was old state    455
 New state    453 was old state    456
 New state    454 was old state    460
 New state    455 was old state    458
 New state    456 was old state    457
 New state    457 was old state    453
 New state    458 was old state    454
 New state    459 was old state    452
 New state    460 was old state    462
 New state    462 was old state    463
 New state    463 was old state    464
 New state    464 was old state    459
 New state    468 was old state    470
 New state    469 was old state    473
 New state    470 was old state    472
 New state    471 was old state    474
 New state    472 was old state    469
 New state    473 was old state    468
 New state    474 was old state    475
 New state    475 was old state    476
 New state    476 was old state    471
 New state    480 was old state    481
 New state    481 was old state    480
 New state    482 was old state    483
 New state    483 was old state    482
 New state    484 was old state    485
 New state    485 was old state    484
 New state    486 was old state    490
 New state    487 was old state    489
 New state    488 was old state    486
 New state    489 was old state    491
 New state    490 was old state    492
 New state    491 was old state    493
 New state    492 was old state    494
 New state    493 was old state    487
 New state    494 was old state    488
 New state    496 was old state    499
 New state    497 was old state    501
 New state    498 was old state    500
 New state    499 was old state    498
 New state    500 was old state    503
 New state    501 was old state    502
 New state    502 was old state    505
 New state    503 was old state    504
 New state    504 was old state    506
 New state    505 was old state    507
 New state    506 was old state    515
 New state    507 was old state    516
 New state    509 was old state    513
 New state    511 was old state    509
 New state    512 was old state    511
 New state    513 was old state    512
 New state    515 was old state    518
 New state    516 was old state    517
 New state    517 was old state    519
 New state    518 was old state    520
 New state    519 was old state    521
 No map to state    520
 No map to state    521
 New state    526 was old state    527
 New state    527 was old state    526
 New state    529 was old state    530
 New state    530 was old state    529
 New state    531 was old state    532
 New state    532 was old state    531
 New state    533 was old state    535
 New state    534 was old state    533
 New state    535 was old state    534
 New state    539 was old state    540
 New state    540 was old state    539
 New state    544 was old state    545
 New state    545 was old state    544
 New state    546 was old state    551
 New state    547 was old state    549
 New state    549 was old state    550
 New state    550 was old state    547
 New state    551 was old state    554
 New state    554 was old state    546
 New state    557 was old state    558
 New state    558 was old state    557
 New state    561 was old state    562
 New state    562 was old state    561
 New state    574 was old state    575
 New state    575 was old state    576
 New state    576 was old state    574
 New state    580 was old state    581
 New state    581 was old state    580
 Excitation Energies [eV] at current iteration:
 Root      1 :     8.154570278208030
 Root      2 :     8.154571351877657
 Root      3 :     8.213349782092246
 Root      4 :     8.306050292721244
 Root      5 :     8.306050308622561
 Root      6 :     8.544753984613662
 Root      7 :     9.182742279305906
 Root      8 :     9.182742297741147
 Root      9 :     9.977903153614740
 Root     10 :     9.977903476075149
 Root     11 :    10.185877135852830
 Root     12 :    10.460382328104860
 Root     13 :    10.681226895416660
 Root     14 :    10.681227466455780
 Root     15 :    10.685169444315670
 Root     16 :    11.167531388431040
 Root     17 :    11.167531451200350
 Root     18 :    11.419647890555530
 Root     19 :    11.441416973851360
 Root     20 :    11.490849062406160
 Root     21 :    11.490849525674560
 Root     22 :    11.554530089500590
 Root     23 :    11.554530437885260
 Root     24 :    11.700078612913310
 Root     25 :    11.767761808404990
 Root     26 :    11.769785629066620
 Root     27 :    11.769786520278340
 Root     28 :    11.872293354018340
 Root     29 :    11.872293378496280
 Root     30 :    11.897993303529460
 Root     31 :    11.897993435795650
 Root     32 :    11.996431799443950
 Root     33 :    12.908727802596420
 Root     34 :    12.961311440509230
 Root     35 :    13.367463840493680
 Root     36 :    13.367464114149480
 Root     37 :    13.512382309082080
 Root     38 :    13.512383004295160
 Root     39 :    13.588223240593640
 Root     40 :    13.588227338075820
 Root     41 :    13.697220110756550
 Root     42 :    14.048330453326330
 Root     43 :    14.048330529958560
 Root     44 :    14.176419505163870
 Root     45 :    14.190366037875260
 Root     46 :    14.190366944615340
 Root     47 :    14.237951836918640
 Root     48 :    14.295723564343870
 Root     49 :    14.295724386054720
 Root     50 :    14.468922317875240
 Root     51 :    14.468927620310450
 Root     52 :    14.667878069038740
 Root     53 :    14.803072837134660
 Root     54 :    14.837972629606420
 Root     55 :    14.887394942179640
 Root     56 :    15.005806685792600
 Root     57 :    15.005807068583430
 Root     58 :    15.211758257459330
 Root     59 :    15.392758143903980
 Root     60 :    15.392758695833240
 Root     61 :    15.499248123438160
 Root     62 :    15.499249494075670
 Root     63 :    15.621338494605740
 Root     64 :    15.650888689533620
 Root     65 :    15.794840979340720
 Root     66 :    16.145178679560460
 Root     67 :    16.145181189677310
 Root     68 :    16.201495785516670
 Root     69 :    16.201495864628040
 Root     70 :    16.285565715183800
 Root     71 :    16.285567066662870
 Root     72 :    16.356190702667630
 Root     73 :    16.356192088552640
 Root     74 :    16.519929425644210
 Root     75 :    16.679636484704750
 Root     76 :    16.679639967636090
 Root     77 :    16.749157080770440
 Root     78 :    16.813019568809260
 Root     79 :    16.813019788376680
 Root     80 :    16.934842755632030
 Root     81 :    16.934843577095980
 Root     82 :    16.994603079104780
 Root     83 :    16.994603152250690
 Root     84 :    17.022592241399220
 Root     85 :    17.132867350641310
 Root     86 :    17.132867632333040
 Root     87 :    17.196805539286020
 Root     88 :    17.217803339679310
 Root     89 :    17.288619332360160
 Root     90 :    17.297209226419890
 Root     91 :    17.355205595075470
 Root     92 :    17.367108955444260
 Root     93 :    17.367113718460770
 Root     94 :    17.412489163687690
 Root     95 :    17.684377102346570
 Root     96 :    17.684377445977720
 Root     97 :    17.747302914552530
 Root     98 :    17.747303042669750
 Root     99 :    18.097189915355010
 Root    100 :    18.097193479427140
 Root    101 :    18.112904973922330
 Root    102 :    18.395152313756730
 Root    103 :    18.395152335859580
 Root    104 :    18.576883145145460
 Root    105 :    18.576888448726820
 Root    106 :    19.059799184574640
 Root    107 :    19.073009351327240
 Root    108 :    19.073015031155790
 Root    109 :    19.130343311096540
 Root    110 :    19.259571126582500
 Root    111 :    19.287240785722610
 Root    112 :    19.412101147507500
 Root    113 :    19.442311895411690
 Root    114 :    19.442312852210560
 Root    115 :    19.633429401932050
 Root    116 :    19.781578520932180
 Root    117 :    19.781580529419180
 Root    118 :    19.894521889967460
 Root    119 :    19.975604619913390
 Root    120 :    19.999530003386990
 Root    121 :    19.999534677330720
 Root    122 :    20.019566068464760
 Root    123 :    20.037798823368070
 Root    124 :    20.043765484426180
 Root    125 :    20.043766428174600
 Root    126 :    20.200611136481690
 Root    127 :    20.200878087498320
 Root    128 :    20.200879397007490
 Root    129 :    20.270537641147320
 Root    130 :    20.270539236301480
 Root    131 :    20.386250420894640
 Root    132 :    20.386252303044920
 Root    133 :    20.446393640503280
 Root    134 :    20.446393667001320
 Root    135 :    20.603515933351300
 Root    136 :    20.603517362315270
 Root    137 :    20.753048594420620
 Root    138 :    20.881660061826240
 Root    139 :    20.961469922306150
 Root    140 :    21.034589251919130
 Root    141 :    21.034593524325270
 Root    142 :    21.115013482420700
 Root    143 :    21.115013492341880
 Root    144 :    21.288554838148610
 Root    145 :    21.346762092865870
 Root    146 :    21.346762846162380
 Root    147 :    21.389860232323970
 Root    148 :    21.389860612478930
 Root    149 :    21.457159099774220
 Root    150 :    21.612364629479340
 Root    151 :    21.881707650498780
 Root    152 :    22.034230314599610
 Root    153 :    22.034232887163320
 Root    154 :    22.114966539861130
 Root    155 :    22.114968250386070
 Root    156 :    22.376206592644560
 Root    157 :    22.376206745228270
 Root    158 :    22.445731262822850
 Root    159 :    22.571335348147850
 Root    160 :    22.571336898879860
 Root    161 :    22.852801658978710
 Root    162 :    23.001300654584700
 Root    163 :    23.001301477378440
 Root    164 :    23.208723326963860
 Root    165 :    23.208725057943710
 Root    166 :    23.209895985651610
 Root    167 :    23.267973493936120
 Root    168 :    23.267985747175440
 Root    169 :    23.292750631148810
 Root    170 :    23.292752437346540
 Root    171 :    23.395773294326550
 Root    172 :    23.441727995114610
 Root    173 :    23.477593993685430
 Root    174 :    23.565828932615820
 Root    175 :    23.720259828506340
 Root    176 :    23.768575623548700
 Root    177 :    23.768576592104240
 Root    178 :    23.845848800757660
 Root    179 :    23.845850950518520
 Root    180 :    23.889231079399820
 Root    181 :    23.971250288749530
 Root    182 :    24.157056083831660
 Root    183 :    24.434437550774260
 Root    184 :    24.442473540803790
 Root    185 :    24.442474971863860
 Root    186 :    24.642658961630110
 Root    187 :    24.642659267267330
 Root    188 :    24.654039336324810
 Root    189 :    24.687021090940970
 Root    190 :    24.737645268565530
 Root    191 :    24.737648382583200
 Root    192 :    24.780800198580860
 Root    193 :    24.780800913341080
 Root    194 :    24.785646336540810
 Root    195 :    25.119235976611730
 Root    196 :    25.119235985485930
 Root    197 :    25.400837157563880
 Root    198 :    25.400837817882740
 Root    199 :    25.733943448454550
 Root    200 :    25.733943859659220
 Root    201 :    25.792077333471120
 Root    202 :    26.097237123310520
 Root    203 :    26.097237142052560
 Root    204 :    26.409593566995170
 Root    205 :    26.844985998912440
 Root    206 :    26.878379263527720
 Root    207 :    26.878384688682550
 Root    208 :    26.883542156070350
 Root    209 :    26.883545100367440
 Root    210 :    26.904131995214140
 Root    211 :    26.904133540931970
 Root    212 :    26.972941260083950
 Root    213 :    27.311510894291490
 Root    214 :    27.311511841794420
 Root    215 :    27.393246350035290
 Root    216 :    27.558936953517170
 Root    217 :    27.703865526658390
 Root    218 :    27.801118295812270
 Root    219 :    27.801118989124810
 Root    220 :    27.919153281189480
 Root    221 :    27.930739180429910
 Root    222 :    28.067103525327590
 Root    223 :    28.067103697905580
 Root    224 :    28.295673641765060
 Root    225 :    28.320320259336240
 Root    226 :    28.320320360129090
 Root    227 :    28.345644462308280
 Root    228 :    28.436272340463230
 Root    229 :    28.468527761006370
 Root    230 :    28.468527958727920
 Root    231 :    28.963208015054530
 Root    232 :    28.963208350857960
 Root    233 :    28.965852902937950
 Root    234 :    29.105229091645830
 Root    235 :    29.105229719504600
 Root    236 :    29.397029817801600
 Root    237 :    30.177711419884720
 Root    238 :    30.202147712067280
 Root    239 :    30.202148683582950
 Root    240 :    30.352933268655520
 Root    241 :    30.506105211393440
 Root    242 :    30.506105751389730
 Root    243 :    30.548316611939390
 Root    244 :    30.548317010944270
 Root    245 :    30.589650330454140
 Root    246 :    30.783525888951910
 Root    247 :    30.783526183939700
 Root    248 :    30.784308209690080
 Root    249 :    31.019712866031840
 Root    250 :    31.264704623411540
 Root    251 :    31.264704904083670
 Root    252 :    31.450783433595970
 Root    253 :    31.554115564959990
 Root    254 :    31.568969891103990
 Root    255 :    31.568970363031180
 Root    256 :    31.927142327008220
 Root    257 :    31.927146475693360
 Root    258 :    31.944288141747960
 Root    259 :    32.002487424199170
 Root    260 :    32.002487513713400
 Root    261 :    32.009335353505190
 Root    262 :    32.009335990868880
 Root    263 :    32.425136646756190
 Root    264 :    32.497474832797730
 Root    265 :    32.497475596863540
 Root    266 :    32.589611558811990
 Root    267 :    32.732868562421930
 Root    268 :    32.732882774730850
 Root    269 :    32.897520451558240
 Root    270 :    33.128416177554670
 Root    271 :    33.290504473677200
 Root    272 :    33.290504967803620
 Root    273 :    33.481047226359820
 Root    274 :    33.809109731826700
 Root    275 :    33.860511960648890
 Root    276 :    33.860513603791600
 Root    277 :    33.897048369374480
 Root    278 :    34.436997852306990
 Root    279 :    34.616329509434730
 Root    280 :    34.616329986403440
 Root    281 :    34.679970158218720
 Root    282 :    34.679970248004260
 Root    283 :    34.976043298019800
 Root    284 :    34.987202525013760
 Root    285 :    34.987203697047860
 Root    286 :    35.064824916744630
 Root    287 :    35.064826256216530
 Root    288 :    35.170164650084270
 Root    289 :    35.350696976404870
 Root    290 :    35.350698493205480
 Root    291 :    35.564254419432150
 Root    292 :    35.564255391572740
 Root    293 :    35.686132738253850
 Root    294 :    35.686133042731040
 Root    295 :    35.770023599901630
 Root    296 :    35.770024813777110
 Root    297 :    36.107172095861950
 Root    298 :    36.107172445160310
 Root    299 :    36.361950990108360
 Root    300 :    36.365053019379730
 Root    301 :    36.365053705553200
 Root    302 :    36.381167529090610
 Root    303 :    36.398687304254920
 Root    304 :    36.471924098170250
 Root    305 :    36.722188001126590
 Root    306 :    36.722188463264980
 Root    307 :    37.122964616127530
 Root    308 :    37.431280457742500
 Root    309 :    37.431282140195680
 Root    310 :    38.002915701588240
 Root    311 :    38.040974400617130
 Root    312 :    38.040977935033720
 Root    313 :    38.067830225085880
 Root    314 :    38.082306818343640
 Root    315 :    38.082307384011310
 Root    316 :    38.177512325731330
 Root    317 :    38.177516964400940
 Root    318 :    38.516607987665570
 Root    319 :    38.516607993206820
 Root    320 :    38.858882419008910
 Root    321 :    38.858882650051500
 Root    322 :    39.000292128191030
 Root    323 :    39.487900977975630
 Root    324 :    39.747802748667720
 Root    325 :    39.769739932235770
 Root    326 :    40.170430202027650
 Root    327 :    40.170431503562450
 Root    328 :    40.253821740469420
 Root    329 :    40.772835995438520
 Root    330 :    40.837379455106460
 Root    331 :    40.837388698472040
 Root    332 :    41.267997043422000
 Root    333 :    41.267999416506880
 Root    334 :    41.386739628326490
 Root    335 :    41.480701956368210
 Root    336 :    41.480702170264270
 Root    337 :    41.600815488624270
 Root    338 :    41.613626969475950
 Root    339 :    41.613628947382090
 Root    340 :    41.841257802316930
 Root    341 :    41.841257824441750
 Root    342 :    42.123655742736960
 Root    343 :    42.123656770967870
 Root    344 :    42.856492631919670
 Root    345 :    43.053951373349340
 Root    346 :    43.053954620729770
 Root    347 :    43.239154722089840
 Root    348 :    43.443404297465510
 Root    349 :    43.535641874130460
 Root    350 :    44.283259855093470
 Root    351 :    44.283259995112290
 Root    352 :    44.367502703445910
 Root    353 :    44.832738777975630
 Root    354 :    44.832739935394320
 Root    355 :    44.875211190368970
 Root    356 :    44.895079229144540
 Root    357 :    44.993981304370800
 Root    358 :    44.993981836658900
 Root    359 :    45.354131501110880
 Root    360 :    46.065146157671490
 Root    361 :    46.065147250943680
 Root    362 :    46.428453792700300
 Root    363 :    46.428455436959820
 Root    364 :    46.617670598322660
 Root    365 :    46.856221151693740
 Root    366 :    47.494794668728520
 Root    367 :    47.494794675791650
 Root    368 :    47.889100896943160
 Root    369 :    47.993043166808580
 Root    370 :    47.993043857817600
 Root    371 :    48.215003053083820
 Root    372 :    48.492595617864490
 Root    373 :    48.561956290699020
 Root    374 :    48.561960215661030
 Root    375 :    48.925326984458960
 Root    376 :    48.977847249900680
 Root    377 :    48.977847593781070
 Root    378 :    49.329759044184320
 Root    379 :    49.619517721888480
 Root    380 :    49.769199629935970
 Root    381 :    49.769218930152730
 Root    382 :    50.368998625691130
 Root    383 :    50.574666884553430
 Root    384 :    50.983510546969030
 Root    385 :    50.983510855423270
 Root    386 :    51.828873589175180
 Root    387 :    52.196286026400320
 Root    388 :    52.196293899728770
 Root    389 :    52.305636488473820
 Root    390 :    52.305641511832840
 Root    391 :    52.580559251364660
 Root    392 :    52.661813005062630
 Root    393 :    52.805234752295540
 Root    394 :    52.805234922382550
 Root    395 :    53.283542752504810
 Root    396 :    53.356904905911700
 Root    397 :    53.356905657115850
 Root    398 :    53.413501671689640
 Root    399 :    53.413509434200410
 Root    400 :    53.620039358430950
 Root    401 :    53.620042157193330
 Root    402 :    53.629789595926900
 Root    403 :    54.160515953981940
 Root    404 :    54.179831094758640
 Root    405 :    54.179831224766870
 Root    406 :    54.397784750931150
 Root    407 :    54.404003024923630
 Root    408 :    54.560724396361490
 Root    409 :    54.906026472066550
 Root    410 :    55.480553604357470
 Root    411 :    55.480558573774590
 Root    412 :    55.530448885430710
 Root    413 :    55.749491134851160
 Root    414 :    55.749511453369620
 Root    415 :    55.928759931652980
 Root    416 :    55.928760549588030
 Root    417 :    56.550695774080420
 Root    418 :    56.550696355806150
 Root    419 :    56.793440762429180
 Root    420 :    57.031751647111900
 Root    421 :    57.031753534521550
 Root    422 :    57.098981385339380
 Root    423 :    57.344400130465810
 Root    424 :    57.992194798686650
 Root    425 :    58.287533543720890
 Root    426 :    58.287534404988890
 Root    427 :    58.358808771846260
 Root    428 :    58.417239434144870
 Root    429 :    59.482468351583450
 Root    430 :    59.482471061553270
 Root    431 :    59.747337046611230
 Root    432 :    59.747341598937660
 Root    433 :    60.367016451296580
 Root    434 :    60.367018946256810
 Root    435 :    60.401357492396010
 Root    436 :    60.427347240112350
 Root    437 :    60.768467705675550
 Root    438 :    60.768468658477850
 Root    439 :    60.966637418475510
 Root    440 :    60.966637751154630
 Root    441 :    61.597914402660000
 Root    442 :    63.220910515631570
 Root    443 :    63.220911444567620
 Root    444 :    63.448800736884610
 Root    445 :    63.513680789089730
 Root    446 :    63.513683349667250
 Root    447 :    63.631793788907490
 Root    448 :    63.694908495781480
 Root    449 :    63.694910475232190
 Root    450 :    63.973334449968980
 Root    451 :    64.203773025066520
 Root    452 :    65.024997688737760
 Root    453 :    65.024997932916800
 Root    454 :    65.136864074935670
 Root    455 :    65.136866038607070
 Root    456 :    65.299072025494130
 Root    457 :    65.376360955008850
 Root    458 :    65.376361677934700
 Root    459 :    65.770367673564310
 Root    460 :    66.073661195981030
 Root    461 :    66.073661511179840
 Root    462 :    66.503448904343300
 Root    463 :    66.503450553936870
 Root    464 :    66.514028341084810
 Root    465 :    66.866147423509060
 Root    466 :    67.071789500924750
 Root    467 :    67.071794343513990
 Root    468 :    68.202360527432220
 Root    469 :    68.466114350665580
 Root    470 :    68.710002547401690
 Root    471 :    68.710008153629230
 Root    472 :    68.896946397204260
 Root    473 :    68.896946435601000
 Root    474 :    68.957587802347490
 Root    475 :    68.957588458287860
 Root    476 :    69.152316682354640
 Root    477 :    69.592302117324110
 Root    478 :    69.953188419806990
 Root    479 :    69.953191221838680
 Root    480 :    69.985378342695140
 Root    481 :    69.985378809551610
 Root    482 :    71.739578317168390
 Root    483 :    71.739580425587330
 Root    484 :    72.200784436366530
 Root    485 :    72.200786792349920
 Root    486 :    72.997535703421520
 Root    487 :    73.009848610405300
 Root    488 :    73.712837318601030
 Root    489 :    74.045935773187570
 Root    490 :    74.045941730573130
 Root    491 :    75.030872707673980
 Root    492 :    75.030872995185770
 Root    493 :    75.140429296270990
 Root    494 :    75.140429666196670
 Root    495 :    75.212367273989060
 Root    496 :    75.458290466059480
 Root    497 :    75.739621176594210
 Root    498 :    75.739621623862800
 Root    499 :    75.828739899037200
 Root    500 :    76.686352127845540
 Root    501 :    76.686352803189930
 Root    502 :    76.830569005692850
 Root    503 :    76.830569274196280
 Root    504 :    77.346352993011240
 Root    505 :    77.398804668304210
 Root    506 :    77.815199956368470
 Root    507 :    77.815200285204240
 Root    508 :    78.510532382311410
 Root    509 :    78.524031542138720
 Root    510 :    78.695221035847540
 Root    511 :    78.695221683553980
 Root    512 :    78.833720439306180
 Root    513 :    78.926768357690700
 Root    514 :    78.926770845118380
 Root    515 :    80.110870363606920
 Root    516 :    80.110872791198720
 Root    517 :    80.454621182090520
 Root    518 :    80.539208186895640
 Root    519 :    80.539208312001860
 Root    520 :    81.222517456297340
 Root    521 :    81.222517929170290
 Root    522 :    81.868669498851830
 Root    523 :    83.745013041457810
 Root    524 :    84.294795203276280
 Root    525 :    84.294798985948500
 Root    526 :    85.425400586001660
 Root    527 :    85.425401390261560
 Root    528 :    85.894957355518560
 Root    529 :    86.896997845461190
 Root    530 :    86.896999935777270
 Root    531 :    88.735932266434970
 Root    532 :    88.735934779029490
 Root    533 :    88.873112948342540
 Root    534 :    88.873116740939910
 Root    535 :    88.948109206331840
 Root    536 :    89.063072858328110
 Root    537 :    89.546106808537420
 Root    538 :    89.546107131606700
 Root    539 :    90.373263608929650
 Root    540 :    90.373264231408000
 Root    541 :    91.039271777002090
 Root    542 :    91.039274733695610
 Root    543 :    91.518680365581060
 Root    544 :    91.616196701887520
 Root    545 :    91.616198618843100
 Root    546 :    91.783915948169440
 Root    547 :    92.168621555770290
 Root    548 :    92.196421932050240
 Root    549 :    92.196424209769730
 Root    550 :    92.279328289597000
 Root    551 :    92.756386716707140
 Root    552 :    92.978831084873930
 Root    553 :    92.978831687133270
 Root    554 :    93.066132284691730
 Root    555 :    93.351635873615860
 Root    556 :    93.351641415597230
 Root    557 :    94.578933791770450
 Root    558 :    94.578936910046490
 Root    559 :    95.333686372951280
 Root    560 :    95.333687310124770
 Root    561 :    95.333739591081230
 Root    562 :    95.652743882913440
 Root    563 :    96.018150987973140
 Root    564 :    96.191723150125610
 Root    565 :    96.678682823912350
 Root    566 :    96.678686553375750
 Root    567 :   100.134217577534800
 Root    568 :   100.134231444745500
 Root    569 :   102.586679811661600
 Root    570 :   103.388606669325600
 Root    571 :   103.388615126650300
 Root    572 :   103.672175442681400
 Root    573 :   103.672175502519800
 Root    574 :   106.283850812568300
 Root    575 :   106.283852758146200
 Root    576 :   106.294559427672500
 Root    577 :   106.818321848779100
 Root    578 :   106.818321985346500
 Root    579 :   107.664879290155700
 Root    580 :   110.146762264343100
 Root    581 :   110.146764932996200
 Root    582 :   111.351963561006000
 Root    583 :   118.119830892947900
 Root    584 :   121.573785801359500
 Convergence achieved for final wavefunctions.
 ***********************************************************************
 Excited states from <AA,BB:AA,BB> singles matrix:
 ***********************************************************************
 
 1PDM for each excited state written to RWF  633
 Ground to excited state transition densities written to RWF  633
 Ground to excited state transition electric dipole moments (Au):
       state          X           Y           Z        Dip. S.      Osc.
         1         0.0000      0.0431      0.0000      0.0019      0.0004
         2         0.0431      0.0000      0.0000      0.0019      0.0004
         3        -0.0000     -0.0000     -0.0000      0.0000      0.0000
         4         0.0000     -0.1074     -0.0000      0.0115      0.0023
         5        -0.1074      0.0000      0.0000      0.0115      0.0023
         6        -0.0000     -0.0000     -0.2361      0.0557      0.0117
         7        -0.0000      0.2403     -0.0000      0.0578      0.0130
         8         0.2403      0.0000      0.0000      0.0578      0.0130
         9         0.4430     -0.0000     -0.0000      0.1963      0.0480
        10        -0.0000      0.4430      0.0000      0.1963      0.0480
        11        -0.0000     -0.0000      1.1322      1.2819      0.3199
        12        -0.0000     -0.0000      0.3204      0.1027      0.0263
        13         0.0000      0.1450      0.0000      0.0210      0.0055
        14         0.1450     -0.0000      0.0000      0.0210      0.0055
        15         0.0000     -0.0000      0.0000      0.0000      0.0000
        16        -0.0000      0.1413      0.0000      0.0200      0.0055
        17         0.1413     -0.0000     -0.0000      0.0200      0.0055
        18         0.0000      0.0000      0.0000      0.0000      0.0000
        19         0.0000     -0.0000     -0.1079      0.0117      0.0033
        20        -0.0000     -0.0428     -0.0000      0.0018      0.0005
        21        -0.0428     -0.0000      0.0000      0.0018      0.0005
        22         0.0000     -0.1425      0.0000      0.0203      0.0057
        23        -0.1425     -0.0000     -0.0000      0.0203      0.0057
        24         0.0000     -0.0000     -0.0000      0.0000      0.0000
        25         0.0000     -0.0000     -0.9125      0.8326      0.2400
        26        -0.6836      0.0000      0.0000      0.4673      0.1347
        27        -0.0000     -0.6836     -0.0000      0.4673      0.1347
        28         0.0000     -0.2981      0.0000      0.0888      0.0258
        29        -0.2981      0.0000      0.0000      0.0888      0.0258
        30        -0.0000      0.2634     -0.0000      0.0694      0.0202
        31         0.2634     -0.0000     -0.0000      0.0694      0.0202
        32        -0.0000     -0.0000      1.4523      2.1091      0.6199
        33         0.0000     -0.0000      0.5573      0.3106      0.0982
        34         0.0000     -0.0000     -0.6502      0.4228      0.1343
        35        -0.2417      0.0000      0.0000      0.0584      0.0191
        36        -0.0000     -0.2417      0.0000      0.0584      0.0191
        37         0.0000     -0.1734      0.0000      0.0301      0.0100
        38        -0.1735      0.0000     -0.0000      0.0301      0.0100
        39        -0.0000      0.1321     -0.0000      0.0174      0.0058
        40        -0.1321      0.0000     -0.0000      0.0174      0.0058
        41        -0.0000     -0.0000      0.0000      0.0000      0.0000
        42         0.0000     -0.2808     -0.0000      0.0789      0.0271
        43         0.2808      0.0000     -0.0000      0.0789      0.0271
        44         0.0000      0.0000     -0.0000      0.0000      0.0000
        45        -0.0000      0.3849     -0.0000      0.1482      0.0515
        46         0.3849     -0.0000      0.0000      0.1482      0.0515
        47         0.0000     -0.0000     -0.2534      0.0642      0.0224
        48         0.0000     -0.2494      0.0000      0.0622      0.0218
        49        -0.2494     -0.0000      0.0000      0.0622      0.0218
        50        -0.0000     -0.0180     -0.0000      0.0003      0.0001
        51        -0.0180      0.0000      0.0000      0.0003      0.0001
        52         0.0000      0.0000     -0.1002      0.0100      0.0036
        53        -0.0000      0.0000      0.8682      0.7538      0.2734
        54         0.0000     -0.0000     -0.0000      0.0000      0.0000
        55         0.0000      0.0000      0.2665      0.0710      0.0259
        56         0.1170     -0.0000     -0.0000      0.0137      0.0050
        57         0.0000      0.1170     -0.0000      0.0137      0.0050
        58        -0.0000     -0.0000      0.1283      0.0164      0.0061
        59         0.5543     -0.0000     -0.0000      0.3072      0.1159
        60         0.0000      0.5543     -0.0000      0.3072      0.1159
        61        -0.3630      0.0000      0.0000      0.1318      0.0500
        62        -0.0000     -0.3630      0.0000      0.1318      0.0500
        63         0.0000      0.0000      0.1072      0.0115      0.0044
        64        -0.0000     -0.0000      0.0000      0.0000      0.0000
        65        -0.0000     -0.0000     -0.0205      0.0004      0.0002
        66        -0.5689      0.0000      0.0000      0.3237      0.1280
        67         0.0000     -0.5689      0.0000      0.3237      0.1280
        68         0.3457     -0.0000     -0.0000      0.1195      0.0474
        69         0.0000      0.3457      0.0000      0.1195      0.0474
        70        -0.2580      0.0000      0.0000      0.0665      0.0266
        71        -0.0000      0.2580     -0.0000      0.0665      0.0266
        72         0.5283     -0.0000     -0.0000      0.2791      0.1118
        73        -0.0000      0.5283     -0.0000      0.2791      0.1118
        74        -0.0000      0.0000      0.0000      0.0000      0.0000
        75        -0.0000     -0.7184      0.0000      0.5162      0.2109
        76        -0.7184      0.0000      0.0000      0.5161      0.2109
        77        -0.0000     -0.0000     -0.4226      0.1786      0.0733
        78         0.0000      0.4320     -0.0000      0.1866      0.0769
        79         0.4320     -0.0000      0.0000      0.1866      0.0769
        80         0.0000      0.1245     -0.0000      0.0155      0.0064
        81        -0.1245     -0.0000      0.0000      0.0155      0.0064
        82        -0.0418      0.0000     -0.0000      0.0017      0.0007
        83         0.0000      0.0418     -0.0000      0.0017      0.0007
        84        -0.0000     -0.0000      0.5905      0.3487      0.1454
        85         0.0868      0.0000     -0.0000      0.0075      0.0032
        86         0.0000     -0.0868     -0.0000      0.0075      0.0032
        87        -0.0000     -0.0000      0.0000      0.0000      0.0000
        88         0.0000     -0.0000     -0.5486      0.3010      0.1270
        89         0.0000     -0.0000      0.0000      0.0000      0.0000
        90         0.0000     -0.0000      0.3899      0.1520      0.0644
        91        -0.0000      0.0000     -0.0000      0.0000      0.0000
        92        -0.0000     -0.4539      0.0000      0.2060      0.0877
        93        -0.4539      0.0000      0.0000      0.2060      0.0877
        94         0.0000     -0.0000      0.3856      0.1487      0.0634
        95         0.0000      0.3791     -0.0000      0.1437      0.0623
        96        -0.3791      0.0000     -0.0000      0.1437      0.0623
        97         0.1090     -0.0000     -0.0000      0.0119      0.0052
        98         0.0000      0.1090      0.0000      0.0119      0.0052
        99         0.7195     -0.0000     -0.0000      0.5177      0.2295
       100         0.0000      0.7195     -0.0001      0.5177      0.2295
       101        -0.0000     -0.0000     -0.0894      0.0080      0.0035
       102         0.1069      0.0000      0.0000      0.0114      0.0052
       103         0.0000     -0.1069      0.0000      0.0114      0.0052
       104        -0.0000      0.3682      0.0000      0.1355      0.0617
       105         0.3682     -0.0000     -0.0000      0.1355      0.0617
       106         0.0000      0.0000      0.3739      0.1398      0.0653
       107        -0.0000      0.4064     -0.0000      0.1652      0.0772
       108         0.4064     -0.0000     -0.0000      0.1652      0.0772
       109         0.0000     -0.0000      0.2423      0.0587      0.0275
       110         0.0000     -0.0000      0.0000      0.0000      0.0000
       111         0.0000      0.0000      0.2324      0.0540      0.0255
       112        -0.0000      0.0000      0.5897      0.3477      0.1654
       113         0.0000     -0.0266     -0.0000      0.0007      0.0003
       114        -0.0266      0.0000      0.0000      0.0007      0.0003
       115        -0.0000     -0.0000      0.4017      0.1614      0.0776
       116         0.0000      0.1535     -0.0000      0.0236      0.0114
       117         0.1535     -0.0000      0.0000      0.0236      0.0114
       118        -0.0000      0.0000     -0.5082      0.2583      0.1259
       119        -0.0000     -0.0000     -0.0000      0.0000      0.0000
       120        -0.0000      0.0897      0.0000      0.0081      0.0039
       121         0.0897     -0.0000     -0.0000      0.0081      0.0039
       122        -0.0000      0.0000      0.0095      0.0001      0.0000
       123         0.0000     -0.0000      0.0000      0.0000      0.0000
       124        -0.0998     -0.0000      0.0000      0.0100      0.0049
       125         0.0000     -0.0998      0.0000      0.0100      0.0049
       126        -0.0000      0.0001      0.4525      0.2048      0.1013
       127        -0.0000      0.0450     -0.0017      0.0020      0.0010
       128         0.0450     -0.0000      0.0000      0.0020      0.0010
       129         0.0000     -0.4503      0.0000      0.2027      0.1007
       130         0.4503     -0.0000      0.0000      0.2027      0.1007
       131        -0.2729      0.0000      0.0000      0.0745      0.0372
       132         0.0000      0.2729     -0.0000      0.0745      0.0372
       133         0.0000      0.2193      0.0000      0.0481      0.0241
       134        -0.2193     -0.0000     -0.0000      0.0481      0.0241
       135         0.0000     -0.1223      0.0000      0.0149      0.0075
       136         0.1223      0.0000      0.0000      0.0149      0.0075
       137         0.0000     -0.0000      0.0000      0.0000      0.0000
       138        -0.0000      0.0000     -0.0027      0.0000      0.0000
       139        -0.0000      0.0000      0.0000      0.0000      0.0000
       140        -0.0000     -0.5450      0.0000      0.2970      0.1531
       141        -0.5450     -0.0000      0.0000      0.2970      0.1531
       142         0.2949      0.0000      0.0000      0.0870      0.0450
       143        -0.0000     -0.2949     -0.0000      0.0870      0.0450
       144        -0.0000      0.0000      0.0418      0.0018      0.0009
       145        -0.3666     -0.0000     -0.0000      0.1344      0.0703
       146         0.0000      0.3666     -0.0000      0.1344      0.0703
       147        -0.0000     -0.1145     -0.0000      0.0131      0.0069
       148        -0.1145      0.0000     -0.0000      0.0131      0.0069
       149        -0.0000     -0.0000     -0.3338      0.1114      0.0586
       150        -0.0000      0.0000      0.0000      0.0000      0.0000
       151        -0.0000      0.0000     -0.1891      0.0358      0.0192
       152        -0.1543     -0.0000     -0.0000      0.0238      0.0129
       153         0.0000      0.1543      0.0000      0.0238      0.0129
       154        -0.2183     -0.0000      0.0000      0.0476      0.0258
       155         0.0000     -0.2183      0.0000      0.0476      0.0258
       156        -0.0000     -0.1548      0.0000      0.0240      0.0131
       157        -0.1548     -0.0000     -0.0000      0.0240      0.0131
       158        -0.0000      0.0000     -0.1992      0.0397      0.0218
       159        -0.0222      0.0000      0.0000      0.0005      0.0003
       160        -0.0000     -0.0222     -0.0000      0.0005      0.0003
       161        -0.0000      0.0000      0.0048      0.0000      0.0000
       162        -0.1427     -0.0000     -0.0000      0.0203      0.0115
       163         0.0000     -0.1427     -0.0000      0.0203      0.0115
       164        -0.0000     -0.0388     -0.0001      0.0015      0.0009
       165         0.0388     -0.0000      0.0000      0.0015      0.0009
       166         0.0000     -0.0000     -0.0116      0.0001      0.0001
       167        -0.0880      0.0000     -0.0000      0.0077      0.0044
       168        -0.0000     -0.0880      0.0000      0.0077      0.0044
       169        -0.0711      0.0000     -0.0000      0.0051      0.0029
       170        -0.0000     -0.0711     -0.0000      0.0051      0.0029
       171        -0.0000     -0.0000      0.1309      0.0171      0.0098
       172         0.0000     -0.0000      0.0000      0.0000      0.0000
       173         0.0000      0.0000      0.0000      0.0000      0.0000
       174         0.0000     -0.0000      0.4524      0.2046      0.1181
       175        -0.0000     -0.0000      0.2032      0.0413      0.0240
       176        -0.1084      0.0000     -0.0000      0.0118      0.0068
       177        -0.0000      0.1084     -0.0000      0.0118      0.0068
       178         0.5098     -0.0000      0.0000      0.2599      0.1518
       179        -0.0000      0.5098      0.0000      0.2599      0.1518
       180         0.0000      0.0000     -0.0729      0.0053      0.0031
       181         0.0000     -0.0000      0.0000      0.0000      0.0000
       182        -0.0000     -0.0000     -0.3571      0.1275      0.0755
       183         0.0000     -0.0000     -0.0000      0.0000      0.0000
       184        -0.2896     -0.0000     -0.0000      0.0839      0.0502
       185        -0.0000      0.2896     -0.0000      0.0839      0.0502
       186         0.3753     -0.0000     -0.0000      0.1408      0.0850
       187        -0.0000      0.3753     -0.0000      0.1408      0.0850
       188        -0.0000     -0.0000     -0.0999      0.0100      0.0060
       189        -0.0000     -0.0000     -0.3811      0.1452      0.0878
       190        -0.4367     -0.0000      0.0000      0.1907      0.1156
       191        -0.0000     -0.4367      0.0000      0.1907      0.1156
       192        -0.0000      0.4863      0.0000      0.2365      0.1436
       193        -0.4863      0.0000     -0.0000      0.2365      0.1436
       194         0.0000      0.0000      0.3722      0.1385      0.0841
       195        -0.0000     -0.1462      0.0000      0.0214      0.0132
       196         0.1462     -0.0000     -0.0000      0.0214      0.0132
       197         0.0796     -0.0000      0.0000      0.0063      0.0039
       198        -0.0000      0.0796     -0.0000      0.0063      0.0039
       199        -0.2899     -0.0000     -0.0000      0.0840      0.0530
       200         0.0000     -0.2899     -0.0000      0.0840      0.0530
       201         0.0000     -0.0000      0.0731      0.0054      0.0034
       202        -0.0000     -0.0266      0.0000      0.0007      0.0005
       203        -0.0266     -0.0000     -0.0000      0.0007      0.0005
       204        -0.0000     -0.0000     -0.0883      0.0078      0.0050
[...]
     10   0.000000D+00  0.000000D+00  0.293692D-05  0.000000D+00  0.000000D+00
     11   0.000000D+00  0.311436D+00  0.000000D+00 -0.139408D+00 -0.160804D+00
     12   0.000000D+00  0.311439D+00  0.000000D+00  0.139398D+00  0.160804D+00
     13   0.000000D+00  0.615600D+00  0.000000D+00 -0.109930D-04 -0.456915D-05
     14  -0.356758D+00  0.000000D+00 -0.139403D+00  0.000000D+00  0.000000D+00
     15  -0.647784D-02  0.000000D+00  0.468829D-01  0.000000D+00  0.000000D+00
     16   0.000000D+00  0.276432D-05  0.000000D+00  0.468828D-01  0.450243D-01
               516           517           518           519           520 
      1  -0.129740D+03 -0.129727D+03 -0.129724D+03 -0.129724D+03 -0.129699D+03
      2   0.958544D-01  0.000000D+00  0.000000D+00 -0.195449D+00  0.821823D-01
      3   0.000000D+00  0.000000D+00  0.195448D+00  0.000000D+00  0.000000D+00
      4   0.000000D+00  0.800538D-01  0.000000D+00  0.000000D+00  0.000000D+00
      5  -0.249063D+00  0.000000D+00  0.000000D+00  0.488306D+00 -0.202127D+00
      6   0.000000D+00 -0.182316D-05 -0.488305D+00  0.000000D+00  0.000000D+00
      7   0.000000D+00 -0.197269D+00 -0.209442D-05  0.000000D+00  0.000000D+00
      8   0.000000D+00 -0.393348D-05  0.106942D+01  0.000000D+00  0.000000D+00
      9   0.109404D+00  0.000000D+00  0.000000D+00  0.106942D+01 -0.564877D+00
     10   0.000000D+00  0.000000D+00  0.000000D+00  0.000000D+00  0.000000D+00
     11   0.000000D+00  0.193237D-01  0.266973D-01  0.000000D+00  0.000000D+00
     12   0.000000D+00  0.193208D-01 -0.266975D-01  0.000000D+00  0.000000D+00
     13   0.000000D+00  0.610651D+00  0.133021D-04  0.000000D+00  0.000000D+00
     14   0.160805D+00  0.000000D+00  0.000000D+00 -0.266973D-01 -0.102603D+00
     15  -0.450209D-01  0.000000D+00  0.000000D+00  0.964583D+00 -0.605114D+00
     16   0.000000D+00  0.447426D-05 -0.964580D+00  0.000000D+00  0.000000D+00
               521           522           523           524           525 
      1  -0.129699D+03 -0.129675D+03 -0.129606D+03 -0.129586D+03 -0.129586D+03
      2   0.000000D+00  0.000000D+00  0.000000D+00 -0.802520D-01  0.000000D+00
      3   0.821829D-01  0.000000D+00  0.000000D+00  0.000000D+00 -0.802513D-01
      4   0.000000D+00  0.343526D-01 -0.414728D-01  0.000000D+00  0.000000D+00
      5   0.000000D+00  0.000000D+00  0.000000D+00  0.164144D+00  0.000000D+00
      6  -0.202129D+00  0.121152D-05  0.000000D+00  0.000000D+00  0.164141D+00
      7  -0.177632D-05 -0.998683D-01  0.128017D+00  0.000000D+00  0.000000D+00
      8   0.564881D+00  0.000000D+00  0.498989D-05  0.000000D+00  0.111133D+00
      9   0.000000D+00  0.000000D+00  0.000000D+00 -0.111129D+00  0.000000D+00
     10   0.000000D+00  0.000000D+00  0.000000D+00  0.000000D+00  0.000000D+00
     11  -0.102602D+00  0.245147D-01 -0.814894D-01  0.000000D+00 -0.290598D-01
     12   0.102603D+00  0.245164D-01 -0.814889D-01  0.000000D+00  0.290607D-01
     13   0.947243D-05 -0.538571D+00  0.106107D+01  0.000000D+00 -0.438471D-05
     14   0.000000D+00  0.000000D+00  0.000000D+00 -0.290620D-01  0.000000D+00
     15   0.000000D+00  0.000000D+00  0.000000D+00 -0.199659D+00  0.000000D+00
     16  -0.605117D+00 -0.106337D-05 -0.559485D-05  0.000000D+00 -0.199662D+00
               526           527           528           529           530 
      1  -0.129544D+03 -0.129544D+03 -0.129527D+03 -0.129490D+03 -0.129490D+03
      2   0.000000D+00 -0.294598D-02  0.000000D+00  0.000000D+00  0.229165D-01
      3  -0.294629D-02  0.000000D+00  0.180248D-05 -0.229164D-01  0.000000D+00
      4   0.000000D+00  0.000000D+00  0.443773D-01  0.000000D+00  0.000000D+00
      5   0.000000D+00  0.599139D-02  0.000000D+00  0.000000D+00 -0.478808D-01
      6   0.599228D-02  0.000000D+00 -0.547755D-05  0.478804D-01  0.000000D+00
      7   0.000000D+00  0.000000D+00 -0.156749D+00  0.000000D+00  0.000000D+00
      8   0.886926D-01  0.000000D+00 -0.823782D-05  0.325174D+00  0.000000D+00
      9   0.000000D+00 -0.886916D-01  0.000000D+00  0.000000D+00  0.325177D+00
     10   0.000000D+00  0.000000D+00  0.000000D+00  0.000000D+00  0.000000D+00
     11  -0.190171D+00  0.000000D+00 -0.649451D-01  0.192728D+00  0.000000D+00
     12   0.190172D+00  0.000000D+00 -0.649537D-01 -0.192729D+00  0.000000D+00
     13   0.000000D+00  0.000000D+00  0.461643D+00  0.740481D-05  0.000000D+00
     14   0.000000D+00 -0.190170D+00  0.000000D+00  0.000000D+00 -0.192728D+00
     15   0.000000D+00 -0.142928D+00  0.000000D+00  0.000000D+00  0.464154D+00
     16  -0.142930D+00  0.000000D+00  0.102536D-04 -0.464152D+00  0.000000D+00
               531           532           533           534           535 
      1  -0.129423D+03 -0.129423D+03 -0.129418D+03 -0.129418D+03 -0.129415D+03
      2   0.000000D+00  0.992329D-02  0.000000D+00 -0.627040D-01  0.000000D+00
      3   0.992510D-02  0.000000D+00 -0.627051D-01  0.000000D+00  0.000000D+00
      4   0.000000D+00  0.000000D+00  0.220852D-05  0.000000D+00  0.123197D+00
      5   0.000000D+00 -0.325817D-01  0.000000D+00  0.179047D+00  0.000000D+00
      6  -0.325875D-01  0.000000D+00  0.179050D+00  0.000000D+00  0.307908D-05
      7   0.170990D-05  0.000000D+00 -0.671450D-05  0.000000D+00 -0.378362D+00
      8  -0.278686D+00  0.000000D+00  0.134820D+00  0.000000D+00  0.579000D-05
      9   0.000000D+00  0.278678D+00  0.000000D+00 -0.134810D+00  0.000000D+00
     10   0.000000D+00  0.000000D+00  0.000000D+00  0.000000D+00  0.000000D+00
     11   0.368849D+00  0.000000D+00  0.191513D+00  0.000000D+00  0.130614D-01
     12  -0.368852D+00  0.000000D+00 -0.191513D+00  0.000000D+00  0.130757D-01
     13   0.663960D-05  0.000000D+00 -0.174198D-04  0.000000D+00 -0.677091D+00
     14   0.000000D+00  0.368842D+00  0.000000D+00  0.191521D+00  0.000000D+00
     15   0.000000D+00  0.285762D+00  0.000000D+00 -0.120343D+00  0.000000D+00
     16   0.285772D+00  0.000000D+00 -0.120354D+00  0.000000D+00 -0.700906D-05
               536           537           538           539           540 
      1  -0.129411D+03 -0.129393D+03 -0.129393D+03 -0.129362D+03 -0.129362D+03
      2   0.000000D+00 -0.391751D-01  0.000000D+00  0.000000D+00  0.694779D-01
      3   0.000000D+00  0.000000D+00  0.391745D-01 -0.694787D-01  0.000000D+00
      4   0.000000D+00  0.000000D+00  0.000000D+00  0.000000D+00  0.000000D+00
      5   0.000000D+00  0.120887D+00  0.000000D+00  0.000000D+00 -0.193448D+00
      6   0.000000D+00  0.000000D+00 -0.120885D+00  0.193451D+00  0.000000D+00
      7   0.000000D+00  0.000000D+00  0.000000D+00  0.000000D+00  0.000000D+00
      8   0.000000D+00  0.000000D+00  0.725693D+00 -0.328205D+00  0.000000D+00
      9   0.000000D+00  0.725693D+00  0.000000D+00  0.000000D+00 -0.328211D+00
     10   0.275988D-02  0.000000D+00  0.000000D+00  0.000000D+00  0.000000D+00
     11   0.000000D+00  0.000000D+00  0.103553D+00 -0.333408D-01  0.000000D+00
     12   0.000000D+00  0.000000D+00 -0.103552D+00  0.333406D-01  0.000000D+00
     13   0.000000D+00  0.000000D+00 -0.453387D-05 -0.216200D-05  0.000000D+00
     14   0.000000D+00 -0.103554D+00  0.000000D+00  0.000000D+00  0.333374D-01
     15   0.000000D+00  0.109265D+01  0.000000D+00  0.000000D+00 -0.314877D+00
     16   0.000000D+00  0.000000D+00 -0.109265D+01  0.314869D+00  0.000000D+00
               541           542           543           544           545 
      1  -0.129338D+03 -0.129338D+03 -0.129320D+03 -0.129317D+03 -0.129317D+03
      2   0.000000D+00 -0.126580D+00  0.000000D+00  0.000000D+00 -0.590415D-01
      3  -0.126580D+00  0.000000D+00  0.189248D-04 -0.590118D-01  0.000000D+00
      4   0.000000D+00  0.000000D+00  0.187480D-01  0.219034D-05  0.000000D+00
      5   0.000000D+00  0.339332D+00  0.000000D+00  0.000000D+00  0.181674D+00
      6   0.339331D+00  0.000000D+00 -0.609606D-04  0.181578D+00  0.000000D+00
      7   0.243024D-05  0.000000D+00 -0.982077D-01 -0.816975D-05  0.000000D+00
      8  -0.404411D+00  0.000000D+00 -0.802865D-04  0.427486D+00  0.000000D+00
      9   0.000000D+00  0.404408D+00  0.000000D+00  0.000000D+00 -0.427586D+00
     10   0.000000D+00  0.000000D+00  0.000000D+00  0.000000D+00  0.000000D+00
     11  -0.387292D-01  0.000000D+00 -0.146931D-01 -0.318494D-01  0.000000D+00
     12   0.387296D-01  0.000000D+00 -0.148042D-01  0.318503D-01  0.000000D+00
     13   0.378123D-05  0.000000D+00 -0.960276D+00 -0.757610D-04  0.000000D+00
     14   0.000000D+00 -0.387319D-01  0.000000D+00  0.000000D+00 -0.319400D-01
     15   0.000000D+00  0.393691D+00  0.000000D+00  0.000000D+00 -0.342754D+00
     16   0.393696D+00  0.000000D+00  0.937745D-04 -0.342626D+00  0.000000D+00
               546           547           548           549           550 
      1  -0.129311D+03 -0.129296D+03 -0.129295D+03 -0.129295D+03 -0.129292D+03
      2   0.000000D+00  0.140446D-04  0.000000D+00 -0.879547D-01  0.229695D-05
      3   0.107480D-04  0.000000D+00  0.879663D-01  0.000000D+00  0.000000D+00
      4   0.499972D-01  0.000000D+00  0.000000D+00  0.000000D+00  0.000000D+00
      5   0.000000D+00 -0.408426D-04  0.000000D+00  0.259219D+00 -0.670318D-05
      6  -0.348458D-04  0.000000D+00 -0.259257D+00  0.000000D+00  0.000000D+00
      7  -0.123472D+00  0.000000D+00  0.000000D+00  0.000000D+00  0.000000D+00
      8  -0.368127D-04  0.000000D+00 -0.626193D+00  0.000000D+00  0.000000D+00
      9   0.000000D+00  0.837879D-04  0.000000D+00 -0.626137D+00  0.140532D-04
     10   0.000000D+00  0.105023D-01  0.000000D+00  0.124055D-05  0.276767D-02
     11   0.319887D-01  0.000000D+00  0.907790D-01  0.000000D+00  0.000000D+00
     12   0.319200D-01  0.000000D+00 -0.907793D-01  0.000000D+00  0.000000D+00
     13   0.111312D+01  0.000000D+00  0.951826D-05  0.000000D+00  0.000000D+00
     14   0.000000D+00  0.143542D-04  0.000000D+00 -0.907381D-01  0.216159D-05
     15   0.000000D+00  0.835682D-04  0.000000D+00 -0.690999D+00  0.140103D-04
     16   0.478465D-04  0.000000D+00  0.691067D+00  0.000000D+00  0.000000D+00
               551           552           553           554           555 
      1  -0.129275D+03 -0.129267D+03 -0.129267D+03 -0.129263D+03 -0.129253D+03
      2   0.000000D+00 -0.179713D+00  0.000000D+00  0.000000D+00  0.185510D-01
      3   0.129708D-05  0.000000D+00 -0.179714D+00 -0.244178D-04  0.000000D+00
      4   0.107748D-01  0.000000D+00  0.000000D+00 -0.152915D+00  0.000000D+00
      5   0.000000D+00  0.517966D+00  0.000000D+00  0.000000D+00 -0.599154D-01
      6  -0.433444D-05  0.000000D+00  0.517968D+00  0.802115D-04  0.000000D+00
      7  -0.466842D-01  0.000000D+00  0.000000D+00  0.504240D+00  0.000000D+00
      8  -0.175836D-05  0.000000D+00 -0.108924D+01  0.922033D-04  0.000000D+00
      9   0.000000D+00  0.108925D+01  0.000000D+00  0.000000D+00 -0.753256D-01
     10   0.000000D+00  0.000000D+00  0.000000D+00  0.000000D+00  0.000000D+00
     11   0.160538D+00  0.000000D+00  0.287747D-01 -0.263839D-01  0.000000D+00
     12   0.160525D+00  0.000000D+00 -0.287755D-01 -0.262296D-01  0.000000D+00
     13  -0.108061D+01  0.000000D+00 -0.272463D-05  0.372426D+01  0.000000D+00
     14   0.000000D+00  0.287786D-01  0.000000D+00  0.000000D+00 -0.948691D-01
     15   0.000000D+00  0.160143D+01  0.000000D+00  0.000000D+00  0.128042D+00
     16   0.373272D-05  0.000000D+00  0.160143D+01 -0.113675D-03  0.000000D+00
               556           557           558           559           560 
      1  -0.129253D+03 -0.129208D+03 -0.129208D+03 -0.129180D+03 -0.129180D+03
      2   0.000000D+00  0.000000D+00  0.489185D-02  0.000000D+00 -0.303132D-01
      3  -0.185497D-01  0.491485D-02  0.000000D+00 -0.302919D-01  0.000000D+00
      4   0.000000D+00  0.000000D+00  0.000000D+00 -0.193393D-02  0.000000D+00
      5   0.000000D+00  0.000000D+00 -0.762826D-02  0.000000D+00  0.936692D-01
      6   0.599095D-01 -0.771485D-02  0.000000D+00  0.936038D-01  0.000000D+00
      7   0.198502D-05 -0.104516D-05  0.000000D+00  0.829312D-02  0.000000D+00
      8  -0.753078D-01  0.313633D+00  0.000000D+00  0.288241D+00  0.000000D+00
      9   0.000000D+00  0.000000D+00 -0.313419D+00  0.000000D+00 -0.288456D+00
     10   0.000000D+00  0.000000D+00  0.000000D+00  0.000000D+00  0.000000D+00
     11   0.948700D-01  0.682749D-01  0.000000D+00 -0.188976D-01  0.000000D+00
     12  -0.948686D-01 -0.682746D-01  0.000000D+00  0.175322D-01  0.000000D+00
     13  -0.532008D-05  0.430147D-05  0.000000D+00  0.681025D-02  0.000000D+00
     14   0.000000D+00  0.000000D+00  0.682777D-01  0.000000D+00 -0.182279D-01
     15   0.000000D+00  0.000000D+00 -0.430139D+00  0.000000D+00 -0.853582D-01
     16  -0.128056D+00 -0.430356D+00  0.000000D+00 -0.852867D-01  0.000000D+00
               561           562           563           564           565 
      1  -0.129180D+03 -0.129168D+03 -0.129155D+03 -0.129149D+03 -0.129131D+03
      2   0.000000D+00  0.000000D+00  0.000000D+00  0.000000D+00  0.384780D-01
      3   0.114618D-02  0.000000D+00 -0.106931D-05  0.131237D-05  0.000000D+00
      4  -0.515686D-01  0.000000D+00 -0.103951D+00  0.784173D-01  0.000000D+00
      5   0.000000D+00  0.000000D+00  0.000000D+00  0.000000D+00 -0.918909D-01
      6  -0.354066D-02  0.000000D+00  0.356059D-05 -0.442612D-05  0.000000D+00
      7   0.220780D+00  0.000000D+00  0.357524D+00 -0.274071D+00  0.000000D+00
      8  -0.108407D-01  0.000000D+00  0.903672D-05 -0.641946D-05  0.000000D+00
      9   0.000000D+00 -0.111847D-05  0.000000D+00  0.000000D+00 -0.473903D+00
     10   0.000000D+00  0.181598D-01  0.000000D+00  0.000000D+00  0.000000D+00
     11  -0.174187D-01  0.000000D+00  0.171192D-01 -0.750292D-01  0.000000D+00
     12  -0.187927D-01  0.000000D+00  0.171224D-01 -0.750342D-01  0.000000D+00
     13   0.179462D+00  0.000000D+00  0.192232D+00  0.154355D+01  0.000000D+00
     14   0.000000D+00  0.000000D+00  0.000000D+00  0.000000D+00  0.255638D-01
     15   0.000000D+00  0.000000D+00  0.000000D+00  0.000000D+00 -0.592314D+00
     16   0.318339D-02  0.000000D+00 -0.956528D-05  0.727998D-05  0.000000D+00
               566           567           568           569           570 
      1  -0.129131D+03 -0.129004D+03 -0.129004D+03 -0.128914D+03 -0.128884D+03
      2   0.000000D+00  0.119045D+00  0.000000D+00  0.000000D+00 -0.136803D-01
      3   0.384796D-01  0.000000D+00 -0.119044D+00  0.000000D+00  0.000000D+00
      4   0.000000D+00  0.000000D+00  0.000000D+00 -0.646082D-01  0.000000D+00
      5   0.000000D+00 -0.327521D+00  0.000000D+00  0.000000D+00  0.494765D-01
      6  -0.918976D-01  0.000000D+00  0.327518D+00 -0.104414D-05  0.000000D+00
      7  -0.124350D-05  0.000000D+00  0.000000D+00  0.160404D+00  0.000000D+00
      8   0.473922D+00  0.000000D+00  0.649771D+00  0.000000D+00  0.000000D+00
      9   0.000000D+00  0.649771D+00  0.000000D+00  0.000000D+00 -0.296815D+00
     10   0.000000D+00  0.000000D+00  0.000000D+00  0.000000D+00  0.000000D+00
     11   0.255632D-01  0.000000D+00  0.138426D+00  0.254083D-01  0.000000D+00
     12  -0.255628D-01  0.000000D+00 -0.138426D+00  0.254042D-01  0.000000D+00
     13   0.306100D-05  0.000000D+00  0.000000D+00 -0.415918D+00  0.000000D+00
     14   0.000000D+00 -0.138426D+00  0.000000D+00  0.000000D+00  0.101527D+00
     15   0.000000D+00  0.575161D+00  0.000000D+00  0.000000D+00 -0.243368D+00
     16  -0.592334D+00  0.000000D+00 -0.575161D+00  0.165609D-05  0.000000D+00
               571           572           573           574           575 
      1  -0.128884D+03 -0.128874D+03 -0.128874D+03 -0.128778D+03 -0.128778D+03
      2   0.000000D+00  0.343940D-01  0.000000D+00  0.000000D+00 -0.248679D-01
      3  -0.136800D-01  0.000000D+00 -0.343940D-01 -0.248680D-01  0.000000D+00
      4   0.000000D+00  0.000000D+00 -0.458569D-05 -0.157179D-05  0.000000D+00
      5   0.000000D+00 -0.107125D+00  0.000000D+00  0.000000D+00  0.733831D-01
      6   0.494752D-01  0.000000D+00  0.107125D+00  0.733834D-01  0.000000D+00
      7   0.000000D+00  0.000000D+00  0.213221D-04  0.748824D-05  0.000000D+00
      8   0.296821D+00  0.000000D+00 -0.477854D-01 -0.431618D+00  0.000000D+00
      9   0.000000D+00 -0.477862D-01  0.000000D+00  0.000000D+00  0.431617D+00
     10   0.000000D+00  0.000000D+00  0.000000D+00  0.000000D+00  0.000000D+00
     11   0.101528D+00  0.000000D+00 -0.106960D-02 -0.129880D-01  0.000000D+00
     12  -0.101528D+00  0.000000D+00  0.106633D-02  0.129865D-01  0.000000D+00
     13   0.445087D-05  0.000000D+00  0.162875D-04  0.636015D-05  0.000000D+00
     14   0.000000D+00  0.106828D-02  0.000000D+00  0.000000D+00 -0.129876D-01
     15   0.000000D+00 -0.137142D+00  0.000000D+00  0.000000D+00  0.618688D+00
     16  -0.243373D+00  0.000000D+00  0.137141D+00  0.618688D+00  0.000000D+00
               576           577           578           579           580 
      1  -0.128777D+03 -0.128758D+03 -0.128758D+03 -0.128727D+03 -0.128636D+03
      2   0.000000D+00  0.250094D-01  0.000000D+00  0.000000D+00  0.000000D+00
      3  -0.317849D-05  0.000000D+00  0.250093D-01 -0.274540D-05  0.128869D-01
      4   0.259702D-01  0.000000D+00  0.000000D+00 -0.165590D+00  0.000000D+00
      5   0.000000D+00 -0.800889D-01  0.000000D+00  0.000000D+00  0.000000D+00
      6   0.108927D-04  0.000000D+00 -0.800889D-01  0.103519D-04 -0.390553D-01
      7  -0.134164D+00  0.000000D+00  0.000000D+00  0.563683D+00  0.000000D+00
      8   0.347789D-04  0.000000D+00  0.478018D+00  0.880578D-05 -0.654593D-01
      9   0.000000D+00 -0.478019D+00  0.000000D+00  0.000000D+00  0.000000D+00
     10   0.000000D+00  0.000000D+00  0.000000D+00  0.000000D+00  0.000000D+00
     11   0.856897D-02  0.000000D+00  0.237854D-01 -0.146180D+00 -0.592675D-01
     12   0.857099D-02  0.000000D+00 -0.237846D-01 -0.146161D+00  0.592677D-01
     13  -0.177976D+01  0.000000D+00 -0.364464D-05  0.355207D+01  0.000000D+00
     14   0.000000D+00  0.237850D-01  0.000000D+00  0.000000D+00  0.000000D+00
     15   0.000000D+00 -0.675308D+00  0.000000D+00  0.000000D+00  0.000000D+00
     16  -0.932918D-05  0.000000D+00 -0.675307D+00 -0.780605D-05  0.937416D-01
               581           582           583           584 
      1  -0.128636D+03 -0.128591D+03 -0.128343D+03 -0.128216D+03
      2   0.128868D-01  0.000000D+00  0.000000D+00  0.000000D+00
      3   0.000000D+00  0.000000D+00 -0.113850D-05 -0.270464D-05
      4   0.000000D+00 -0.583264D-01  0.336605D-01 -0.667697D-01
      5  -0.390548D-01  0.000000D+00  0.000000D+00  0.000000D+00
      6   0.000000D+00  0.167642D-05  0.450592D-05  0.104787D-04
      7   0.000000D+00  0.200787D+00 -0.727469D-01  0.265563D+00
      8   0.000000D+00  0.403991D-05  0.951284D-05  0.422335D-04
      9   0.654621D-01  0.000000D+00  0.000000D+00  0.000000D+00
     10   0.000000D+00  0.000000D+00  0.000000D+00  0.000000D+00
     11   0.000000D+00  0.164975D+00  0.341129D-01  0.539169D-02
     12   0.000000D+00  0.164976D+00  0.341177D-01  0.539131D-02
     13   0.000000D+00 -0.998031D+00  0.416505D+00  0.928160D+00
     14  -0.592678D-01  0.000000D+00  0.000000D+00  0.000000D+00
     15   0.937444D-01  0.000000D+00  0.000000D+00  0.000000D+00
     16   0.000000D+00 -0.390405D-05 -0.357476D-05 -0.157179D-04
 Unable to Open any file for archive entry.
 1\1\GINC-HEL10\SP\RTPSSTPSS TD-FC\Gen\C2H3N1\SABYASACHI\21-Mar-2022\0\
 \#P TD(Nstates=10000) tpsstpss/Gen SCF(maxcycles=100) Int(Grid=ultrafi
 ne)\\xGDB7_00001_tier4.com\\0,1\C,0,0.,0.,-1.173653\C,0,0.,0.,0.280989
 \N,0,0.,0.,1.427442\H,0,0.,1.024088,-1.545371\H,0,-0.886886,-0.512044,
 -1.545371\H,0,0.886886,-0.512044,-1.545371\\Version=EM64L-G16RevC.01\S
 tate=1-A1\HF=-132.6835568\RMSD=8.833e-09\PG=C03V [C3(C1C1N1),3SGV(H1)]
 \\@
 The archive entry for this job was punched.


 FIREWORKS ENDED
 AND SPECTATORS GONE AWAY....
 AH, HOW VAST AND DARK
                     SHIKI
 Job cpu time:       0 days  0 hours  5 minutes 58.2 seconds.
 Elapsed time:       0 days  0 hours  0 minutes 45.0 seconds.
 File lengths (MBytes):  RWF=    173 Int=      0 D2E=      0 Chk=    101 Scr=      1
 Normal termination of Gaussian 16 at Mon Mar 21 20:27:36 2022.
