 Entering Gaussian System, Link 0=g16
 Input=000013.com
 Output=000013.log
 Initial command:
 /home/sabyasachi/g16/l1.exe "/scratch/sabyasachi/PBS_7976543.helios/Gau-48789.inp" -scrdir="/scratch/sabyasachi/PBS_7976543.helios/"
 Entering Link 1 = /home/sabyasachi/g16/l1.exe PID=     48790.
  
 Copyright (c) 1988-2019, Gaussian, Inc.  All Rights Reserved.
  
 This is part of the Gaussian(R) 16 program.  It is based on
 the Gaussian(R) 09 system (copyright 2009, Gaussian, Inc.),
 the Gaussian(R) 03 system (copyright 2003, Gaussian, Inc.),
 the Gaussian(R) 98 system (copyright 1998, Gaussian, Inc.),
 the Gaussian(R) 94 system (copyright 1995, Gaussian, Inc.),
 the Gaussian 92(TM) system (copyright 1992, Gaussian, Inc.),
 the Gaussian 90(TM) system (copyright 1990, Gaussian, Inc.),
 the Gaussian 88(TM) system (copyright 1988, Gaussian, Inc.),
 the Gaussian 86(TM) system (copyright 1986, Carnegie Mellon
 University), and the Gaussian 82(TM) system (copyright 1983,
 Carnegie Mellon University). Gaussian is a federally registered
 trademark of Gaussian, Inc.
  
 This software contains proprietary and confidential information,
 including trade secrets, belonging to Gaussian, Inc.
  
 This software is provided under written license and may be
 used, copied, transmitted, or stored only in accord with that
 written license.
  
 The following legend is applicable only to US Government
 contracts under FAR:
  
                    RESTRICTED RIGHTS LEGEND
  
 Use, reproduction and disclosure by the US Government is
 subject to restrictions as set forth in subparagraphs (a)
 and (c) of the Commercial Computer Software - Restricted
 Rights clause in FAR 52.227-19.
  
 Gaussian, Inc.
 340 Quinnipiac St., Bldg. 40, Wallingford CT 06492
  
  
 ---------------------------------------------------------------
 Warning -- This program may not be used in any manner that
 competes with the business of Gaussian, Inc. or will provide
 assistance to any competitor of Gaussian, Inc.  The licensee
 of this program is prohibited from giving any competitor of
 Gaussian, Inc. access to this program.  By using this program,
 the user acknowledges that Gaussian, Inc. is engaged in the
 business of creating and licensing software in the field of
 computational chemistry and represents and warrants to the
 licensee that it is not a competitor of Gaussian, Inc. and that
 it will not use this program in any manner prohibited above.
 ---------------------------------------------------------------
  

 Cite this work as:
 Gaussian 16, Revision C.01,
 M. J. Frisch, G. W. Trucks, H. B. Schlegel, G. E. Scuseria, 
 M. A. Robb, J. R. Cheeseman, G. Scalmani, V. Barone, 
 G. A. Petersson, H. Nakatsuji, X. Li, M. Caricato, A. V. Marenich, 
 J. Bloino, B. G. Janesko, R. Gomperts, B. Mennucci, H. P. Hratchian, 
 J. V. Ortiz, A. F. Izmaylov, J. L. Sonnenberg, D. Williams-Young, 
 F. Ding, F. Lipparini, F. Egidi, J. Goings, B. Peng, A. Petrone, 
 T. Henderson, D. Ranasinghe, V. G. Zakrzewski, J. Gao, N. Rega, 
 G. Zheng, W. Liang, M. Hada, M. Ehara, K. Toyota, R. Fukuda, 
 J. Hasegawa, M. Ishida, T. Nakajima, Y. Honda, O. Kitao, H. Nakai, 
 T. Vreven, K. Throssell, J. A. Montgomery, Jr., J. E. Peralta, 
 F. Ogliaro, M. J. Bearpark, J. J. Heyd, E. N. Brothers, K. N. Kudin, 
 V. N. Staroverov, T. A. Keith, R. Kobayashi, J. Normand, 
 K. Raghavachari, A. P. Rendell, J. C. Burant, S. S. Iyengar, 
 J. Tomasi, M. Cossi, J. M. Millam, M. Klene, C. Adamo, R. Cammi, 
 J. W. Ochterski, R. L. Martin, K. Morokuma, O. Farkas, 
 J. B. Foresman, and D. J. Fox, Gaussian, Inc., Wallingford CT, 2019.
 
 ******************************************
 Gaussian 16:  EM64L-G16RevC.01  3-Jul-2019
                21-Mar-2022 
 ******************************************
 %mem=64gb
 %nproc=8
 Will use up to    8 processors via shared memory.
 ----------------------------------------------------------------------
 #P TD(Nstates=10000) tpsstpss/Gen SCF(maxcycles=100) Int(Grid=ultrafin
 e)
 ----------------------------------------------------------------------
 1/38=1,172=1/1;
 2/12=2,17=6,18=5,40=1/2;
 3/5=7,11=9,25=1,30=1,74=2523,75=-5/1,2,3,8;
 4//1;
 5/5=2,7=100,38=5/2;
 8/6=1,10=1,108=10000/1;
 9/41=10000,42=1,70=2/14;
 6/7=2,8=2,9=2,10=2/1;
 99/5=1,9=1/99;
 Leave Link    1 at Mon Mar 21 20:15:01 2022, MaxMem=  8589934592 cpu:               0.4 elap:               0.1
 (Enter /home/sabyasachi/g16/l101.exe)
 ---------------------
 xGDB7_00001_tier4.com
 ---------------------
 Symbolic Z-matrix:
 Charge =  0 Multiplicity = 1
 6                     0.        0.        0.59732 
 6                     0.        0.       -0.59732 
 1                     0.        0.        1.66134 
 1                     0.        0.       -1.66134 
 
 ITRead=  0  0  0  0
 MicOpt= -1 -1 -1 -1
 NAtoms=      4 NQM=        4 NQMF=       0 NMMI=      0 NMMIF=      0
                NMic=       0 NMicF=      0.
                    Isotopes and Nuclear Properties:
 (Nuclear quadrupole moments (NQMom) in fm**2, nuclear magnetic moments (NMagM)
  in nuclear magnetons)

  Atom         1           2           3           4
 IAtWgt=          12          12           1           1
 AtmWgt=  12.0000000  12.0000000   1.0078250   1.0078250
 NucSpn=           0           0           1           1
 AtZEff=  -0.0000000  -0.0000000  -0.0000000  -0.0000000
 NQMom=    0.0000000   0.0000000   0.0000000   0.0000000
 NMagM=    0.0000000   0.0000000   2.7928460   2.7928460
 AtZNuc=   6.0000000   6.0000000   1.0000000   1.0000000
 Leave Link  101 at Mon Mar 21 20:15:01 2022, MaxMem=  8589934592 cpu:               0.6 elap:               0.1
 (Enter /home/sabyasachi/g16/l202.exe)
                          Input orientation:                          
 ---------------------------------------------------------------------
 Center     Atomic      Atomic             Coordinates (Angstroms)
 Number     Number       Type             X           Y           Z
 ---------------------------------------------------------------------
      1          6           0        0.000000    0.000000    0.597322
      2          6           0        0.000000    0.000000   -0.597322
      3          1           0        0.000000    0.000000    1.661338
      4          1           0        0.000000    0.000000   -1.661338
 ---------------------------------------------------------------------
                    Distance matrix (angstroms):
                    1          2          3          4
     1  C    0.000000
     2  C    1.194644   0.000000
     3  H    1.064016   2.258660   0.000000
     4  H    2.258660   1.064016   3.322676   0.000000
 Stoichiometry    C2H2
 Framework group  D*H[C*(HC.CH)]
 Deg. of freedom     2
 Full point group                 D*H     NOp   8
 Largest Abelian subgroup         D2H     NOp   8
 Largest concise Abelian subgroup C2      NOp   2
                         Standard orientation:                         
 ---------------------------------------------------------------------
 Center     Atomic      Atomic             Coordinates (Angstroms)
 Number     Number       Type             X           Y           Z
 ---------------------------------------------------------------------
      1          6           0        0.000000    0.000000    0.597322
      2          6           0        0.000000    0.000000   -0.597322
      3          1           0        0.000000    0.000000    1.661338
      4          1           0        0.000000    0.000000   -1.661338
 ---------------------------------------------------------------------
 Rotational constants (GHZ):           0.0000000          35.7756801          35.7756801
 Leave Link  202 at Mon Mar 21 20:15:01 2022, MaxMem=  8589934592 cpu:               0.1 elap:               0.0
 (Enter /home/sabyasachi/g16/l301.exe)
 General basis read from cards:  (5D, 7F)
 Centers:       3      4
 S 3 1.00
     Exponent=  1.3010701000D+01 Coefficients=  1.9682158000D-02
     Exponent=  1.9622572000D+00 Coefficients=  1.3796524000D-01
     Exponent=  4.4453796000D-01 Coefficients=  4.7831935000D-01
 S 1 1.00
     Exponent=  1.2194962000D-01 Coefficients=  1.0000000000D+00
 P 1 1.00
     Exponent=  8.0000000000D-01 Coefficients=  1.0000000000D+00
 P 1 1.00
     Exponent=  1.1704099050D-01 Coefficients=  1.0000000000D+00
 ****
 Centers:       1      2
 S 5 1.00
     Exponent=  1.2384016938D+03 Coefficients=  5.4568832082D-03
     Exponent=  1.8629004992D+02 Coefficients=  4.0638409211D-02
     Exponent=  4.2251176346D+01 Coefficients=  1.8025593888D-01
     Exponent=  1.1676557932D+01 Coefficients=  4.6315121755D-01
     Exponent=  3.5930506482D+00 Coefficients=  4.4087173314D-01
 S 1 1.00
     Exponent=  4.0245147363D-01 Coefficients=  1.0000000000D+00
 S 1 1.00
     Exponent=  1.3090182668D-01 Coefficients=  1.0000000000D+00
 S 1 1.00
     Exponent=  6.7053540256D-02 Coefficients=  1.0000000000D+00
 P 3 1.00
     Exponent=  9.4680970621D+00 Coefficients=  3.8387871728D-02
     Exponent=  2.0103545142D+00 Coefficients=  2.1117025112D-01
     Exponent=  5.4771004707D-01 Coefficients=  5.1328172114D-01
 P 1 1.00
     Exponent=  1.5268613795D-01 Coefficients=  1.0000000000D+00
 D 1 1.00
     Exponent=  8.0000000000D-01 Coefficients=  1.0000000000D+00
 D 1 1.00
     Exponent=  1.1713185140D-01 Coefficients=  1.0000000000D+00
 ****
 Ernie: Thresh=  0.10000D-02 Tol=  0.10000D-05 Strict=F.
 There are    16 symmetry adapted cartesian basis functions of AG  symmetry.
 There are     2 symmetry adapted cartesian basis functions of B1G symmetry.
 There are     6 symmetry adapted cartesian basis functions of B2G symmetry.
 There are     6 symmetry adapted cartesian basis functions of B3G symmetry.
 There are     2 symmetry adapted cartesian basis functions of AU  symmetry.
 There are    16 symmetry adapted cartesian basis functions of B1U symmetry.
 There are     6 symmetry adapted cartesian basis functions of B2U symmetry.
 There are     6 symmetry adapted cartesian basis functions of B3U symmetry.
 There are    14 symmetry adapted basis functions of AG  symmetry.
 There are     2 symmetry adapted basis functions of B1G symmetry.
 There are     6 symmetry adapted basis functions of B2G symmetry.
 There are     6 symmetry adapted basis functions of B3G symmetry.
 There are     2 symmetry adapted basis functions of AU  symmetry.
 There are    14 symmetry adapted basis functions of B1U symmetry.
 There are     6 symmetry adapted basis functions of B2U symmetry.
 There are     6 symmetry adapted basis functions of B3U symmetry.
    56 basis functions,    84 primitive gaussians,    60 cartesian basis functions
     7 alpha electrons        7 beta electrons
       nuclear repulsion energy        24.8852849468 Hartrees.
 IExCor= 2523 DFT=T Ex=TPSS Corr=TPSS ExCW=0 ScaHFX=  0.000000
 ScaDFX=  1.000000  1.000000  1.000000  1.000000 ScalE2=  1.000000  1.000000
 IRadAn=      5 IRanWt=     -1 IRanGd=            0 ICorTp=0 IEmpDi=  4
 NAtoms=    4 NActive=    4 NUniq=    2 SFac= 4.00D+00 NAtFMM=   60 NAOKFM=F Big=F
 Integral buffers will be    131072 words long.
 Regular integral format.
 Two-electron integral symmetry is turned on.
 Leave Link  301 at Mon Mar 21 20:15:01 2022, MaxMem=  8589934592 cpu:               0.5 elap:               0.1
 (Enter /home/sabyasachi/g16/l302.exe)
 NPDir=0 NMtPBC=     1 NCelOv=     1 NCel=       1 NClECP=     1 NCelD=      1
         NCelK=      1 NCelE2=     1 NClLst=     1 CellRange=     0.0.
 One-electron integrals computed using PRISM.
 One-electron integral symmetry used in STVInt
 NBasis=    56 RedAO= T EigKep=  4.85D-05  NBF=    14     2     6     6     2    14     6     6
 NBsUse=    56 1.00D-06 EigRej= -1.00D+00 NBFU=    14     2     6     6     2    14     6     6
 Precomputing XC quadrature grid using
 IXCGrd= 4 IRadAn=           5 IRanWt=          -1 IRanGd=           0 AccXCQ= 0.00D+00.
 Generated NRdTot=       0 NPtTot=           0 NUsed=           0 NTot=          32
 NSgBfM=    60    60    60    60    60 MxSgAt=     4 MxSgA2=     4.
 Leave Link  302 at Mon Mar 21 20:15:01 2022, MaxMem=  8589934592 cpu:               0.9 elap:               0.1
 (Enter /home/sabyasachi/g16/l303.exe)
 DipDrv:  MaxL=1.
 Leave Link  303 at Mon Mar 21 20:15:01 2022, MaxMem=  8589934592 cpu:               0.2 elap:               0.0
 (Enter /home/sabyasachi/g16/l308.exe)
 Leave Link  308 at Mon Mar 21 20:15:01 2022, MaxMem=  8589934592 cpu:               0.2 elap:               0.0
 (Enter /home/sabyasachi/g16/l401.exe)
 ExpMin= 6.71D-02 ExpMax= 1.24D+03 ExpMxC= 1.86D+02 IAcc=3 IRadAn=         5 AccDes= 0.00D+00
 Harris functional with IExCor= 1009 and IRadAn=       5 diagonalized for initial guess.
 HarFok:  IExCor= 1009 AccDes= 0.00D+00 IRadAn=         5 IDoV= 1 UseB2=F ITyADJ=14
 ICtDFT=  3500011 ScaDFX=  1.000000  1.000000  1.000000  1.000000
 FoFCou: FMM=F IPFlag=           0 FMFlag=      100000 FMFlg1=           0
         NFxFlg=           0 DoJE=T BraDBF=F KetDBF=T FulRan=T
         wScrn=  0.000000 ICntrl=       500 IOpCl=  0 I1Cent=   200000004 NGrid=           0
         NMat0=    1 NMatS0=      1 NMatT0=    0 NMatD0=    1 NMtDS0=    0 NMtDT0=    0
 Petite list used in FoFCou.
 Harris En= -77.2322915958696    
 JPrj=0 DoOrth=F DoCkMO=F.
 Initial guess orbital symmetries:
       Occupied  (SGG) (SGU) (SGG) (SGU) (SGG) (PIU) (PIU)
       Virtual   (PIG) (PIG) (SGU) (SGG) (SGG) (SGU) (PIU) (PIU)
                 (DLTG) (DLTG) (PIG) (PIG) (SGG) (SGU) (SGG) (DLTU)
                 (DLTU) (PIU) (PIU) (SGU) (PIG) (PIG) (SGU) (SGG)
                 (PIU) (PIU) (SGU) (PIG) (PIG) (SGG) (SGG) (SGU)
                 (PIU) (PIU) (DLTG) (DLTG) (PIG) (PIG) (SGU) (DLTU)
                 (DLTU) (PIU) (PIU) (SGG) (SGU) (PIG) (PIG) (SGG)
                 (SGU)
 The electronic state of the initial guess is 1-SGG.
 Leave Link  401 at Mon Mar 21 20:15:02 2022, MaxMem=  8589934592 cpu:               1.2 elap:               0.2
 (Enter /home/sabyasachi/g16/l502.exe)
 Keep J ints in memory in symmetry-blocked form, NReq=8368566.
 FoFCou: FMM=F IPFlag=           0 FMFlag=           0 FMFlg1=           0
         NFxFlg=           0 DoJE=F BraDBF=F KetDBF=F FulRan=T
         wScrn=  0.000000 ICntrl=       600 IOpCl=  0 I1Cent=           0 NGrid=           0
         NMat0=    1 NMatS0=   1596 NMatT0=    0 NMatD0=    1 NMtDS0=    0 NMtDT0=    0
 Petite list used in FoFCou.
 Closed shell SCF:
 Using DIIS extrapolation, IDIIS=  1040.
 NGot=  8589934592 LenX=  8589745924 LenY=  8589741883
 Requested convergence on RMS density matrix=1.00D-08 within 100 cycles.
 Requested convergence on MAX density matrix=1.00D-06.
 Requested convergence on             energy=1.00D-06.
 No special actions if energy rises.
 Integral accuracy reduced to 1.0D-05 until final iterations.

 Cycle   1  Pass 0  IDiag  1:
 E= -77.2213471446300    
 DIIS: error= 4.93D-02 at cycle   1 NSaved=   1.
 NSaved= 1 IEnMin= 1 EnMin= -77.2213471446300     IErMin= 1 ErrMin= 4.93D-02
 ErrMax= 4.93D-02  0.00D+00 EMaxC= 1.00D-01 BMatC= 5.74D-02 BMatP= 5.74D-02
 IDIUse=3 WtCom= 5.07D-01 WtEn= 4.93D-01
 Coeff-Com:  0.100D+01
 Coeff-En:   0.100D+01
 Coeff:      0.100D+01
 Gap=     0.193 Goal=   None    Shift=    0.000
 GapD=    0.193 DampG=1.000 DampE=0.500 DampFc=0.5000 IDamp=-1.
 Damping current iteration by 5.00D-01
 RMSDP=2.29D-02 MaxDP=3.55D-01              OVMax= 1.80D-01

 Cycle   2  Pass 0  IDiag  1:
 E= -77.2503231825236     Delta-E=       -0.028976037894 Rises=F Damp=T
 DIIS: error= 1.02D-02 at cycle   2 NSaved=   2.
 NSaved= 2 IEnMin= 2 EnMin= -77.2503231825236     IErMin= 2 ErrMin= 1.02D-02
 ErrMax= 1.02D-02  0.00D+00 EMaxC= 1.00D-01 BMatC= 1.70D-03 BMatP= 5.74D-02
 IDIUse=3 WtCom= 8.98D-01 WtEn= 1.02D-01
 Coeff-Com:  0.493D-01 0.951D+00
 Coeff-En:   0.137D+00 0.863D+00
 Coeff:      0.583D-01 0.942D+00
 Gap=     0.274 Goal=   None    Shift=    0.000
 RMSDP=4.87D-03 MaxDP=8.16D-02 DE=-2.90D-02 OVMax= 1.02D-01

 Cycle   3  Pass 0  IDiag  1:
 E= -77.2878788573696     Delta-E=       -0.037555674846 Rises=F Damp=F
 DIIS: error= 2.05D-03 at cycle   3 NSaved=   3.
 NSaved= 3 IEnMin= 3 EnMin= -77.2878788573696     IErMin= 3 ErrMin= 2.05D-03
 ErrMax= 2.05D-03  0.00D+00 EMaxC= 1.00D-01 BMatC= 1.03D-04 BMatP= 1.70D-03
 IDIUse=3 WtCom= 9.80D-01 WtEn= 2.05D-02
 Coeff-Com: -0.308D-01 0.105D+00 0.926D+00
 Coeff-En:   0.000D+00 0.000D+00 0.100D+01
 Coeff:     -0.302D-01 0.103D+00 0.928D+00
 Gap=     0.267 Goal=   None    Shift=    0.000
 RMSDP=1.08D-03 MaxDP=2.51D-02 DE=-3.76D-02 OVMax= 4.19D-03

 Cycle   4  Pass 0  IDiag  1:
 E= -77.2880123484255     Delta-E=       -0.000133491056 Rises=F Damp=F
 DIIS: error= 1.02D-04 at cycle   4 NSaved=   4.
 NSaved= 4 IEnMin= 4 EnMin= -77.2880123484255     IErMin= 4 ErrMin= 1.02D-04
 ErrMax= 1.02D-04  0.00D+00 EMaxC= 1.00D-01 BMatC= 3.99D-07 BMatP= 1.03D-04
 IDIUse=3 WtCom= 9.99D-01 WtEn= 1.02D-03
 Coeff-Com: -0.578D-02 0.113D-01 0.154D+00 0.840D+00
 Coeff-En:   0.000D+00 0.000D+00 0.000D+00 0.100D+01
 Coeff:     -0.577D-02 0.113D-01 0.154D+00 0.841D+00
 Gap=     0.267 Goal=   None    Shift=    0.000
 RMSDP=4.75D-05 MaxDP=1.10D-03 DE=-1.33D-04 OVMax= 3.23D-04

 Cycle   5  Pass 0  IDiag  1:
 E= -77.2880128262030     Delta-E=       -0.000000477778 Rises=F Damp=F
 DIIS: error= 1.44D-05 at cycle   5 NSaved=   5.
 NSaved= 5 IEnMin= 5 EnMin= -77.2880128262030     IErMin= 5 ErrMin= 1.44D-05
 ErrMax= 1.44D-05  0.00D+00 EMaxC= 1.00D-01 BMatC= 4.76D-09 BMatP= 3.99D-07
 IDIUse=1 WtCom= 1.00D+00 WtEn= 0.00D+00
 Coeff-Com: -0.347D-03 0.506D-03 0.247D-02 0.465D-02 0.993D+00
 Coeff:     -0.347D-03 0.506D-03 0.247D-02 0.465D-02 0.993D+00
 Gap=     0.267 Goal=   None    Shift=    0.000
 RMSDP=1.01D-05 MaxDP=2.27D-04 DE=-4.78D-07 OVMax= 2.03D-05

 Cycle   6  Pass 0  IDiag  1:
 E= -77.2880128310873     Delta-E=       -0.000000004884 Rises=F Damp=F
 DIIS: error= 1.53D-06 at cycle   6 NSaved=   6.
 NSaved= 6 IEnMin= 6 EnMin= -77.2880128310873     IErMin= 6 ErrMin= 1.53D-06
 ErrMax= 1.53D-06  0.00D+00 EMaxC= 1.00D-01 BMatC= 8.17D-11 BMatP= 4.76D-09
 IDIUse=1 WtCom= 1.00D+00 WtEn= 0.00D+00
 Coeff-Com: -0.224D-04 0.128D-04-0.141D-02-0.100D-01 0.228D+00 0.783D+00
 Coeff:     -0.224D-04 0.128D-04-0.141D-02-0.100D-01 0.228D+00 0.783D+00
 Gap=     0.267 Goal=   None    Shift=    0.000
 RMSDP=6.72D-07 MaxDP=1.67D-05 DE=-4.88D-09 OVMax= 3.21D-06

 Initial convergence to 1.0D-05 achieved.  Increase integral accuracy.
 Cycle   7  Pass 1  IDiag  1:
 E= -77.2880124035409     Delta-E=        0.000000427546 Rises=F Damp=F
 DIIS: error= 2.56D-06 at cycle   1 NSaved=   1.
 NSaved= 1 IEnMin= 1 EnMin= -77.2880124035409     IErMin= 1 ErrMin= 2.56D-06
 ErrMax= 2.56D-06  0.00D+00 EMaxC= 1.00D-01 BMatC= 2.25D-10 BMatP= 2.25D-10
 IDIUse=1 WtCom= 1.00D+00 WtEn= 0.00D+00
 Coeff-Com:  0.100D+01
 Coeff:      0.100D+01
 Gap=     0.267 Goal=   None    Shift=    0.000
 RMSDP=6.72D-07 MaxDP=1.67D-05 DE= 4.28D-07 OVMax= 4.37D-06

 Cycle   8  Pass 1  IDiag  1:
 E= -77.2880124037444     Delta-E=       -0.000000000203 Rises=F Damp=F
 DIIS: error= 5.78D-07 at cycle   2 NSaved=   2.
 NSaved= 2 IEnMin= 2 EnMin= -77.2880124037444     IErMin= 2 ErrMin= 5.78D-07
 ErrMax= 5.78D-07  0.00D+00 EMaxC= 1.00D-01 BMatC= 9.98D-12 BMatP= 2.25D-10
 IDIUse=1 WtCom= 1.00D+00 WtEn= 0.00D+00
 Coeff-Com:  0.740D-01 0.926D+00
 Coeff:      0.740D-01 0.926D+00
 Gap=     0.267 Goal=   None    Shift=    0.000
 RMSDP=2.11D-07 MaxDP=2.79D-06 DE=-2.03D-10 OVMax= 2.16D-06

 Cycle   9  Pass 1  IDiag  1:
 E= -77.2880124037468     Delta-E=       -0.000000000002 Rises=F Damp=F
 DIIS: error= 5.93D-07 at cycle   3 NSaved=   3.
 NSaved= 3 IEnMin= 3 EnMin= -77.2880124037468     IErMin= 2 ErrMin= 5.78D-07
 ErrMax= 5.93D-07  0.00D+00 EMaxC= 1.00D-01 BMatC= 8.16D-12 BMatP= 9.98D-12
 IDIUse=1 WtCom= 1.00D+00 WtEn= 0.00D+00
 Coeff-Com: -0.521D-02 0.473D+00 0.532D+00
 Coeff:     -0.521D-02 0.473D+00 0.532D+00
 Gap=     0.267 Goal=   None    Shift=    0.000
 RMSDP=8.34D-08 MaxDP=8.31D-07 DE=-2.33D-12 OVMax= 1.02D-06

 Cycle  10  Pass 1  IDiag  1:
 E= -77.2880124037572     Delta-E=       -0.000000000010 Rises=F Damp=F
 DIIS: error= 3.20D-08 at cycle   4 NSaved=   4.
 NSaved= 4 IEnMin= 4 EnMin= -77.2880124037572     IErMin= 4 ErrMin= 3.20D-08
 ErrMax= 3.20D-08  0.00D+00 EMaxC= 1.00D-01 BMatC= 3.62D-14 BMatP= 8.16D-12
 IDIUse=1 WtCom= 1.00D+00 WtEn= 0.00D+00
 Coeff-Com: -0.397D-02 0.100D+00 0.131D+00 0.772D+00
 Coeff:     -0.397D-02 0.100D+00 0.131D+00 0.772D+00
 Gap=     0.267 Goal=   None    Shift=    0.000
 RMSDP=1.71D-08 MaxDP=3.95D-07 DE=-1.04D-11 OVMax= 5.25D-08

 Cycle  11  Pass 1  IDiag  1:
 E= -77.2880124037573     Delta-E=       -0.000000000000 Rises=F Damp=F
 DIIS: error= 1.70D-09 at cycle   5 NSaved=   5.
 NSaved= 5 IEnMin= 5 EnMin= -77.2880124037573     IErMin= 5 ErrMin= 1.70D-09
 ErrMax= 1.70D-09  0.00D+00 EMaxC= 1.00D-01 BMatC= 6.22D-17 BMatP= 3.62D-14
 IDIUse=1 WtCom= 1.00D+00 WtEn= 0.00D+00
 Coeff-Com: -0.308D-03 0.588D-02 0.805D-02 0.633D-01 0.923D+00
 Coeff:     -0.308D-03 0.588D-02 0.805D-02 0.633D-01 0.923D+00
 Gap=     0.267 Goal=   None    Shift=    0.000
 RMSDP=1.26D-09 MaxDP=3.17D-08 DE=-1.71D-13 OVMax= 4.58D-09

 SCF Done:  E(RTPSS-TPSS) =  -77.2880124038     A.U. after   11 cycles
            NFock= 11  Conv=0.13D-08     -V/T= 2.0109
 KE= 7.645147928433D+01 PE=-2.284772831905D+02 EE= 4.985250655561D+01
 Leave Link  502 at Mon Mar 21 20:15:02 2022, MaxMem=  8589934592 cpu:               2.7 elap:               0.4
 (Enter /home/sabyasachi/g16/l801.exe)
 DoSCS=F DFT=T ScalE2(SS,OS)=  1.000000  1.000000
 ExpMin= 6.71D-02 ExpMax= 1.24D+03 ExpMxC= 1.86D+02 IAcc=3 IRadAn=         5 AccDes= 0.00D+00
 HarFok:  IExCor=  205 AccDes= 0.00D+00 IRadAn=         5 IDoV=-2 UseB2=F ITyADJ=14
 ICtDFT= 12500011 ScaDFX=  1.000000  1.000000  1.000000  1.000000
 Largest valence mixing into a core orbital is  8.24D-05
 Largest core mixing into a valence orbital is  2.61D-05
 Range of M.O.s used for correlation:     3    56
 NBasis=    56 NAE=     7 NBE=     7 NFC=     2 NFV=     0
 NROrb=     54 NOA=     5 NOB=     5 NVA=    49 NVB=    49

 **** Warning!!: The largest alpha MO coefficient is  0.67137239D+02

 Leave Link  801 at Mon Mar 21 20:15:02 2022, MaxMem=  8589934592 cpu:               0.4 elap:               0.1
 (Enter /home/sabyasachi/g16/l914.exe)
 RHF ground state
 Keep J ints in memory in symmetry-blocked form, NReq=93795938.
 FoFCou: FMM=F IPFlag=           0 FMFlag=           0 FMFlg1=           0
         NFxFlg=           0 DoJE=F BraDBF=F KetDBF=F FulRan=T
         wScrn=  0.000000 ICntrl=       600 IOpCl=  0 I1Cent=           0 NGrid=           0
         NMat0=    1 NMatS0=   1596 NMatT0=    0 NMatD0=    1 NMtDS0=    0 NMtDT0=    0
 Petite list used in FoFCou.
 MDV=  8589934592 DFT=T DoStab=F Mixed=F DoRPA=T DoScal=T NonHer=F
 Making orbital integer symmetry assigments:
 Orbital symmetries:
       Occupied  (SGG) (SGU) (SGG) (SGU) (SGG) (PIU) (PIU)
       Virtual   (PIG) (PIG) (SGG) (SGU) (SGG) (SGU) (PIU) (PIU)
                 (DLTG) (DLTG) (PIG) (PIG) (SGU) (SGG) (SGG) (DLTU)
                 (DLTU) (PIU) (PIU) (SGU) (PIG) (PIG) (SGU) (SGG)
                 (PIU) (PIU) (PIG) (PIG) (SGG) (SGU) (SGG) (SGU)
                 (PIU) (PIU) (SGU) (PIG) (PIG) (DLTG) (DLTG) (DLTU)
                 (DLTU) (PIU) (PIU) (SGG) (SGU) (PIG) (PIG) (SGG)
                 (SGU)
   245 initial guesses have been made.
 Convergence on wavefunction:    0.001000000000000
 Davidson Disk Diagonalization:  ConvIn= 1.00D-03 SkipCon=T Conv= 1.00D-03.
 Max sub-space:   980 roots to seek:   490 dimension of matrix:          490
 *** WARNING: Number of orthogonal guesses is          245
 Iteration     1 Dimension   245 NMult     0 NNew    245
 CISAX will form   245 AO SS matrices at one time.
 NMat=   245 NSing=   245 JSym2X=-1.
 New state      2 was old state      3
 New state      3 was old state      2
 New state      4 was old state      6
 New state      6 was old state      8
 New state      8 was old state      9
 New state      9 was old state     10
 New state     10 was old state      4
 New state     11 was old state     12
 New state     12 was old state     11
 New state     17 was old state     18
 New state     18 was old state     17
 New state     19 was old state     22
 New state     20 was old state     21
 New state     21 was old state     19
 New state     22 was old state     20
 New state     25 was old state     27
 New state     26 was old state     25
 New state     27 was old state     28
 New state     28 was old state     32
 New state     29 was old state     31
 New state     31 was old state     29
 New state     32 was old state     26
 New state     33 was old state     37
 New state     34 was old state     36
 New state     35 was old state     34
 New state     36 was old state     35
 New state     37 was old state     33
 New state     38 was old state     40
 New state     39 was old state     41
 New state     40 was old state     44
 New state     41 was old state     45
 New state     42 was old state     39
 New state     43 was old state     42
 New state     44 was old state     43
 New state     45 was old state     46
 New state     46 was old state     47
 New state     47 was old state     38
 New state     48 was old state     49
 New state     49 was old state     48
 New state     52 was old state     54
 New state     54 was old state     60
 New state     55 was old state     59
 New state     56 was old state     57
 New state     57 was old state     58
 New state     58 was old state     55
 New state     59 was old state     56
 New state     60 was old state     61
 New state     61 was old state     52
 New state     63 was old state     66
 New state     64 was old state     65
 New state     65 was old state     64
 New state     66 was old state     63
 New state     71 was old state     72
 New state     72 was old state     71
 New state     76 was old state     77
 New state     77 was old state     78
 New state     78 was old state     76
 New state     79 was old state     83
 New state     80 was old state     79
 New state     83 was old state     84
 New state     84 was old state     85
 New state     85 was old state     80
 New state     86 was old state     88
 New state     87 was old state     89
 New state     88 was old state     87
 New state     89 was old state     90
 New state     90 was old state     91
 New state     91 was old state     93
 New state     93 was old state     86
 New state     98 was old state    101
 New state     99 was old state    102
 New state    100 was old state     98
 New state    101 was old state    100
 New state    102 was old state     99
 New state    108 was old state    110
 New state    110 was old state    111
 New state    111 was old state    112
 New state    112 was old state    113
 New state    113 was old state    114
 New state    114 was old state    115
 New state    115 was old state    108
 New state    120 was old state    121
 New state    121 was old state    122
 New state    122 was old state    123
 New state    123 was old state    120
 New state    125 was old state    127
 New state    126 was old state    128
 New state    127 was old state    125
 New state    128 was old state    126
 New state    129 was old state    132
 New state    130 was old state    131
 New state    131 was old state    129
 New state    132 was old state    134
 New state    134 was old state    130
 New state    136 was old state    138
 New state    138 was old state    136
 New state    141 was old state    142
 New state    142 was old state    141
 New state    146 was old state    149
 New state    149 was old state    146
 New state    152 was old state    153
 New state    153 was old state    152
 New state    156 was old state    157
 New state    157 was old state    159
 New state    159 was old state    160
 New state    160 was old state    162
 New state    161 was old state    156
 New state    162 was old state    161
 New state    164 was old state    165
 New state    165 was old state    164
 New state    166 was old state    168
 New state    168 was old state    171
 New state    169 was old state    172
 New state    171 was old state    169
 New state    172 was old state    175
 New state    173 was old state    176
 New state    174 was old state    166
 New state    175 was old state    177
 New state    176 was old state    178
 New state    177 was old state    174
 New state    178 was old state    173
 New state    187 was old state    189
 New state    188 was old state    190
 New state    189 was old state    187
 New state    190 was old state    188
 New state    191 was old state    192
 New state    192 was old state    191
 New state    193 was old state    195
 New state    194 was old state    196
 New state    195 was old state    197
 New state    196 was old state    199
 New state    197 was old state    201
 New state    198 was old state    200
 New state    199 was old state    193
 New state    200 was old state    194
 New state    201 was old state    198
 New state    202 was old state    205
 New state    203 was old state    204
 New state    204 was old state    202
 New state    205 was old state    203
 New state    208 was old state    209
 New state    209 was old state    208
 New state    212 was old state    213
 New state    213 was old state    212
 New state    220 was old state    221
 New state    221 was old state    220
 New state    226 was old state    227
 New state    227 was old state    226
 New state    228 was old state    229
 New state    229 was old state    228
 New state    230 was old state    231
 New state    231 was old state    230
 New state    232 was old state    233
 New state    233 was old state    232
 New state    234 was old state    237
 New state    235 was old state    236
 New state    236 was old state    234
 New state    237 was old state    235
 Excitation Energies [eV] at current iteration:
 Root      1 :     7.256339974586612
 Root      2 :     7.256340164677439
 Root      3 :     7.265451371631688
 Root      4 :     8.130071564756289
 Root      5 :     8.130071564756573
 Root      6 :     8.373646755031622
 Root      7 :     8.373646755031787
 Root      8 :     9.836380563967182
 Root      9 :     9.836380563967234
 Root     10 :    10.338155098461930
 Root     11 :    11.399434747347590
 Root     12 :    11.399434747347820
 Root     13 :    11.589137917437650
 Root     14 :    11.589139473108700
 Root     15 :    11.680501519072080
 Root     16 :    12.365136104452460
 Root     17 :    12.663665428756120
 Root     18 :    12.663665428756290
 Root     19 :    13.080002319620900
 Root     20 :    13.080002319620900
 Root     21 :    13.465799391819120
 Root     22 :    13.621701422395250
 Root     23 :    13.776869159496640
 Root     24 :    13.776869159496740
 Root     25 :    13.926768683712290
 Root     26 :    13.926769760723770
 Root     27 :    13.998735429518090
 Root     28 :    14.978979804017220
 Root     29 :    15.250290728589370
 Root     30 :    15.458327101137050
 Root     31 :    15.458327101137330
 Root     32 :    15.739067666602720
 Root     33 :    16.063085295939560
 Root     34 :    16.063085295939780
 Root     35 :    16.082206813504300
 Root     36 :    16.082206813504640
 Root     37 :    16.106001616012410
 Root     38 :    16.814060714574970
 Root     39 :    16.814060714575270
 Root     40 :    16.919018240406540
 Root     41 :    16.919018240406610
 Root     42 :    17.001879678491810
 Root     43 :    17.136056944853100
 Root     44 :    17.136056944853180
 Root     45 :    17.247821243127100
 Root     46 :    17.247821243127120
 Root     47 :    17.293548589892000
 Root     48 :    17.466840874824420
 Root     49 :    17.466841718978660
 Root     50 :    17.913788256573580
 Root     51 :    17.948852942888900
 Root     52 :    18.280420458540760
 Root     53 :    18.280420458541230
 Root     54 :    18.647075885572000
 Root     55 :    18.647076367332060
 Root     56 :    18.650566421059010
 Root     57 :    18.650566421059220
 Root     58 :    18.681412501018950
 Root     59 :    18.681413758152670
 Root     60 :    18.798935630079250
 Root     61 :    18.941040328600960
 Root     62 :    19.023980636670720
 Root     63 :    19.061598293728710
 Root     64 :    19.061598293728710
 Root     65 :    19.575130876162210
 Root     66 :    19.575130876162550
 Root     67 :    19.823909591719840
 Root     68 :    20.286943287347270
 Root     69 :    20.521016229875840
 Root     70 :    20.521017525006280
 Root     71 :    21.081241376175290
 Root     72 :    21.081241376175360
 Root     73 :    21.355782314036620
 Root     74 :    21.408426258740400
 Root     75 :    21.735052921154090
 Root     76 :    22.369758143913500
 Root     77 :    22.369759047523850
 Root     78 :    22.457970758873710
 Root     79 :    23.128215521746330
 Root     80 :    23.227934492695340
 Root     81 :    23.242104659962590
 Root     82 :    23.242104659963240
 Root     83 :    23.509067643256550
 Root     84 :    23.509067643256690
 Root     85 :    23.512816602762470
 Root     86 :    23.909917876707490
 Root     87 :    23.909917876707530
 Root     88 :    24.183895226083570
 Root     89 :    24.214407430570060
 Root     90 :    24.214408329978200
 Root     91 :    24.350977677210080
 Root     92 :    24.350977677211900
 Root     93 :    24.826682017763530
 Root     94 :    25.082097196757890
 Root     95 :    25.082097196758490
 Root     96 :    25.143598621627390
 Root     97 :    25.143599902176670
 Root     98 :    25.733955979360520
 Root     99 :    25.733955979361480
 Root    100 :    25.900485779490400
 Root    101 :    25.909295011593250
 Root    102 :    25.909295011593430
 Root    103 :    25.945569279802820
 Root    104 :    25.945569279802960
 Root    105 :    26.572847749060080
 Root    106 :    26.572858797299620
 Root    107 :    27.021203170498110
 Root    108 :    27.569937497029530
 Root    109 :    27.965789102849700
 Root    110 :    28.632910315808480
 Root    111 :    28.790560202274760
 Root    112 :    28.790561021506190
 Root    113 :    29.451782779892000
 Root    114 :    29.451782779892600
 Root    115 :    29.623485485270870
 Root    116 :    29.928935770342740
 Root    117 :    30.065821578738390
 Root    118 :    30.415082394531850
 Root    119 :    30.415082394532620
 Root    120 :    31.401806300471750
 Root    121 :    32.242916803667530
 Root    122 :    32.242916803670440
 Root    123 :    33.135493224944750
 Root    124 :    33.570405090229230
 Root    125 :    33.744583397451560
 Root    126 :    33.744594040180400
 Root    127 :    33.924323496002540
 Root    128 :    33.924323496005650
 Root    129 :    34.282332752193870
 Root    130 :    34.282332752194780
 Root    131 :    34.339763599747510
 Root    132 :    34.969436435535170
 Root    133 :    34.969436435535340
 Root    134 :    35.120670073131180
 Root    135 :    36.465147011969520
 Root    136 :    37.377474367218590
 Root    137 :    37.377474367219160
 Root    138 :    37.716411234755910
 Root    139 :    38.810915964379920
 Root    140 :    38.810915964383000
 Root    141 :    39.075991777368780
 Root    142 :    39.075991777371210
 Root    143 :    39.363141150531550
 Root    144 :    39.363141150534280
 Root    145 :    39.762574009441080
 Root    146 :    40.943400192334730
 Root    147 :    41.241284334688120
 Root    148 :    41.241284334693520
 Root    149 :    42.351194801143120
 Root    150 :    42.599841691197540
 Root    151 :    43.159916361648830
 Root    152 :    44.322621919392480
 Root    153 :    45.489160617609660
 Root    154 :    45.827838026551650
 Root    155 :    45.827838026553890
 Root    156 :    46.012052595765820
 Root    157 :    46.289404949798150
 Root    158 :    46.289407658543640
 Root    159 :    46.675666585641730
 Root    160 :    46.811259965161450
 Root    161 :    47.177583800112510
 Root    162 :    48.140555044573180
 Root    163 :    49.196472877011730
 Root    164 :    50.211236850408410
 Root    165 :    50.211236850409250
 Root    166 :    50.791035740749990
 Root    167 :    50.791038184608400
 Root    168 :    50.864417656769980
 Root    169 :    50.864417656770010
 Root    170 :    50.880645990142650
 Root    171 :    51.104910624140320
 Root    172 :    51.522713756581170
 Root    173 :    51.522713756581640
 Root    174 :    53.078977617934930
 Root    175 :    54.022702178480440
 Root    176 :    54.022702178480810
 Root    177 :    55.288291821392700
 Root    178 :    55.288291821392710
 Root    179 :    55.614447196605430
 Root    180 :    56.259114115893800
 Root    181 :    56.259114115894630
 Root    182 :    56.803874873511010
 Root    183 :    56.803881433127200
 Root    184 :    57.333683039503260
 Root    185 :    58.197569422649870
 Root    186 :    58.197569422650360
 Root    187 :    58.784974751997020
 Root    188 :    58.784993899672330
 Root    189 :    59.064674587692950
 Root    190 :    59.064674587693640
 Root    191 :    60.042966453622990
 Root    192 :    60.042966453623020
 Root    193 :    61.721425096581340
 Root    194 :    61.721425611650740
 Root    195 :    62.130619298148090
 Root    196 :    62.137580186055770
 Root    197 :    62.573229815408980
 Root    198 :    62.573229815408990
 Root    199 :    62.700841432203680
 Root    200 :    62.700841432203870
 Root    201 :    62.803741396401430
 Root    202 :    63.803801612940340
 Root    203 :    63.803801612940400
 Root    204 :    63.851932887308260
 Root    205 :    63.851938876386140
 Root    206 :    66.009327478880140
 Root    207 :    66.009334105939660
 Root    208 :    67.193755305611390
 Root    209 :    67.193755305611420
 Root    210 :    68.159744875463550
 Root    211 :    68.159767254302300
 Root    212 :    68.633588153004670
 Root    213 :    68.633588153004680
 Root    214 :    69.466793847546340
 Root    215 :    70.940241705147230
 Root    216 :    71.773500482666170
 Root    217 :    71.773500482666250
 Root    218 :    72.674748149208370
 Root    219 :    72.674753907773590
 Root    220 :    74.143027993902610
 Root    221 :    74.143027993902610
 Root    222 :    75.719452076379450
 Root    223 :    77.001364442161010
 Root    224 :    78.665603243259100
 Root    225 :    83.649371663764940
 Root    226 :    85.022737747179620
 Root    227 :    85.022742341199160
 Root    228 :    85.768591571983510
 Root    229 :    85.848671642243770
 Root    230 :    90.640211507081500
 Root    231 :    90.640211507081560
 Root    232 :    92.372564974609020
 Root    233 :    92.372564974609060
 Root    234 :    97.081276637832570
 Root    235 :    97.081276637832660
 Root    236 :    97.111975746330220
 Root    237 :    97.111975746330290
 Root    238 :   102.201987750985100
 Root    239 :   103.650438458881500
 Root    240 :   109.273101330193500
 Root    241 :   118.437258871211300
 Root    242 :   118.437258871212000
 Root    243 :   123.333448785133600
 Root    244 :   125.056886512296800
 Root    245 :   130.649168604461200
 Vector   3 has DEMin= 1.67D-16 removing all elements with DE> 1.00D-12.
 Vector  15 has DEMin= 9.44D-15 removing all elements with DE> 1.00D-12.
 Vector  27 has DEMin= 4.44D-16 removing all elements with DE> 1.00D-12.
 Vector  50 has DEMin= 1.17D-14 removing all elements with DE> 1.00D-12.
 Vector  60 has DEMin= 9.33D-15 removing all elements with DE> 1.00D-12.
 Vector 107 has DEMin= 5.41D-14 removing all elements with DE> 1.00D-12.
 Vector 131 has DEMin= 5.33D-14 removing all elements with DE> 1.00D-12.
 Vector 159 has DEMin= 1.27D-14 removing all elements with DE> 1.00D-12.
 Vector 171 has DEMin= 7.33D-15 removing all elements with DE> 1.00D-12.
 Vector 195 has DEMin= 4.44D-16 removing all elements with DE> 1.00D-12.
 Vector 229 has DEMin= 0.00D+00 removing all elements with DE> 1.00D-12.
 Convergence achieved for final wavefunctions.
 ***********************************************************************
 Excited states from <AA,BB:AA,BB> singles matrix:
 ***********************************************************************
 
 1PDM for each excited state written to RWF  633
 Ground to excited state transition densities written to RWF  633
 Ground to excited state transition electric dipole moments (Au):
       state          X           Y           Z        Dip. S.      Osc.
         1         0.0000     -0.0000     -0.0000      0.0000      0.0000
         2        -0.0000     -0.0000     -0.0000      0.0000      0.0000
         3        -0.0000      0.0000     -0.0000      0.0000      0.0000
         4         0.6086     -0.2697      0.0000      0.4431      0.0883
         5         0.2697      0.6086      0.0000      0.4431      0.0883
         6        -0.0000      0.0000      0.0000      0.0000      0.0000
         7         0.0000      0.0000     -0.0000      0.0000      0.0000
         8         0.2168      0.3856     -0.0000      0.1957      0.0472
         9         0.3856     -0.2168     -0.0000      0.1957      0.0472
        10         0.0000     -0.0000     -1.7682      3.1265      0.7919
        11        -0.0000      0.0000      0.0000      0.0000      0.0000
        12         0.0000      0.0000     -0.0000      0.0000      0.0000
        13        -0.0000     -0.0000     -0.0000      0.0000      0.0000
        14        -0.0000      0.0000     -0.0000      0.0000      0.0000
        15        -0.0000     -0.0000     -0.0000      0.0000      0.0000
        16        -0.0000     -0.0000     -0.0000      0.0000      0.0000
        17        -0.0000     -0.0000     -0.0000      0.0000      0.0000
        18        -0.0000      0.0000     -0.0000      0.0000      0.0000
        19         0.0000     -0.0000      0.0000      0.0000      0.0000
        20        -0.0000     -0.0000     -0.0000      0.0000      0.0000
        21        -0.0000     -0.0000     -0.0000      0.0000      0.0000
        22        -0.0000     -0.0000     -0.9813      0.9629      0.3214
        23        -0.2766     -0.7084     -0.0000      0.5784      0.1952
        24        -0.7084      0.2766     -0.0000      0.5784      0.1952
        25        -0.0000     -0.0000     -0.0000      0.0000      0.0000
        26        -0.0000     -0.0000     -0.0000      0.0000      0.0000
        27        -0.0000     -0.0000     -0.0000      0.0000      0.0000
        28         0.0000     -0.0000      0.4519      0.2042      0.0750
        29        -0.0000     -0.0000     -0.0000      0.0000      0.0000
        30        -0.9275     -0.0453     -0.0000      0.8623      0.3266
        31         0.0453     -0.9275      0.0000      0.8623      0.3266
        32         0.0000     -0.0000     -0.0742      0.0055      0.0021
        33        -0.8784     -0.2176      0.0000      0.8189      0.3223
        34         0.2176     -0.8784     -0.0000      0.8189      0.3223
        35         0.0000      0.0000     -0.0000      0.0000      0.0000
        36         0.0000     -0.0000     -0.0000      0.0000      0.0000
        37         0.0000     -0.0000      0.0000      0.0000      0.0000
        38        -0.1599     -0.4674      0.0000      0.2441      0.1005
        39        -0.4674      0.1599      0.0000      0.2441      0.1005
        40        -0.0000     -0.0000     -0.0000      0.0000      0.0000
        41         0.0000      0.0000      0.0000      0.0000      0.0000
        42        -0.0000     -0.0000     -0.0575      0.0033      0.0014
        43         0.4820      0.7654      0.0000      0.8181      0.3435
        44         0.7654     -0.4820      0.0000      0.8181      0.3435
        45        -0.0000     -0.0000     -0.0000      0.0000      0.0000
        46        -0.0000     -0.0000      0.0000      0.0000      0.0000
        47        -0.0000     -0.0000      1.3498      1.8220      0.7720
        48        -0.0000     -0.0000     -0.0000      0.0000      0.0000
        49         0.0000     -0.0000      0.0000      0.0000      0.0000
        50        -0.0000      0.0000     -0.0000      0.0000      0.0000
        51        -0.0000     -0.0000      0.0000      0.0000      0.0000
        52         0.0000      0.0000      0.0000      0.0000      0.0000
        53        -0.0000     -0.0000     -0.0000      0.0000      0.0000
        54        -0.0000      0.0000     -0.0000      0.0000      0.0000
        55        -0.0000     -0.0000     -0.0000      0.0000      0.0000
        56        -0.0000     -0.0000      0.0000      0.0000      0.0000
        57        -0.0000     -0.0000      0.0000      0.0000      0.0000
        58        -0.0000     -0.0000     -0.0000      0.0000      0.0000
        59        -0.0000     -0.0000      0.0000      0.0000      0.0000
        60        -0.0000     -0.0000     -0.0000      0.0000      0.0000
        61         0.0000     -0.0000     -0.0000      0.0000      0.0000
        62        -0.0000     -0.0000      0.2027      0.0411      0.0192
        63        -0.0000      0.0000      0.0000      0.0000      0.0000
        64        -0.0000     -0.0000      0.0000      0.0000      0.0000
        65         0.0000     -0.0000     -0.0000      0.0000      0.0000
        66        -0.0000     -0.0000     -0.0000      0.0000      0.0000
        67        -0.0000     -0.0000      0.0000      0.0000      0.0000
        68        -0.0000     -0.0000      0.1113      0.0124      0.0062
        69        -0.0000      0.0000     -0.0000      0.0000      0.0000
        70         0.0000     -0.0000     -0.0000      0.0000      0.0000
        71         0.0167     -0.0864      0.0000      0.0077      0.0040
        72        -0.0864     -0.0167     -0.0000      0.0077      0.0040
        73         0.0000     -0.0000     -0.7219      0.5212      0.2727
        74        -0.0000     -0.0000      0.0000      0.0000      0.0000
        75        -0.0000     -0.0000      0.0000      0.0000      0.0000
        76        -0.0000      0.0000     -0.0000      0.0000      0.0000
        77         0.0000     -0.0000      0.0000      0.0000      0.0000
        78        -0.0000     -0.0000      0.0000      0.0000      0.0000
        79         0.0000     -0.0000     -0.1791      0.0321      0.0182
        80        -0.0000     -0.0000     -0.1101      0.0121      0.0069
        81         0.0489     -0.5255     -0.0000      0.2786      0.1586
        82        -0.5255     -0.0489      0.0000      0.2786      0.1586
        83         0.0570      0.0756     -0.0000      0.0090      0.0052
        84         0.0756     -0.0570     -0.0000      0.0090      0.0052
        85        -0.0000     -0.0000      0.0000      0.0000      0.0000
        86        -0.0000     -0.0000      0.0000      0.0000      0.0000
        87        -0.0000     -0.0000     -0.0000      0.0000      0.0000
        88         0.0000     -0.0000     -0.6673      0.4453      0.2638
        89        -0.0000     -0.0000     -0.0000      0.0000      0.0000
        90        -0.0000     -0.0000     -0.0000      0.0000      0.0000
        91         0.0000     -0.0000      0.0000      0.0000      0.0000
        92        -0.0000      0.0000      0.0000      0.0000      0.0000
        93        -0.0000     -0.0000     -0.2247      0.0505      0.0307
        94         0.0000     -0.0000      0.0000      0.0000      0.0000
        95        -0.0000      0.0000     -0.0000      0.0000      0.0000
        96        -0.0000     -0.0000     -0.0000      0.0000      0.0000
        97        -0.0000     -0.0000      0.0000      0.0000      0.0000
        98         0.0334     -0.1152     -0.0000      0.0144      0.0091
        99        -0.1152     -0.0334      0.0000      0.0144      0.0091
       100         0.0000     -0.0000     -0.0000      0.0000      0.0000
       101        -0.0000     -0.0000     -0.0000      0.0000      0.0000
       102         0.0000     -0.0000      0.0000      0.0000      0.0000
       103         0.0523      0.1486      0.0000      0.0248      0.0158
       104         0.1486     -0.0523      0.0000      0.0248      0.0158
       105         0.0000     -0.0000      0.0000      0.0000      0.0000
       106        -0.0000     -0.0000     -0.0000      0.0000      0.0000
       107        -0.0000      0.0000     -0.0000      0.0000      0.0000
       108        -0.0000     -0.0000     -0.0000      0.0000      0.0000
       109         0.0000     -0.0000      0.0730      0.0053      0.0036
       110        -0.0000     -0.0000     -0.0000      0.0000      0.0000
       111        -0.0000     -0.0000     -0.0000      0.0000      0.0000
       112        -0.0000     -0.0000     -0.0000      0.0000      0.0000
       113         0.0026      0.1282     -0.0000      0.0165      0.0119
       114         0.1282     -0.0026     -0.0000      0.0165      0.0119
       115        -0.0000     -0.0000     -0.0000      0.0000      0.0000
       116         0.0000     -0.0000      0.3450      0.1190      0.0873
       117         0.0000     -0.0000      0.2939      0.0864      0.0636
       118         0.0000      0.0000      0.0000      0.0000      0.0000
       119         0.0000      0.0000     -0.0000      0.0000      0.0000
       120         0.0000     -0.0000      0.0000      0.0000      0.0000
       121         0.0011     -0.3380     -0.0000      0.1143      0.0903
       122        -0.3380     -0.0011      0.0000      0.1143      0.0903
       123        -0.0000     -0.0000     -0.0000      0.0000      0.0000
       124        -0.0000     -0.0000     -0.3945      0.1556      0.1280
       125         0.0000     -0.0000     -0.0000      0.0000      0.0000
       126        -0.0000     -0.0000     -0.0000      0.0000      0.0000
       127        -0.0000     -0.0000     -0.0000      0.0000      0.0000
       128         0.0000     -0.0000     -0.0000      0.0000      0.0000
       129         0.2906      0.0015      0.0000      0.0844      0.0709
       130        -0.0015      0.2906     -0.0000      0.0844      0.0709
       131        -0.0000      0.0000     -0.0000      0.0000      0.0000
       132        -0.0000      0.0000     -0.0000      0.0000      0.0000
       133         0.0000     -0.0000      0.0000      0.0000      0.0000
       134         0.0000     -0.0000     -0.2326      0.0541      0.0465
       135         0.0000     -0.0000     -0.0282      0.0008      0.0007
       136         0.0371      0.0077      0.0000      0.0014      0.0013
       137        -0.0077      0.0371     -0.0000      0.0014      0.0013
       138         0.0000     -0.0000      0.0000      0.0000      0.0000
       139         0.0099     -0.2465     -0.0000      0.0609      0.0579
       140        -0.2465     -0.0099      0.0000      0.0609      0.0579
       141         0.0000     -0.0000      0.0000      0.0000      0.0000
       142        -0.0000     -0.0000      0.0000      0.0000      0.0000
       143        -0.0000     -0.0000     -0.0000      0.0000      0.0000
       144        -0.0000      0.0000      0.0000      0.0000      0.0000
       145        -0.0000     -0.0000      0.0000      0.0000      0.0000
       146        -0.0000     -0.0000      0.0038      0.0000      0.0000
       147         0.0002     -0.3288      0.0000      0.1081      0.1092
       148        -0.3288     -0.0002     -0.0000      0.1081      0.1092
       149         0.0000     -0.0000      0.1234      0.0152      0.0158
       150        -0.0000     -0.0000      0.0000      0.0000      0.0000
       151        -0.0000     -0.0000      0.0000      0.0000      0.0000
       152         0.0000     -0.0000      0.1633      0.0267      0.0289
       153         0.0000     -0.0000      0.0631      0.0040      0.0044
       154         0.0000     -0.0000      0.0000      0.0000      0.0000
       155         0.0000      0.0000      0.0000      0.0000      0.0000
       156         0.0000     -0.0000     -0.0000      0.0000      0.0000
       157        -0.0000     -0.0000     -0.0000      0.0000      0.0000
       158         0.0000     -0.0000     -0.0000      0.0000      0.0000
       159        -0.0000      0.0000     -0.0000      0.0000      0.0000
       160         0.0000     -0.0000      0.3383      0.1144      0.1313
       161        -0.0000     -0.0000     -0.0000      0.0000      0.0000
       162        -0.0000     -0.0000     -0.0000      0.0000      0.0000
       163        -0.0000     -0.0000      0.0000      0.0000      0.0000
       164         0.0000      0.0000     -0.0000      0.0000      0.0000
       165         0.0000     -0.0000      0.0000      0.0000      0.0000
       166        -0.0000     -0.0000     -0.0000      0.0000      0.0000
       167         0.0000     -0.0000      0.0000      0.0000      0.0000
       168        -0.0000     -0.0000     -0.0000      0.0000      0.0000
       169         0.0000     -0.0000      0.0000      0.0000      0.0000
       170         0.0000     -0.0000      0.2571      0.0661      0.0824
       171        -0.0000      0.0000     -0.0000      0.0000      0.0000
       172         0.0093      0.0743      0.0000      0.0056      0.0071
       173         0.0743     -0.0093      0.0000      0.0056      0.0071
       174         0.0000     -0.0000      0.2567      0.0659      0.0857
       175        -0.0000      0.0000     -0.0000      0.0000      0.0000
       176         0.0000     -0.0000     -0.0000      0.0000      0.0000
       177        -0.5693      0.5573     -0.0000      0.6347      0.8597
       178         0.5573      0.5693      0.0000      0.6347      0.8597
       179         0.0000     -0.0000     -0.1227      0.0151      0.0205
       180         0.0000     -0.0000      0.0000      0.0000      0.0000
       181        -0.0000     -0.0000      0.0000      0.0000      0.0000
       182        -0.0000     -0.0000     -0.0000      0.0000      0.0000
       183        -0.0000     -0.0000      0.0000      0.0000      0.0000
       184        -0.0000     -0.0000     -0.0000      0.0000      0.0000
       185         0.0087      0.4445     -0.0000      0.1977      0.2818
       186         0.4445     -0.0087     -0.0000      0.1977      0.2818
       187        -0.0000      0.0000     -0.0000      0.0000      0.0000
       188         0.0000     -0.0000     -0.0000      0.0000      0.0000
       189        -0.0012     -0.2850     -0.0000      0.0812      0.1175
       190        -0.2850      0.0012     -0.0000      0.0812      0.1175
       191         0.0000      0.0000     -0.0000      0.0000      0.0000
       192        -0.0000     -0.0000     -0.0000      0.0000      0.0000
       193         0.0000     -0.0000     -0.0000      0.0000      0.0000
       194        -0.0000     -0.0000     -0.0000      0.0000      0.0000
       195        -0.0000     -0.0000     -0.0000      0.0000      0.0000
       196         0.0000     -0.0000      0.0804      0.0065      0.0099
       197         0.0000      0.0000      0.0000      0.0000      0.0000
       198        -0.0000     -0.0000      0.0000      0.0000      0.0000
       199         0.0000     -0.0000      0.0000      0.0000      0.0000
       200         0.0000     -0.0000      0.0000      0.0000      0.0000
       201        -0.0000     -0.0000      0.0000      0.0000      0.0000
       202        -0.1073     -0.0737     -0.0000      0.0169      0.0265
       203         0.0737     -0.1073      0.0000      0.0169      0.0265
       204        -0.0000     -0.0000     -0.0000      0.0000      0.0000
       205        -0.0000     -0.0000      0.0000      0.0000      0.0000
       206        -0.0000      0.0000     -0.0000      0.0000      0.0000
       207         0.0000     -0.0000     -0.0000      0.0000      0.0000
       208         0.1107     -0.1018     -0.0000      0.0226      0.0372
       209         0.1018      0.1107     -0.0000      0.0226      0.0372
       210        -0.0000     -0.0000     -0.0000      0.0000      0.0000
       211        -0.0000     -0.0000      0.0000      0.0000      0.0000
       212        -0.0000      0.0000      0.0000      0.0000      0.0000
       213        -0.0000      0.0000     -0.0000      0.0000      0.0000
       214         0.0000     -0.0000      0.0000      0.0000      0.0000
       215        -0.0000     -0.0000      0.0268      0.0007      0.0012
       216        -0.0000      0.0000     -0.0000      0.0000      0.0000
       217         0.0000     -0.0000     -0.0000      0.0000      0.0000
       218        -0.0000     -0.0000     -0.0000      0.0000      0.0000
       219        -0.0000     -0.0000      0.0000      0.0000      0.0000
       220        -0.1610     -0.1554     -0.0000      0.0501      0.0910
       221         0.1554     -0.1610      0.0000      0.0501      0.0910
       222         0.0000     -0.0000     -0.0000      0.0000      0.0000
       223         0.0000     -0.0000      0.0447      0.0020      0.0038
       224        -0.0000     -0.0000     -0.0000      0.0000      0.0000
       225         0.0000     -0.0000     -0.1462      0.0214      0.0438
       226        -0.0000     -0.0000     -0.0000      0.0000      0.0000
       227         0.0000     -0.0000     -0.0000      0.0000      0.0000
       228        -0.0000     -0.0000     -0.1607      0.0258      0.0543
       229        -0.0000      0.0000     -0.0000      0.0000      0.0000
       230        -0.0000     -0.0000     -0.0000      0.0000      0.0000
       231         0.0000      0.0000      0.0000      0.0000      0.0000
       232        -0.0736     -0.0439      0.0000      0.0073      0.0166
       233         0.0439     -0.0736     -0.0000      0.0073      0.0166
       234        -0.0958     -0.0623      0.0000      0.0131      0.0311
       235         0.0623     -0.0958     -0.0000      0.0131      0.0311
       236        -0.0000      0.0000     -0.0000      0.0000      0.0000
       237         0.0000      0.0000     -0.0000      0.0000      0.0000
       238        -0.0000     -0.0000     -0.0000      0.0000      0.0000
       239         0.0000     -0.0000     -0.0024      0.0000      0.0000
       240        -0.0000     -0.0000     -0.0000      0.0000      0.0000
       241        -0.0000      0.0000      0.0000      0.0000      0.0000
       242        -0.0000     -0.0000      0.0000      0.0000      0.0000
       243        -0.0000     -0.0000     -0.0471      0.0022      0.0067
       244         0.0000     -0.0000      0.0000      0.0000      0.0000
       245         0.0000     -0.0000     -0.0479      0.0023      0.0073
 Ground to excited state transition velocity dipole moments (Au):
       state          X           Y           Z        Dip. S.      Osc.
         1         0.0000      0.0000      0.0000      0.0000      0.0000
         2         0.0000     -0.0000      0.0000      0.0000      0.0000
         3         0.0000     -0.0000      0.0000      0.0000      0.0000
         4        -0.2142      0.0949     -0.0000      0.0549      0.1224
         5        -0.0949     -0.2142     -0.0000      0.0549      0.1224
         6        -0.0000      0.0000     -0.0000      0.0000      0.0000
         7        -0.0000     -0.0000      0.0000      0.0000      0.0000
         8        -0.0831     -0.1478     -0.0000      0.0288      0.0531
         9        -0.1478      0.0831     -0.0000      0.0288      0.0531
        10        -0.0000      0.0000      0.6549      0.4289      0.7526
        11        -0.0000      0.0000     -0.0000      0.0000      0.0000
        12         0.0000      0.0000      0.0000      0.0000      0.0000
        13        -0.0000      0.0000     -0.0000      0.0000      0.0000
        14         0.0000      0.0000      0.0000      0.0000      0.0000
        15         0.0000     -0.0000      0.0000      0.0000      0.0000
        16         0.0000      0.0000      0.0000      0.0000      0.0000
        17        -0.0000      0.0000     -0.0000      0.0000      0.0000
        18        -0.0000      0.0000     -0.0000      0.0000      0.0000
        19        -0.0000      0.0000     -0.0000      0.0000      0.0000
        20         0.0000      0.0000      0.0000      0.0000      0.0000
        21         0.0000      0.0000     -0.0000      0.0000      0.0000
        22         0.0000      0.0000      0.5034      0.2534      0.3374
        23         0.1500      0.3842      0.0000      0.1701      0.2240
        24         0.3842     -0.1500      0.0000      0.1701      0.2240
        25        -0.0000      0.0000      0.0000      0.0000      0.0000
        26         0.0000     -0.0000      0.0000      0.0000      0.0000
        27         0.0000     -0.0000      0.0000      0.0000      0.0000
        28        -0.0000      0.0000     -0.2444      0.0597      0.0723
        29         0.0000      0.0000      0.0000      0.0000      0.0000
        30         0.5597      0.0273      0.0000      0.3140      0.3684
        31        -0.0273      0.5597     -0.0000      0.3140      0.3684
        32         0.0000      0.0000      0.0405      0.0016      0.0019
        33         0.4675      0.1158     -0.0000      0.2320      0.2620
        34        -0.1158      0.4675      0.0000      0.2320      0.2620
        35         0.0000      0.0000      0.0000      0.0000      0.0000
        36         0.0000      0.0000      0.0000      0.0000      0.0000
        37        -0.0000      0.0000     -0.0000      0.0000      0.0000
        38         0.0974      0.2847     -0.0000      0.0906      0.0977
        39         0.2847     -0.0974     -0.0000      0.0906      0.0977
        40        -0.0000      0.0000      0.0000      0.0000      0.0000
        41         0.0000      0.0000     -0.0000      0.0000      0.0000
        42        -0.0000      0.0000      0.0313      0.0010      0.0010
        43        -0.2975     -0.4724     -0.0000      0.3117      0.3299
        44        -0.4724      0.2975     -0.0000      0.3117      0.3299
        45         0.0000      0.0000      0.0000      0.0000      0.0000
        46         0.0000     -0.0000     -0.0000      0.0000      0.0000
        47         0.0000      0.0000     -0.8437      0.7118      0.7466
        48         0.0000     -0.0000      0.0000      0.0000      0.0000
        49         0.0000      0.0000     -0.0000      0.0000      0.0000
        50         0.0000      0.0000      0.0000      0.0000      0.0000
        51        -0.0000      0.0000      0.0000      0.0000      0.0000
        52         0.0000     -0.0000     -0.0000      0.0000      0.0000
        53         0.0000      0.0000      0.0000      0.0000      0.0000
        54         0.0000      0.0000      0.0000      0.0000      0.0000
        55        -0.0000      0.0000      0.0000      0.0000      0.0000
        56         0.0000      0.0000      0.0000      0.0000      0.0000
        57        -0.0000     -0.0000      0.0000      0.0000      0.0000
        58         0.0000      0.0000      0.0000      0.0000      0.0000
        59         0.0000      0.0000     -0.0000      0.0000      0.0000
        60         0.0000     -0.0000      0.0000      0.0000      0.0000
        61        -0.0000      0.0000     -0.0000      0.0000      0.0000
        62         0.0000      0.0000     -0.1006      0.0101      0.0096
        63        -0.0000     -0.0000      0.0000      0.0000      0.0000
        64         0.0000     -0.0000      0.0000      0.0000      0.0000
        65        -0.0000     -0.0000     -0.0000      0.0000      0.0000
        66         0.0000     -0.0000     -0.0000      0.0000      0.0000
        67         0.0000      0.0000     -0.0000      0.0000      0.0000
        68         0.0000      0.0000     -0.0650      0.0042      0.0038
        69         0.0000     -0.0000      0.0000      0.0000      0.0000
        70        -0.0000      0.0000      0.0000      0.0000      0.0000
        71        -0.0124      0.0642      0.0000      0.0043      0.0037
        72         0.0642      0.0124     -0.0000      0.0043      0.0037
        73        -0.0000      0.0000      0.5122      0.2623      0.2228
        74         0.0000      0.0000      0.0000      0.0000      0.0000
        75         0.0000      0.0000      0.0000      0.0000      0.0000
        76         0.0000     -0.0000      0.0000      0.0000      0.0000
        77        -0.0000      0.0000     -0.0000      0.0000      0.0000
        78         0.0000      0.0000     -0.0000      0.0000      0.0000
        79        -0.0000      0.0000      0.1608      0.0259      0.0203
        80        -0.0000      0.0000      0.0967      0.0093      0.0073
        81        -0.0434      0.4671      0.0000      0.2200      0.1717
        82         0.4671      0.0434     -0.0000      0.2200      0.1717
        83        -0.0628     -0.0833      0.0000      0.0109      0.0084
        84        -0.0833      0.0628      0.0000      0.0109      0.0084
        85         0.0000      0.0000      0.0000      0.0000      0.0000
        86         0.0000      0.0000      0.0000      0.0000      0.0000
        87         0.0000      0.0000     -0.0000      0.0000      0.0000
        88        -0.0000      0.0000      0.5269      0.2776      0.2082
        89         0.0000      0.0000      0.0000      0.0000      0.0000
        90         0.0000      0.0000     -0.0000      0.0000      0.0000
        91         0.0000      0.0000     -0.0000      0.0000      0.0000
        92        -0.0000     -0.0000     -0.0000      0.0000      0.0000
        93         0.0000      0.0000      0.1887      0.0356      0.0260
        94         0.0000      0.0000      0.0000      0.0000      0.0000
        95         0.0000     -0.0000     -0.0000      0.0000      0.0000
        96         0.0000     -0.0000      0.0000      0.0000      0.0000
        97        -0.0000      0.0000      0.0000      0.0000      0.0000
        98        -0.0239      0.0825     -0.0000      0.0074      0.0052
        99         0.0825      0.0239      0.0000      0.0074      0.0052
       100        -0.0000      0.0000     -0.0000      0.0000      0.0000
       101         0.0000      0.0000      0.0000      0.0000      0.0000
       102        -0.0000      0.0000     -0.0000      0.0000      0.0000
       103        -0.0527     -0.1499      0.0000      0.0252      0.0176
       104        -0.1499      0.0527      0.0000      0.0252      0.0176
       105         0.0000      0.0000     -0.0000      0.0000      0.0000
       106         0.0000     -0.0000      0.0000      0.0000      0.0000
       107         0.0000      0.0000      0.0000      0.0000      0.0000
       108         0.0000      0.0000      0.0000      0.0000      0.0000
       109        -0.0000      0.0000     -0.0570      0.0032      0.0021
       110         0.0000      0.0000      0.0000      0.0000      0.0000
       111         0.0000      0.0000      0.0000      0.0000      0.0000
       112         0.0000      0.0000      0.0000      0.0000      0.0000
       113        -0.0026     -0.1288      0.0000      0.0166      0.0102
       114        -0.1288      0.0026      0.0000      0.0166      0.0102
       115         0.0000      0.0000     -0.0000      0.0000      0.0000
       116        -0.0000      0.0000     -0.4194      0.1759      0.1066
       117        -0.0000      0.0000     -0.2986      0.0892      0.0538
       118        -0.0000     -0.0000     -0.0000      0.0000      0.0000
       119         0.0000     -0.0000      0.0000      0.0000      0.0000
       120        -0.0000      0.0000     -0.0000      0.0000      0.0000
       121        -0.0012      0.3803      0.0000      0.1447      0.0814
       122         0.3803      0.0012     -0.0000      0.1447      0.0814
       123         0.0000      0.0000      0.0000      0.0000      0.0000
       124         0.0000      0.0000      0.4810      0.2314      0.1250
       125         0.0000      0.0000      0.0000      0.0000      0.0000
       126         0.0000     -0.0000      0.0000      0.0000      0.0000
       127        -0.0000     -0.0000      0.0000      0.0000      0.0000
       128         0.0000      0.0000     -0.0000      0.0000      0.0000
       129        -0.4309     -0.0022     -0.0000      0.1856      0.0982
       130         0.0022     -0.4309      0.0000      0.1856      0.0982
       131         0.0000      0.0000      0.0000      0.0000      0.0000
       132        -0.0000     -0.0000      0.0000      0.0000      0.0000
       133        -0.0000      0.0000     -0.0000      0.0000      0.0000
       134        -0.0000      0.0000      0.2927      0.0857      0.0443
       135        -0.0000      0.0000      0.0797      0.0063      0.0032
       136        -0.0614     -0.0128     -0.0000      0.0039      0.0019
       137         0.0128     -0.0614      0.0000      0.0039      0.0019
       138        -0.0000      0.0000      0.0000      0.0000      0.0000
       139        -0.0161      0.4002      0.0000      0.1604      0.0750
       140         0.4002      0.0161     -0.0000      0.1604      0.0750
       141        -0.0000     -0.0000     -0.0000      0.0000      0.0000
       142        -0.0000      0.0000     -0.0000      0.0000      0.0000
       143         0.0000      0.0000     -0.0000      0.0000      0.0000
       144         0.0000      0.0000      0.0000      0.0000      0.0000
       145         0.0000      0.0000      0.0000      0.0000      0.0000
       146        -0.0000      0.0000      0.0214      0.0005      0.0002
       147        -0.0003      0.5202      0.0000      0.2706      0.1190
       148         0.5202      0.0003     -0.0000      0.2706      0.1190
       149        -0.0000      0.0000     -0.2196      0.0482      0.0207
       150         0.0000      0.0000      0.0000      0.0000      0.0000
       151         0.0000      0.0000      0.0000      0.0000      0.0000
       152        -0.0000      0.0000     -0.3769      0.1421      0.0581
       153        -0.0000      0.0000     -0.0480      0.0023      0.0009
       154        -0.0000     -0.0000     -0.0000      0.0000      0.0000
       155        -0.0000      0.0000     -0.0000      0.0000      0.0000
       156        -0.0000      0.0000     -0.0000      0.0000      0.0000
       157         0.0000     -0.0000      0.0000      0.0000      0.0000
       158         0.0000      0.0000      0.0000      0.0000      0.0000
       159         0.0000      0.0000      0.0000      0.0000      0.0000
       160        -0.0000      0.0000     -0.5454      0.2974      0.1153
       161         0.0000      0.0000     -0.0000      0.0000      0.0000
       162        -0.0000      0.0000      0.0000      0.0000      0.0000
       163         0.0000      0.0000      0.0000      0.0000      0.0000
       164        -0.0000     -0.0000      0.0000      0.0000      0.0000
       165        -0.0000      0.0000     -0.0000      0.0000      0.0000
       166         0.0000     -0.0000      0.0000      0.0000      0.0000
       167         0.0000      0.0000     -0.0000      0.0000      0.0000
       168         0.0000      0.0000      0.0000      0.0000      0.0000
       169        -0.0000      0.0000     -0.0000      0.0000      0.0000
       170        -0.0000      0.0000     -0.4254      0.1810      0.0645
       171         0.0000      0.0000      0.0000      0.0000      0.0000
       172        -0.0179     -0.1436     -0.0000      0.0209      0.0074
       173        -0.1436      0.0179     -0.0000      0.0209      0.0074
       174        -0.0000      0.0000     -0.5412      0.2929      0.1001
       175         0.0000      0.0000      0.0000      0.0000      0.0000
       176        -0.0000     -0.0000      0.0000      0.0000      0.0000
       177         0.9060     -0.8868      0.0000      1.6073      0.5274
       178        -0.8868     -0.9060     -0.0000      1.6073      0.5274
       179        -0.0000      0.0000      0.2325      0.0540      0.0176
       180         0.0000     -0.0000      0.0000      0.0000      0.0000
       181        -0.0000      0.0000      0.0000      0.0000      0.0000
       182         0.0000      0.0000      0.0000      0.0000      0.0000
       183         0.0000      0.0000     -0.0000      0.0000      0.0000
       184         0.0000      0.0000     -0.0000      0.0000      0.0000
       185        -0.0149     -0.7558     -0.0000      0.5714      0.1781
       186        -0.7558      0.0149     -0.0000      0.5714      0.1781
       187         0.0000     -0.0000      0.0000      0.0000      0.0000
       188        -0.0000      0.0000      0.0000      0.0000      0.0000
       189         0.0022      0.5398     -0.0000      0.2914      0.0895
       190         0.5398     -0.0022     -0.0000      0.2914      0.0895
       191         0.0000      0.0000     -0.0000      0.0000      0.0000
       192        -0.0000     -0.0000     -0.0000      0.0000      0.0000
       193        -0.0000      0.0000     -0.0000      0.0000      0.0000
       194         0.0000      0.0000      0.0000      0.0000      0.0000
       195         0.0000     -0.0000      0.0000      0.0000      0.0000
       196        -0.0000      0.0000     -0.1399      0.0196      0.0057
       197        -0.0000      0.0000     -0.0000      0.0000      0.0000
       198        -0.0000      0.0000     -0.0000      0.0000      0.0000
       199        -0.0000     -0.0000     -0.0000      0.0000      0.0000
       200         0.0000      0.0000     -0.0000      0.0000      0.0000
       201         0.0000      0.0000     -0.0000      0.0000      0.0000
       202         0.1904      0.1308      0.0000      0.0534      0.0152
       203        -0.1308      0.1904     -0.0000      0.0534      0.0152
       204         0.0000      0.0000      0.0000      0.0000      0.0000
       205         0.0000      0.0000     -0.0000      0.0000      0.0000
       206         0.0000     -0.0000      0.0000      0.0000      0.0000
       207        -0.0000      0.0000      0.0000      0.0000      0.0000
       208        -0.2439      0.2242     -0.0000      0.1098      0.0296
       209        -0.2242     -0.2439     -0.0000      0.1098      0.0296
       210         0.0000      0.0000      0.0000      0.0000      0.0000
       211         0.0000      0.0000      0.0000      0.0000      0.0000
       212        -0.0000      0.0000     -0.0000      0.0000      0.0000
       213         0.0000      0.0000      0.0000      0.0000      0.0000
       214        -0.0000      0.0000     -0.0000      0.0000      0.0000
       215         0.0000      0.0000     -0.0885      0.0078      0.0020
       216        -0.0000     -0.0000      0.0000      0.0000      0.0000
       217         0.0000     -0.0000      0.0000      0.0000      0.0000
       218         0.0000      0.0000      0.0000      0.0000      0.0000
       219         0.0000      0.0000     -0.0000      0.0000      0.0000
       220         0.3516      0.3394      0.0000      0.2389      0.0584
       221        -0.3394      0.3516     -0.0000      0.2389      0.0584
       222        -0.0000      0.0000      0.0000      0.0000      0.0000
       223        -0.0000      0.0000     -0.0831      0.0069      0.0016
       224         0.0000      0.0000     -0.0000      0.0000      0.0000
       225        -0.0000      0.0000      0.4250      0.1806      0.0392
       226         0.0000      0.0000      0.0000      0.0000      0.0000
       227        -0.0000      0.0000      0.0000      0.0000      0.0000
       228         0.0000      0.0000      0.5405      0.2921      0.0618
       229         0.0000     -0.0000      0.0000      0.0000      0.0000
       230        -0.0000      0.0000     -0.0000      0.0000      0.0000
       231         0.0000     -0.0000      0.0000      0.0000      0.0000
       232         0.2087      0.1246      0.0000      0.0591      0.0116
       233        -0.1246      0.2087     -0.0000      0.0591      0.0116
       234         0.2765      0.1798     -0.0000      0.1088      0.0203
       235        -0.1798      0.2765      0.0000      0.1088      0.0203
       236         0.0000      0.0000     -0.0000      0.0000      0.0000
       237        -0.0000      0.0000     -0.0000      0.0000      0.0000
       238         0.0000      0.0000      0.0000      0.0000      0.0000
       239        -0.0000      0.0000     -0.0337      0.0011      0.0002
       240         0.0000      0.0000      0.0000      0.0000      0.0000
       241        -0.0000     -0.0000     -0.0000      0.0000      0.0000
       242         0.0000     -0.0000     -0.0000      0.0000      0.0000
       243         0.0000      0.0000      0.2060      0.0424      0.0062
       244        -0.0000      0.0000      0.0000      0.0000      0.0000
       245        -0.0000      0.0000      0.2039      0.0416      0.0058
 Ground to excited state transition magnetic dipole moments (Au):
       state          X           Y           Z
         1         0.0000     -0.0000      0.0000
         2        -0.0000      0.0000     -0.0000
         3         0.0000      0.0000      0.0000
         4         0.0000     -0.0000      0.0000
         5        -0.0000      0.0000     -0.0000
         6        -0.0192      0.1248     -0.0000
         7        -0.1248     -0.0192     -0.0000
         8         0.0000     -0.0000      0.0000
         9        -0.0000     -0.0000     -0.0000
        10         0.0000     -0.0000      0.0000
        11         0.0163     -0.2148      0.0000
        12         0.2148      0.0163      0.0000
        13         0.0000      0.0000      0.0000
        14         0.0000      0.0000      0.0000
        15        -0.0000      0.0000     -0.0000
        16         0.0000     -0.0000      0.0000
        17         0.3582      1.8457      0.0000
        18        -1.8457      0.3582     -0.0000
        19         0.0000     -0.0000      0.0000
        20         0.0000      0.0000      0.0000
        21         0.0000     -0.0000      0.0000
        22         0.0000     -0.0000      0.0000
        23        -0.0000      0.0000      0.0000
        24        -0.0000      0.0000     -0.0000
        25         0.0000      0.0000      0.0000
        26        -0.0000      0.0000     -0.0000
        27        -0.0000      0.0000      0.0000
        28         0.0000      0.0000      0.0000
        29         0.0000     -0.0000      0.0000
        30        -0.0000      0.0000      0.0000
        31         0.0000      0.0000      0.0000
        32         0.0000      0.0000      0.0000
        33         0.0000      0.0000     -0.0000
        34         0.0000     -0.0000     -0.0000
        35        -0.1159      0.0174      0.0000
        36         0.0174      0.1159     -0.0000
        37         0.0000      0.0000      0.0000
        38        -0.0000     -0.0000     -0.0000
        39         0.0000      0.0000      0.0000
        40        -0.0000      0.0000      0.0000
        41        -0.0000     -0.0000      0.0000
        42         0.0000     -0.0000      0.0000
        43         0.0000      0.0000     -0.0000
        44        -0.0000     -0.0000      0.0000
        45         0.5172     -0.0345      0.0000
        46         0.0345      0.5172      0.0000
        47         0.0000     -0.0000      0.0000
        48        -0.0000      0.0000     -0.0000
        49         0.0000     -0.0000      0.0000
        50         0.0000      0.0000      0.0000
        51         0.0000     -0.0000      0.0000
        52         0.0059     -0.2103      0.0000
        53         0.2103      0.0059      0.0000
        54         0.0000      0.0000      0.0000
        55         0.0000      0.0000      0.0000
        56        -0.5727      0.0968     -0.0000
        57         0.0968      0.5727      0.0000
        58         0.0000      0.0000     -0.0000
        59         0.0000     -0.0000      0.0000
        60        -0.0000      0.0000      0.0000
        61         0.0000     -0.0000      0.0000
        62         0.0000     -0.0000      0.0000
        63         0.1532     -0.0604     -0.0000
        64        -0.0604     -0.1532      0.0000
[...]
     12   0.000000D+00  0.000000D+00  0.000000D+00  0.000000D+00  0.000000D+00
     13   0.000000D+00  0.000000D+00  0.000000D+00  0.000000D+00  0.000000D+00
     14   0.000000D+00  0.000000D+00  0.000000D+00  0.000000D+00  0.000000D+00
     15   0.000000D+00  0.000000D+00  0.000000D+00  0.000000D+00 -0.352772D-01
     16   0.000000D+00  0.000000D+00  0.000000D+00  0.000000D+00 -0.976637D+00
               176           177           178           179           180 
      1  -0.753027D+02 -0.752562D+02 -0.752562D+02 -0.752442D+02 -0.752205D+02
      2   0.000000D+00 -0.569346D+00  0.557254D+00  0.000000D+00  0.000000D+00
      3   0.000000D+00  0.557254D+00  0.569346D+00  0.000000D+00  0.000000D+00
      4   0.000000D+00  0.000000D+00  0.000000D+00 -0.122740D+00  0.000000D+00
      5   0.000000D+00  0.906035D+00 -0.886766D+00  0.000000D+00  0.000000D+00
      6   0.000000D+00 -0.886766D+00 -0.906035D+00  0.000000D+00  0.000000D+00
      7   0.000000D+00  0.000000D+00  0.000000D+00  0.232483D+00  0.000000D+00
      8  -0.295702D-01  0.000000D+00  0.000000D+00  0.000000D+00  0.135609D+01
      9  -0.817670D+00  0.000000D+00  0.000000D+00  0.000000D+00 -0.219156D-02
     10   0.000000D+00  0.000000D+00  0.000000D+00  0.000000D+00  0.000000D+00
     11   0.000000D+00  0.000000D+00  0.000000D+00  0.000000D+00  0.000000D+00
     12   0.000000D+00  0.000000D+00  0.000000D+00  0.000000D+00  0.000000D+00
     13   0.000000D+00  0.000000D+00  0.000000D+00  0.000000D+00  0.000000D+00
     14   0.000000D+00  0.000000D+00  0.000000D+00  0.000000D+00  0.000000D+00
     15  -0.976637D+00  0.000000D+00  0.000000D+00  0.000000D+00 -0.319215D-02
     16   0.352772D-01  0.000000D+00  0.000000D+00  0.000000D+00 -0.209224D+01
               181           182           183           184           185 
      1  -0.752205D+02 -0.752005D+02 -0.752005D+02 -0.751810D+02 -0.751493D+02
      2   0.000000D+00  0.000000D+00  0.000000D+00  0.000000D+00  0.874039D-02
      3   0.000000D+00  0.000000D+00  0.000000D+00  0.000000D+00  0.444513D+00
      4   0.000000D+00  0.000000D+00  0.000000D+00  0.000000D+00  0.000000D+00
      5   0.000000D+00  0.000000D+00  0.000000D+00  0.000000D+00 -0.148589D-01
      6   0.000000D+00  0.000000D+00  0.000000D+00  0.000000D+00 -0.755773D+00
      7   0.000000D+00  0.000000D+00  0.000000D+00  0.000000D+00  0.000000D+00
      8  -0.219156D-02  0.000000D+00  0.000000D+00  0.000000D+00  0.000000D+00
      9  -0.135609D+01  0.000000D+00  0.000000D+00  0.000000D+00  0.000000D+00
     10   0.000000D+00  0.000000D+00  0.000000D+00  0.000000D+00  0.000000D+00
     11   0.000000D+00  0.000000D+00 -0.954247D-01 -0.276301D+00  0.000000D+00
     12   0.000000D+00  0.000000D+00  0.954247D-01 -0.276301D+00  0.000000D+00
     13   0.000000D+00  0.000000D+00  0.000000D+00  0.528883D+00  0.000000D+00
     14   0.000000D+00 -0.954230D-01  0.000000D+00  0.000000D+00  0.000000D+00
     15  -0.209224D+01  0.000000D+00  0.000000D+00  0.000000D+00  0.000000D+00
     16   0.319215D-02  0.000000D+00  0.000000D+00  0.000000D+00  0.000000D+00
               186           187           188           189           190 
      1  -0.751493D+02 -0.751277D+02 -0.751277D+02 -0.751174D+02 -0.751174D+02
      2   0.444513D+00  0.000000D+00  0.000000D+00 -0.119011D-02 -0.284970D+00
      3  -0.874039D-02  0.000000D+00  0.000000D+00 -0.284970D+00  0.119011D-02
      4   0.000000D+00  0.000000D+00  0.000000D+00  0.000000D+00  0.000000D+00
      5  -0.755773D+00  0.000000D+00  0.000000D+00  0.223905D-02  0.539792D+00
      6   0.148589D-01  0.000000D+00  0.000000D+00  0.539792D+00 -0.223905D-02
      7   0.000000D+00  0.000000D+00  0.000000D+00  0.000000D+00  0.000000D+00
      8   0.000000D+00  0.000000D+00  0.000000D+00  0.000000D+00  0.000000D+00
      9   0.000000D+00  0.000000D+00  0.000000D+00  0.000000D+00  0.000000D+00
     10   0.000000D+00  0.000000D+00  0.000000D+00  0.000000D+00  0.000000D+00
     11   0.000000D+00  0.000000D+00  0.000000D+00  0.000000D+00  0.000000D+00
     12   0.000000D+00  0.000000D+00  0.000000D+00  0.000000D+00  0.000000D+00
     13   0.000000D+00  0.000000D+00  0.000000D+00  0.000000D+00  0.000000D+00
     14   0.000000D+00  0.000000D+00  0.000000D+00  0.000000D+00  0.000000D+00
     15   0.000000D+00  0.000000D+00  0.000000D+00  0.000000D+00  0.000000D+00
     16   0.000000D+00  0.000000D+00  0.000000D+00  0.000000D+00  0.000000D+00
               191           192           193           194           195 
      1  -0.750815D+02 -0.750815D+02 -0.750198D+02 -0.750198D+02 -0.750048D+02
      2   0.000000D+00  0.000000D+00  0.000000D+00  0.000000D+00  0.000000D+00
      3   0.000000D+00  0.000000D+00  0.000000D+00  0.000000D+00  0.000000D+00
      4   0.000000D+00  0.000000D+00  0.000000D+00  0.000000D+00  0.000000D+00
      5   0.000000D+00  0.000000D+00  0.000000D+00  0.000000D+00  0.000000D+00
      6   0.000000D+00  0.000000D+00  0.000000D+00  0.000000D+00  0.000000D+00
      7   0.000000D+00  0.000000D+00  0.000000D+00  0.000000D+00  0.000000D+00
      8  -0.541023D-05  0.221374D-05  0.000000D+00  0.000000D+00  0.000000D+00
      9   0.221374D-05  0.541023D-05  0.000000D+00  0.000000D+00  0.000000D+00
     10   0.000000D+00  0.000000D+00  0.000000D+00  0.000000D+00  0.000000D+00
     11   0.000000D+00  0.000000D+00  0.182676D+00  0.000000D+00  0.000000D+00
     12   0.000000D+00  0.000000D+00 -0.182676D+00  0.000000D+00  0.000000D+00
     13   0.000000D+00  0.000000D+00  0.000000D+00  0.000000D+00  0.000000D+00
     14   0.000000D+00  0.000000D+00  0.000000D+00 -0.182680D+00  0.000000D+00
     15   0.351425D-05  0.858970D-05  0.000000D+00  0.000000D+00  0.000000D+00
     16   0.858970D-05 -0.351425D-05  0.000000D+00  0.000000D+00  0.000000D+00
               196           197           198           199           200 
      1  -0.750045D+02 -0.749885D+02 -0.749885D+02 -0.749838D+02 -0.749838D+02
      2   0.000000D+00  0.000000D+00  0.000000D+00  0.000000D+00  0.000000D+00
      3   0.000000D+00  0.000000D+00  0.000000D+00  0.000000D+00  0.000000D+00
      4   0.804456D-01  0.000000D+00  0.000000D+00  0.000000D+00  0.000000D+00
      5   0.000000D+00  0.000000D+00  0.000000D+00  0.000000D+00  0.000000D+00
      6   0.000000D+00  0.000000D+00  0.000000D+00  0.000000D+00  0.000000D+00
      7  -0.139901D+00  0.000000D+00  0.000000D+00  0.000000D+00  0.000000D+00
      8   0.000000D+00 -0.774018D+00  0.104964D+01 -0.508977D+00  0.246887D+00
      9   0.000000D+00 -0.104964D+01 -0.774018D+00  0.246887D+00  0.508977D+00
     10   0.000000D+00  0.000000D+00  0.000000D+00  0.000000D+00  0.000000D+00
     11   0.000000D+00  0.000000D+00  0.000000D+00  0.000000D+00  0.000000D+00
     12   0.000000D+00  0.000000D+00  0.000000D+00  0.000000D+00  0.000000D+00
     13   0.000000D+00  0.000000D+00  0.000000D+00  0.000000D+00  0.000000D+00
     14   0.000000D+00  0.000000D+00  0.000000D+00  0.000000D+00  0.000000D+00
     15   0.000000D+00 -0.145006D+01 -0.106959D+01  0.413618D+00  0.853522D+00
     16   0.000000D+00  0.106959D+01 -0.145006D+01  0.853522D+00 -0.413618D+00
               201           202           203           204           205 
      1  -0.749800D+02 -0.749433D+02 -0.749433D+02 -0.749415D+02 -0.749415D+02
      2   0.000000D+00 -0.107258D+00  0.736968D-01  0.000000D+00  0.000000D+00
      3   0.000000D+00 -0.736968D-01 -0.107258D+00  0.000000D+00  0.000000D+00
      4   0.000000D+00  0.000000D+00  0.000000D+00  0.000000D+00  0.000000D+00
      5   0.000000D+00  0.190418D+00 -0.130816D+00  0.000000D+00  0.000000D+00
      6   0.000000D+00  0.130816D+00  0.190418D+00  0.000000D+00  0.000000D+00
      7   0.000000D+00  0.000000D+00  0.000000D+00  0.000000D+00  0.000000D+00
      8   0.000000D+00  0.000000D+00  0.000000D+00  0.000000D+00  0.000000D+00
      9   0.000000D+00  0.000000D+00  0.000000D+00  0.000000D+00  0.000000D+00
     10   0.000000D+00  0.000000D+00  0.000000D+00  0.000000D+00  0.000000D+00
     11  -0.376962D+00  0.000000D+00  0.000000D+00  0.000000D+00  0.671321D+00
     12  -0.376962D+00  0.000000D+00  0.000000D+00  0.000000D+00 -0.671321D+00
     13  -0.527452D+00  0.000000D+00  0.000000D+00  0.000000D+00  0.000000D+00
     14   0.000000D+00  0.000000D+00  0.000000D+00  0.671322D+00  0.000000D+00
     15   0.000000D+00  0.000000D+00  0.000000D+00  0.000000D+00  0.000000D+00
     16   0.000000D+00  0.000000D+00  0.000000D+00  0.000000D+00  0.000000D+00
               206           207           208           209           210 
      1  -0.748622D+02 -0.748622D+02 -0.748187D+02 -0.748187D+02 -0.747832D+02
      2   0.000000D+00  0.000000D+00  0.110732D+00  0.101806D+00  0.000000D+00
      3   0.000000D+00  0.000000D+00 -0.101806D+00  0.110732D+00  0.000000D+00
      4   0.000000D+00  0.000000D+00  0.000000D+00  0.000000D+00  0.000000D+00
      5   0.000000D+00  0.000000D+00 -0.243911D+00 -0.224195D+00  0.000000D+00
      6   0.000000D+00  0.000000D+00  0.224195D+00 -0.243911D+00  0.000000D+00
      7   0.000000D+00  0.000000D+00  0.000000D+00  0.000000D+00  0.000000D+00
      8   0.000000D+00  0.000000D+00  0.000000D+00  0.000000D+00  0.000000D+00
      9   0.000000D+00  0.000000D+00  0.000000D+00  0.000000D+00  0.000000D+00
     10   0.000000D+00  0.000000D+00  0.000000D+00  0.000000D+00  0.000000D+00
     11   0.000000D+00  0.000000D+00  0.000000D+00  0.000000D+00  0.000000D+00
     12   0.000000D+00  0.000000D+00  0.000000D+00  0.000000D+00  0.000000D+00
     13   0.000000D+00  0.000000D+00  0.000000D+00  0.000000D+00  0.000000D+00
     14   0.000000D+00  0.000000D+00  0.000000D+00  0.000000D+00  0.524515D+00
     15   0.000000D+00  0.000000D+00  0.000000D+00  0.000000D+00  0.000000D+00
     16   0.000000D+00  0.000000D+00  0.000000D+00  0.000000D+00  0.000000D+00
               211           212           213           214           215 
      1  -0.747832D+02 -0.747658D+02 -0.747658D+02 -0.747352D+02 -0.746810D+02
      2   0.000000D+00  0.000000D+00  0.000000D+00  0.000000D+00  0.000000D+00
      3   0.000000D+00  0.000000D+00  0.000000D+00  0.000000D+00  0.000000D+00
      4   0.000000D+00  0.000000D+00  0.000000D+00  0.000000D+00  0.267921D-01
      5   0.000000D+00  0.000000D+00  0.000000D+00  0.000000D+00  0.000000D+00
      6   0.000000D+00  0.000000D+00  0.000000D+00  0.000000D+00  0.000000D+00
      7   0.000000D+00  0.000000D+00  0.000000D+00  0.000000D+00 -0.884509D-01
      8   0.000000D+00 -0.524933D-01 -0.416041D+00  0.000000D+00  0.000000D+00
      9   0.000000D+00  0.416041D+00 -0.524933D-01  0.000000D+00  0.000000D+00
     10   0.000000D+00  0.000000D+00  0.000000D+00  0.000000D+00  0.000000D+00
     11   0.524517D+00  0.000000D+00  0.000000D+00  0.540762D-02  0.000000D+00
     12  -0.524517D+00  0.000000D+00  0.000000D+00  0.540762D-02  0.000000D+00
     13   0.000000D+00  0.000000D+00  0.000000D+00 -0.855982D-01  0.000000D+00
     14   0.000000D+00  0.000000D+00  0.000000D+00  0.000000D+00  0.000000D+00
     15   0.000000D+00  0.777279D+00 -0.979816D-01  0.000000D+00  0.000000D+00
     16   0.000000D+00  0.979816D-01  0.777279D+00  0.000000D+00  0.000000D+00
               216           217           218           219           220 
      1  -0.746504D+02 -0.746504D+02 -0.746173D+02 -0.746173D+02 -0.745633D+02
      2   0.000000D+00  0.000000D+00  0.000000D+00  0.000000D+00 -0.161025D+00
      3   0.000000D+00  0.000000D+00  0.000000D+00  0.000000D+00 -0.155409D+00
      4   0.000000D+00  0.000000D+00  0.000000D+00  0.000000D+00  0.000000D+00
      5   0.000000D+00  0.000000D+00  0.000000D+00  0.000000D+00  0.351645D+00
      6   0.000000D+00  0.000000D+00  0.000000D+00  0.000000D+00  0.339450D+00
      7   0.000000D+00  0.000000D+00  0.000000D+00  0.000000D+00  0.000000D+00
      8   0.190497D-01 -0.345011D-02  0.000000D+00  0.000000D+00  0.000000D+00
      9  -0.345011D-02 -0.190497D-01  0.000000D+00  0.000000D+00  0.000000D+00
     10   0.000000D+00  0.000000D+00  0.000000D+00  0.000000D+00  0.000000D+00
     11   0.000000D+00  0.000000D+00  0.000000D+00  0.000000D+00  0.000000D+00
     12   0.000000D+00  0.000000D+00  0.000000D+00  0.000000D+00  0.000000D+00
     13   0.000000D+00  0.000000D+00  0.000000D+00  0.000000D+00  0.000000D+00
     14   0.000000D+00  0.000000D+00  0.000000D+00  0.000000D+00  0.000000D+00
     15  -0.364043D-01 -0.222673D+00  0.000000D+00  0.000000D+00  0.000000D+00
     16  -0.222673D+00  0.364043D-01  0.000000D+00  0.000000D+00  0.000000D+00
               221           222           223           224           225 
      1  -0.745633D+02 -0.745054D+02 -0.744583D+02 -0.743971D+02 -0.742140D+02
      2   0.155409D+00  0.000000D+00  0.000000D+00  0.000000D+00  0.000000D+00
      3  -0.161025D+00  0.000000D+00  0.000000D+00  0.000000D+00  0.000000D+00
      4   0.000000D+00  0.000000D+00  0.447286D-01  0.000000D+00 -0.146229D+00
      5  -0.339450D+00  0.000000D+00  0.000000D+00  0.000000D+00  0.000000D+00
      6   0.351645D+00  0.000000D+00  0.000000D+00  0.000000D+00  0.000000D+00
      7   0.000000D+00  0.000000D+00 -0.831113D-01  0.000000D+00  0.425001D+00
      8   0.000000D+00  0.000000D+00  0.000000D+00  0.000000D+00  0.000000D+00
      9   0.000000D+00  0.000000D+00  0.000000D+00  0.000000D+00  0.000000D+00
     10   0.000000D+00  0.000000D+00  0.000000D+00  0.000000D+00  0.000000D+00
     11   0.000000D+00 -0.514917D-01  0.000000D+00 -0.503138D-01  0.000000D+00
     12   0.000000D+00 -0.514917D-01  0.000000D+00 -0.503138D-01  0.000000D+00
     13   0.000000D+00  0.641513D+00  0.000000D+00 -0.594513D-01  0.000000D+00
     14   0.000000D+00  0.000000D+00  0.000000D+00  0.000000D+00  0.000000D+00
     15   0.000000D+00  0.000000D+00  0.000000D+00  0.000000D+00  0.000000D+00
     16   0.000000D+00  0.000000D+00  0.000000D+00  0.000000D+00  0.000000D+00
               226           227           228           229           230 
      1  -0.741635D+02 -0.741635D+02 -0.741361D+02 -0.741331D+02 -0.739570D+02
      2   0.000000D+00  0.000000D+00  0.000000D+00  0.000000D+00  0.000000D+00
      3   0.000000D+00  0.000000D+00  0.000000D+00  0.000000D+00  0.000000D+00
      4   0.000000D+00  0.000000D+00 -0.160748D+00  0.000000D+00  0.000000D+00
      5   0.000000D+00  0.000000D+00  0.000000D+00  0.000000D+00  0.000000D+00
      6   0.000000D+00  0.000000D+00  0.000000D+00  0.000000D+00  0.000000D+00
      7   0.000000D+00  0.000000D+00  0.540487D+00  0.000000D+00  0.000000D+00
      8   0.000000D+00  0.000000D+00  0.000000D+00  0.000000D+00 -0.176302D+00
      9   0.000000D+00  0.000000D+00  0.000000D+00  0.000000D+00  0.234851D+00
     10   0.000000D+00  0.000000D+00  0.000000D+00  0.000000D+00  0.000000D+00
     11   0.000000D+00  0.000000D+00  0.000000D+00  0.000000D+00  0.000000D+00
     12   0.000000D+00  0.000000D+00  0.000000D+00  0.000000D+00  0.000000D+00
     13   0.000000D+00  0.000000D+00  0.000000D+00  0.000000D+00  0.000000D+00
     14   0.000000D+00  0.000000D+00  0.000000D+00  0.000000D+00  0.000000D+00
     15   0.000000D+00  0.000000D+00  0.000000D+00  0.000000D+00  0.331500D+00
     16   0.000000D+00  0.000000D+00  0.000000D+00  0.000000D+00  0.248713D+00
               231           232           233           234           235 
      1  -0.739570D+02 -0.738934D+02 -0.738934D+02 -0.737203D+02 -0.737203D+02
      2   0.000000D+00 -0.735686D-01  0.438874D-01 -0.958351D-01  0.622963D-01
      3   0.000000D+00 -0.438874D-01 -0.735686D-01 -0.622963D-01 -0.958351D-01
      4   0.000000D+00  0.000000D+00  0.000000D+00  0.000000D+00  0.000000D+00
      5   0.000000D+00  0.208672D+00 -0.124560D+00  0.276477D+00 -0.179779D+00
      6   0.000000D+00  0.124560D+00  0.208672D+00  0.179779D+00  0.276477D+00
      7   0.000000D+00  0.000000D+00  0.000000D+00  0.000000D+00  0.000000D+00
      8  -0.234851D+00  0.000000D+00  0.000000D+00  0.000000D+00  0.000000D+00
      9  -0.176302D+00  0.000000D+00  0.000000D+00  0.000000D+00  0.000000D+00
     10   0.000000D+00  0.000000D+00  0.000000D+00  0.000000D+00  0.000000D+00
     11   0.000000D+00  0.000000D+00  0.000000D+00  0.000000D+00  0.000000D+00
     12   0.000000D+00  0.000000D+00  0.000000D+00  0.000000D+00  0.000000D+00
     13   0.000000D+00  0.000000D+00  0.000000D+00  0.000000D+00  0.000000D+00
     14   0.000000D+00  0.000000D+00  0.000000D+00  0.000000D+00  0.000000D+00
     15  -0.248713D+00  0.000000D+00  0.000000D+00  0.000000D+00  0.000000D+00
     16   0.331500D+00  0.000000D+00  0.000000D+00  0.000000D+00  0.000000D+00
               236           237           238           239           240 
      1  -0.737192D+02 -0.737192D+02 -0.735322D+02 -0.734789D+02 -0.732723D+02
      2   0.000000D+00  0.000000D+00  0.000000D+00  0.000000D+00  0.000000D+00
      3   0.000000D+00  0.000000D+00  0.000000D+00  0.000000D+00  0.000000D+00
      4   0.000000D+00  0.000000D+00  0.000000D+00 -0.239058D-02  0.000000D+00
      5   0.000000D+00  0.000000D+00  0.000000D+00  0.000000D+00  0.000000D+00
      6   0.000000D+00  0.000000D+00  0.000000D+00  0.000000D+00  0.000000D+00
      7   0.000000D+00  0.000000D+00  0.000000D+00 -0.336561D-01  0.000000D+00
      8   0.295037D-01 -0.168994D-01  0.000000D+00  0.000000D+00  0.000000D+00
      9  -0.168994D-01 -0.295037D-01  0.000000D+00  0.000000D+00  0.000000D+00
     10   0.000000D+00  0.000000D+00  0.000000D+00  0.000000D+00  0.000000D+00
     11   0.000000D+00  0.000000D+00 -0.233143D-01  0.000000D+00  0.168083D+00
     12   0.000000D+00  0.000000D+00 -0.233143D-01  0.000000D+00  0.168083D+00
     13   0.000000D+00  0.000000D+00 -0.981778D+00  0.000000D+00  0.113114D+01
     14   0.000000D+00  0.000000D+00  0.000000D+00  0.000000D+00  0.000000D+00
     15  -0.139056D+00 -0.251490D+00  0.000000D+00  0.000000D+00  0.000000D+00
     16  -0.251490D+00  0.139056D+00  0.000000D+00  0.000000D+00  0.000000D+00
               241           242           243           244           245 
      1  -0.729355D+02 -0.729355D+02 -0.727556D+02 -0.726923D+02 -0.724867D+02
      2   0.000000D+00  0.000000D+00  0.000000D+00  0.000000D+00  0.000000D+00
      3   0.000000D+00  0.000000D+00  0.000000D+00  0.000000D+00  0.000000D+00
      4   0.000000D+00  0.000000D+00 -0.470780D-01  0.000000D+00 -0.478788D-01
      5   0.000000D+00  0.000000D+00  0.000000D+00  0.000000D+00  0.000000D+00
      6   0.000000D+00  0.000000D+00  0.000000D+00  0.000000D+00  0.000000D+00
      7   0.000000D+00  0.000000D+00  0.206031D+00  0.000000D+00  0.203931D+00
      8   0.347482D+00 -0.233618D-01  0.000000D+00  0.000000D+00  0.000000D+00
      9  -0.233618D-01 -0.347482D+00  0.000000D+00  0.000000D+00  0.000000D+00
     10   0.000000D+00  0.000000D+00  0.000000D+00  0.000000D+00  0.000000D+00
     11   0.000000D+00  0.000000D+00  0.000000D+00 -0.170199D+00  0.000000D+00
     12   0.000000D+00  0.000000D+00  0.000000D+00 -0.170199D+00  0.000000D+00
     13   0.000000D+00  0.000000D+00  0.000000D+00  0.730371D+00  0.000000D+00
     14   0.000000D+00  0.000000D+00  0.000000D+00  0.000000D+00  0.000000D+00
     15  -0.273745D-01 -0.411302D+00  0.000000D+00  0.000000D+00  0.000000D+00
     16  -0.411302D+00  0.273745D-01  0.000000D+00  0.000000D+00  0.000000D+00
 Unable to Open any file for archive entry.
 1\1\GINC-HEL25\SP\RTPSSTPSS TD-FC\Gen\C2H2\SABYASACHI\21-Mar-2022\0\\#
 P TD(Nstates=10000) tpsstpss/Gen SCF(maxcycles=100) Int(Grid=ultrafine
 )\\xGDB7_00001_tier4.com\\0,1\C,0,0.,0.,0.597322\C,0,0.,0.,-0.597322\H
 ,0,0.,0.,1.661338\H,0,0.,0.,-1.661338\\Version=EM64L-G16RevC.01\State=
 1-SGG\HF=-77.2880124\RMSD=1.255e-09\PG=D*H [C*(H1C1.C1H1)]\\@
 The archive entry for this job was punched.


 ASKING DUMB QUESTIONS IS EASIER THAN CORECTING DUMB MISTAKES.
 Job cpu time:       0 days  0 hours  0 minutes 49.0 seconds.
 Elapsed time:       0 days  0 hours  0 minutes  6.4 seconds.
 File lengths (MBytes):  RWF=     33 Int=      0 D2E=      0 Chk=     20 Scr=      1
 Normal termination of Gaussian 16 at Mon Mar 21 20:15:07 2022.
