 Entering Gaussian System, Link 0=g16
 Input=000030.com
 Output=000030.log
 Initial command:
 /home/sabyasachi/g16/l1.exe "/scratch/sabyasachi/PBS_7976560.helios/Gau-148690.inp" -scrdir="/scratch/sabyasachi/PBS_7976560.helios/"
 Entering Link 1 = /home/sabyasachi/g16/l1.exe PID=    148691.
  
 Copyright (c) 1988-2019, Gaussian, Inc.  All Rights Reserved.
  
 This is part of the Gaussian(R) 16 program.  It is based on
 the Gaussian(R) 09 system (copyright 2009, Gaussian, Inc.),
 the Gaussian(R) 03 system (copyright 2003, Gaussian, Inc.),
 the Gaussian(R) 98 system (copyright 1998, Gaussian, Inc.),
 the Gaussian(R) 94 system (copyright 1995, Gaussian, Inc.),
 the Gaussian 92(TM) system (copyright 1992, Gaussian, Inc.),
 the Gaussian 90(TM) system (copyright 1990, Gaussian, Inc.),
 the Gaussian 88(TM) system (copyright 1988, Gaussian, Inc.),
 the Gaussian 86(TM) system (copyright 1986, Carnegie Mellon
 University), and the Gaussian 82(TM) system (copyright 1983,
 Carnegie Mellon University). Gaussian is a federally registered
 trademark of Gaussian, Inc.
  
 This software contains proprietary and confidential information,
 including trade secrets, belonging to Gaussian, Inc.
  
 This software is provided under written license and may be
 used, copied, transmitted, or stored only in accord with that
 written license.
  
 The following legend is applicable only to US Government
 contracts under FAR:
  
                    RESTRICTED RIGHTS LEGEND
  
 Use, reproduction and disclosure by the US Government is
 subject to restrictions as set forth in subparagraphs (a)
 and (c) of the Commercial Computer Software - Restricted
 Rights clause in FAR 52.227-19.
  
 Gaussian, Inc.
 340 Quinnipiac St., Bldg. 40, Wallingford CT 06492
  
  
 ---------------------------------------------------------------
 Warning -- This program may not be used in any manner that
 competes with the business of Gaussian, Inc. or will provide
 assistance to any competitor of Gaussian, Inc.  The licensee
 of this program is prohibited from giving any competitor of
 Gaussian, Inc. access to this program.  By using this program,
 the user acknowledges that Gaussian, Inc. is engaged in the
 business of creating and licensing software in the field of
 computational chemistry and represents and warrants to the
 licensee that it is not a competitor of Gaussian, Inc. and that
 it will not use this program in any manner prohibited above.
 ---------------------------------------------------------------
  

 Cite this work as:
 Gaussian 16, Revision C.01,
 M. J. Frisch, G. W. Trucks, H. B. Schlegel, G. E. Scuseria, 
 M. A. Robb, J. R. Cheeseman, G. Scalmani, V. Barone, 
 G. A. Petersson, H. Nakatsuji, X. Li, M. Caricato, A. V. Marenich, 
 J. Bloino, B. G. Janesko, R. Gomperts, B. Mennucci, H. P. Hratchian, 
 J. V. Ortiz, A. F. Izmaylov, J. L. Sonnenberg, D. Williams-Young, 
 F. Ding, F. Lipparini, F. Egidi, J. Goings, B. Peng, A. Petrone, 
 T. Henderson, D. Ranasinghe, V. G. Zakrzewski, J. Gao, N. Rega, 
 G. Zheng, W. Liang, M. Hada, M. Ehara, K. Toyota, R. Fukuda, 
 J. Hasegawa, M. Ishida, T. Nakajima, Y. Honda, O. Kitao, H. Nakai, 
 T. Vreven, K. Throssell, J. A. Montgomery, Jr., J. E. Peralta, 
 F. Ogliaro, M. J. Bearpark, J. J. Heyd, E. N. Brothers, K. N. Kudin, 
 V. N. Staroverov, T. A. Keith, R. Kobayashi, J. Normand, 
 K. Raghavachari, A. P. Rendell, J. C. Burant, S. S. Iyengar, 
 J. Tomasi, M. Cossi, J. M. Millam, M. Klene, C. Adamo, R. Cammi, 
 J. W. Ochterski, R. L. Martin, K. Morokuma, O. Farkas, 
 J. B. Foresman, and D. J. Fox, Gaussian, Inc., Wallingford CT, 2019.
 
 ******************************************
 Gaussian 16:  EM64L-G16RevC.01  3-Jul-2019
                21-Mar-2022 
 ******************************************
 %mem=64gb
 %nproc=8
 Will use up to    8 processors via shared memory.
 ----------------------------------------------------------------------
 #P TD(Nstates=10000) tpsstpss/Gen SCF(maxcycles=100) Int(Grid=ultrafin
 e)
 ----------------------------------------------------------------------
 1/38=1,172=1/1;
 2/12=2,17=6,18=5,40=1/2;
 3/5=7,11=9,25=1,30=1,74=2523,75=-5/1,2,3,8;
 4//1;
 5/5=2,7=100,38=5/2;
 8/6=1,10=1,108=10000/1;
 9/41=10000,42=1,70=2/14;
 6/7=2,8=2,9=2,10=2/1;
 99/5=1,9=1/99;
 Leave Link    1 at Mon Mar 21 20:13:12 2022, MaxMem=  8589934592 cpu:               0.4 elap:               0.1
 (Enter /home/sabyasachi/g16/l101.exe)
 ---------------------
 xGDB7_00001_tier4.com
 ---------------------
 Symbolic Z-matrix:
 Charge =  0 Multiplicity = 1
 6                     1.23667   0.        0. 
 6                    -0.21874  -0.00001  -0.00001 
 6                    -1.41578   0.       0. 
 1                     1.62205   0.97904   0.28809 
 1                     1.62207  -0.24002  -0.9919 
 1                     1.62204  -0.73902   0.70382 
 1                    -2.47906  -0.00001   0.00001 
 
 ITRead=  0  0  0  0  0  0  0
 MicOpt= -1 -1 -1 -1 -1 -1 -1
 NAtoms=      7 NQM=        7 NQMF=       0 NMMI=      0 NMMIF=      0
                NMic=       0 NMicF=      0.
                    Isotopes and Nuclear Properties:
 (Nuclear quadrupole moments (NQMom) in fm**2, nuclear magnetic moments (NMagM)
  in nuclear magnetons)

  Atom         1           2           3           4           5           6           7
 IAtWgt=          12          12          12           1           1           1           1
 AtmWgt=  12.0000000  12.0000000  12.0000000   1.0078250   1.0078250   1.0078250   1.0078250
 NucSpn=           0           0           0           1           1           1           1
 AtZEff=  -0.0000000  -0.0000000  -0.0000000  -0.0000000  -0.0000000  -0.0000000  -0.0000000
 NQMom=    0.0000000   0.0000000   0.0000000   0.0000000   0.0000000   0.0000000   0.0000000
 NMagM=    0.0000000   0.0000000   0.0000000   2.7928460   2.7928460   2.7928460   2.7928460
 AtZNuc=   6.0000000   6.0000000   6.0000000   1.0000000   1.0000000   1.0000000   1.0000000
 Leave Link  101 at Mon Mar 21 20:13:12 2022, MaxMem=  8589934592 cpu:               0.7 elap:               0.1
 (Enter /home/sabyasachi/g16/l202.exe)
                          Input orientation:                          
 ---------------------------------------------------------------------
 Center     Atomic      Atomic             Coordinates (Angstroms)
 Number     Number       Type             X           Y           Z
 ---------------------------------------------------------------------
      1          6           0        1.236673    0.000003    0.000003
      2          6           0       -0.218742   -0.000006   -0.000005
      3          6           0       -1.415780    0.000004   -0.000001
      4          1           0        1.622045    0.979039    0.288094
      5          1           0        1.622070   -0.240023   -0.991898
      6          1           0        1.622037   -0.739019    0.703815
      7          1           0       -2.479058   -0.000005    0.000008
 ---------------------------------------------------------------------
                    Distance matrix (angstroms):
                    1          2          3          4          5
     1  C    0.000000
     2  C    1.455415   0.000000
     3  C    2.652453   1.197038   0.000000
     4  H    1.090880   2.104763   3.204667   0.000000
     5  H    1.090876   2.104768   3.204685   1.767623   0.000000
     6  H    1.090876   2.104749   3.204660   1.767639   1.767608
     7  H    3.715731   2.260316   1.063278   4.226176   4.226197
                    6          7
     6  H    0.000000
     7  H    4.226164   0.000000
 This structure is nearly, but not quite of a higher symmetry.
 Consider Symm=Loose if the higher symmetry is desired.
 Stoichiometry    C3H4
 Framework group  C1[X(C3H4)]
 Deg. of freedom    15
 Full point group                 C1      NOp   1
 Largest Abelian subgroup         C1      NOp   1
 Largest concise Abelian subgroup C1      NOp   1
                         Standard orientation:                         
 ---------------------------------------------------------------------
 Center     Atomic      Atomic             Coordinates (Angstroms)
 Number     Number       Type             X           Y           Z
 ---------------------------------------------------------------------
      1          6           0        0.000284   -0.018657   -1.236532
      2          6           0       -0.000055    0.003295    0.218717
      3          6           0       -0.000323    0.021367    1.415619
      4          1           0        0.273656    0.958689   -1.636635
      5          1           0       -0.987794   -0.279414   -1.618263
      6          1           0        0.715256   -0.752703   -1.610700
      7          1           0       -0.000556    0.037402    2.478776
 ---------------------------------------------------------------------
 Rotational constants (GHZ):         160.4916800           8.6297027           8.6296934
 Leave Link  202 at Mon Mar 21 20:13:12 2022, MaxMem=  8589934592 cpu:               0.1 elap:               0.0
 (Enter /home/sabyasachi/g16/l301.exe)
 General basis read from cards:  (5D, 7F)
 Centers:       4      5      6      7
 S 3 1.00
     Exponent=  1.3010701000D+01 Coefficients=  1.9682158000D-02
     Exponent=  1.9622572000D+00 Coefficients=  1.3796524000D-01
     Exponent=  4.4453796000D-01 Coefficients=  4.7831935000D-01
 S 1 1.00
     Exponent=  1.2194962000D-01 Coefficients=  1.0000000000D+00
 P 1 1.00
     Exponent=  8.0000000000D-01 Coefficients=  1.0000000000D+00
 P 1 1.00
     Exponent=  1.1704099050D-01 Coefficients=  1.0000000000D+00
 ****
 Centers:       1      2      3
 S 5 1.00
     Exponent=  1.2384016938D+03 Coefficients=  5.4568832082D-03
     Exponent=  1.8629004992D+02 Coefficients=  4.0638409211D-02
     Exponent=  4.2251176346D+01 Coefficients=  1.8025593888D-01
     Exponent=  1.1676557932D+01 Coefficients=  4.6315121755D-01
     Exponent=  3.5930506482D+00 Coefficients=  4.4087173314D-01
 S 1 1.00
     Exponent=  4.0245147363D-01 Coefficients=  1.0000000000D+00
 S 1 1.00
     Exponent=  1.3090182668D-01 Coefficients=  1.0000000000D+00
 S 1 1.00
     Exponent=  6.7053540256D-02 Coefficients=  1.0000000000D+00
 P 3 1.00
     Exponent=  9.4680970621D+00 Coefficients=  3.8387871728D-02
     Exponent=  2.0103545142D+00 Coefficients=  2.1117025112D-01
     Exponent=  5.4771004707D-01 Coefficients=  5.1328172114D-01
 P 1 1.00
     Exponent=  1.5268613795D-01 Coefficients=  1.0000000000D+00
 D 1 1.00
     Exponent=  8.0000000000D-01 Coefficients=  1.0000000000D+00
 D 1 1.00
     Exponent=  1.1713185140D-01 Coefficients=  1.0000000000D+00
 ****
 Ernie: Thresh=  0.10000D-02 Tol=  0.10000D-05 Strict=F.
 There are    98 symmetry adapted cartesian basis functions of A   symmetry.
 There are    92 symmetry adapted basis functions of A   symmetry.
    92 basis functions,   136 primitive gaussians,    98 cartesian basis functions
    11 alpha electrons       11 beta electrons
       nuclear repulsion energy        58.9346497608 Hartrees.
 IExCor= 2523 DFT=T Ex=TPSS Corr=TPSS ExCW=0 ScaHFX=  0.000000
 ScaDFX=  1.000000  1.000000  1.000000  1.000000 ScalE2=  1.000000  1.000000
 IRadAn=      5 IRanWt=     -1 IRanGd=            0 ICorTp=0 IEmpDi=  4
 NAtoms=    7 NActive=    7 NUniq=    7 SFac= 1.00D+00 NAtFMM=   60 NAOKFM=F Big=F
 Integral buffers will be    131072 words long.
 Regular integral format.
 Two-electron integral symmetry is turned on.
 Leave Link  301 at Mon Mar 21 20:13:12 2022, MaxMem=  8589934592 cpu:               0.5 elap:               0.1
 (Enter /home/sabyasachi/g16/l302.exe)
 NPDir=0 NMtPBC=     1 NCelOv=     1 NCel=       1 NClECP=     1 NCelD=      1
         NCelK=      1 NCelE2=     1 NClLst=     1 CellRange=     0.0.
 One-electron integrals computed using PRISM.
 One-electron integral symmetry used in STVInt
 NBasis=    92 RedAO= T EigKep=  3.60D-05  NBF=    92
 NBsUse=    92 1.00D-06 EigRej= -1.00D+00 NBFU=    92
 Precomputing XC quadrature grid using
 IXCGrd= 4 IRadAn=           5 IRanWt=          -1 IRanGd=           0 AccXCQ= 0.00D+00.
 Generated NRdTot=       0 NPtTot=           0 NUsed=           0 NTot=          32
 NSgBfM=    98    98    98    98    98 MxSgAt=     7 MxSgA2=     7.
 Leave Link  302 at Mon Mar 21 20:13:12 2022, MaxMem=  8589934592 cpu:               1.0 elap:               0.1
 (Enter /home/sabyasachi/g16/l303.exe)
 DipDrv:  MaxL=1.
 Leave Link  303 at Mon Mar 21 20:13:12 2022, MaxMem=  8589934592 cpu:               0.2 elap:               0.0
 (Enter /home/sabyasachi/g16/l308.exe)
 Leave Link  308 at Mon Mar 21 20:13:12 2022, MaxMem=  8589934592 cpu:               0.2 elap:               0.1
 (Enter /home/sabyasachi/g16/l401.exe)
 ExpMin= 6.71D-02 ExpMax= 1.24D+03 ExpMxC= 1.86D+02 IAcc=3 IRadAn=         5 AccDes= 0.00D+00
 Harris functional with IExCor= 1009 and IRadAn=       5 diagonalized for initial guess.
 HarFok:  IExCor= 1009 AccDes= 0.00D+00 IRadAn=         5 IDoV= 1 UseB2=F ITyADJ=14
 ICtDFT=  3500011 ScaDFX=  1.000000  1.000000  1.000000  1.000000
 FoFCou: FMM=F IPFlag=           0 FMFlag=      100000 FMFlg1=           0
         NFxFlg=           0 DoJE=T BraDBF=F KetDBF=T FulRan=T
         wScrn=  0.000000 ICntrl=       500 IOpCl=  0 I1Cent=   200000004 NGrid=           0
         NMat0=    1 NMatS0=      1 NMatT0=    0 NMatD0=    1 NMtDS0=    0 NMtDT0=    0
 Petite list used in FoFCou.
 Harris En= -116.508106745166    
 JPrj=0 DoOrth=F DoCkMO=F.
 Leave Link  401 at Mon Mar 21 20:13:13 2022, MaxMem=  8589934592 cpu:               2.6 elap:               0.3
 (Enter /home/sabyasachi/g16/l502.exe)
 Keep J ints in memory in canonical form, NReq=16540205.
 FoFCou: FMM=F IPFlag=           0 FMFlag=           0 FMFlg1=           0
         NFxFlg=           0 DoJE=F BraDBF=F KetDBF=F FulRan=T
         wScrn=  0.000000 ICntrl=       600 IOpCl=  0 I1Cent=           0 NGrid=           0
         NMat0=    1 NMatS0=   4278 NMatT0=    0 NMatD0=    1 NMtDS0=    0 NMtDT0=    0
 Symmetry not used in FoFCou.
 Two-electron integral symmetry not used.
 Closed shell SCF:
 Using DIIS extrapolation, IDIIS=  1040.
 NGot=  8589934592 LenX=  8580760555 LenY=  8580750510
 Requested convergence on RMS density matrix=1.00D-08 within 100 cycles.
 Requested convergence on MAX density matrix=1.00D-06.
 Requested convergence on             energy=1.00D-06.
 No special actions if energy rises.
 Integral accuracy reduced to 1.0D-05 until final iterations.

 Cycle   1  Pass 0  IDiag  1:
 E= -116.493837400122    
 DIIS: error= 3.38D-02 at cycle   1 NSaved=   1.
 NSaved= 1 IEnMin= 1 EnMin= -116.493837400122     IErMin= 1 ErrMin= 3.38D-02
 ErrMax= 3.38D-02  0.00D+00 EMaxC= 1.00D-01 BMatC= 8.77D-02 BMatP= 8.77D-02
 IDIUse=3 WtCom= 6.62D-01 WtEn= 3.38D-01
 Coeff-Com:  0.100D+01
 Coeff-En:   0.100D+01
 Coeff:      0.100D+01
 Gap=     0.240 Goal=   None    Shift=    0.000
 GapD=    0.240 DampG=1.000 DampE=0.500 DampFc=0.5000 IDamp=-1.
 Damping current iteration by 5.00D-01
 RMSDP=1.97D-02 MaxDP=4.91D-01              OVMax= 1.87D-01

 Cycle   2  Pass 0  IDiag  1:
 E= -116.538402978365     Delta-E=       -0.044565578243 Rises=F Damp=T
 DIIS: error= 6.64D-03 at cycle   2 NSaved=   2.
 NSaved= 2 IEnMin= 2 EnMin= -116.538402978365     IErMin= 2 ErrMin= 6.64D-03
 ErrMax= 6.64D-03  0.00D+00 EMaxC= 1.00D-01 BMatC= 2.95D-03 BMatP= 8.77D-02
 IDIUse=3 WtCom= 9.34D-01 WtEn= 6.64D-02
 Coeff-Com:  0.511D-01 0.949D+00
 Coeff-En:   0.131D+00 0.869D+00
 Coeff:      0.564D-01 0.944D+00
 Gap=     0.257 Goal=   None    Shift=    0.000
 RMSDP=4.78D-03 MaxDP=1.56D-01 DE=-4.46D-02 OVMax= 1.08D-01

 Cycle   3  Pass 0  IDiag  1:
 E= -116.594482215449     Delta-E=       -0.056079237084 Rises=F Damp=F
 DIIS: error= 2.45D-03 at cycle   3 NSaved=   3.
 NSaved= 3 IEnMin= 3 EnMin= -116.594482215449     IErMin= 3 ErrMin= 2.45D-03
 ErrMax= 2.45D-03  0.00D+00 EMaxC= 1.00D-01 BMatC= 4.16D-04 BMatP= 2.95D-03
 IDIUse=3 WtCom= 9.75D-01 WtEn= 2.45D-02
 Coeff-Com: -0.176D-01 0.210D+00 0.808D+00
 Coeff-En:   0.000D+00 0.000D+00 0.100D+01
 Coeff:     -0.172D-01 0.205D+00 0.812D+00
 Gap=     0.260 Goal=   None    Shift=    0.000
 RMSDP=9.06D-04 MaxDP=1.59D-02 DE=-5.61D-02 OVMax= 1.20D-02

 Cycle   4  Pass 0  IDiag  1:
 E= -116.594419568820     Delta-E=        0.000062646630 Rises=F Damp=F
 DIIS: error= 3.07D-03 at cycle   4 NSaved=   4.
 NSaved= 4 IEnMin= 3 EnMin= -116.594482215449     IErMin= 3 ErrMin= 2.45D-03
 ErrMax= 3.07D-03  0.00D+00 EMaxC= 1.00D-01 BMatC= 5.49D-04 BMatP= 4.16D-04
 IDIUse=3 WtCom= 1.53D-01 WtEn= 8.47D-01
 Coeff-Com: -0.153D-01 0.102D+00 0.566D+00 0.347D+00
 Coeff-En:   0.000D+00 0.000D+00 0.528D+00 0.472D+00
 Coeff:     -0.234D-02 0.156D-01 0.534D+00 0.453D+00
 Gap=     0.251 Goal=   None    Shift=    0.000
 RMSDP=4.38D-04 MaxDP=8.59D-03 DE= 6.26D-05 OVMax= 1.60D-02

 Cycle   5  Pass 0  IDiag  1:
 E= -116.594675752684     Delta-E=       -0.000256183865 Rises=F Damp=F
 DIIS: error= 2.18D-03 at cycle   5 NSaved=   5.
 NSaved= 5 IEnMin= 5 EnMin= -116.594675752684     IErMin= 5 ErrMin= 2.18D-03
 ErrMax= 2.18D-03  0.00D+00 EMaxC= 1.00D-01 BMatC= 2.77D-04 BMatP= 4.16D-04
 IDIUse=3 WtCom= 9.78D-01 WtEn= 2.18D-02
 EnCoef did     4 forward-backward iterations
 Coeff-Com:  0.123D-03 0.874D-02 0.239D+00 0.362D+00 0.391D+00
 Coeff-En:   0.000D+00 0.000D+00 0.506D-01 0.379D+00 0.571D+00
 Coeff:      0.121D-03 0.855D-02 0.235D+00 0.362D+00 0.395D+00
 Gap=     0.254 Goal=   None    Shift=    0.000
 RMSDP=2.18D-04 MaxDP=4.87D-03 DE=-2.56D-04 OVMax= 7.72D-03

 Cycle   6  Pass 0  IDiag  1:
 E= -116.594982115376     Delta-E=       -0.000306362692 Rises=F Damp=F
 DIIS: error= 1.40D-04 at cycle   6 NSaved=   6.
 NSaved= 6 IEnMin= 6 EnMin= -116.594982115376     IErMin= 6 ErrMin= 1.40D-04
 ErrMax= 1.40D-04  0.00D+00 EMaxC= 1.00D-01 BMatC= 1.60D-06 BMatP= 2.77D-04
 IDIUse=3 WtCom= 9.99D-01 WtEn= 1.40D-03
 Coeff-Com:  0.880D-03-0.132D-02 0.102D+00 0.177D+00 0.214D+00 0.508D+00
 Coeff-En:   0.000D+00 0.000D+00 0.000D+00 0.000D+00 0.000D+00 0.100D+01
 Coeff:      0.878D-03-0.131D-02 0.102D+00 0.176D+00 0.214D+00 0.508D+00
 Gap=     0.254 Goal=   None    Shift=    0.000
 RMSDP=2.27D-05 MaxDP=4.35D-04 DE=-3.06D-04 OVMax= 3.84D-04

 Cycle   7  Pass 0  IDiag  1:
 E= -116.594983815615     Delta-E=       -0.000001700239 Rises=F Damp=F
 DIIS: error= 2.20D-05 at cycle   7 NSaved=   7.
 NSaved= 7 IEnMin= 7 EnMin= -116.594983815615     IErMin= 7 ErrMin= 2.20D-05
 ErrMax= 2.20D-05  0.00D+00 EMaxC= 1.00D-01 BMatC= 3.01D-08 BMatP= 1.60D-06
 IDIUse=1 WtCom= 1.00D+00 WtEn= 0.00D+00
 Coeff-Com:  0.414D-03-0.913D-03 0.176D-01 0.315D-01 0.440D-01 0.163D+00
 Coeff-Com:  0.744D+00
 Coeff:      0.414D-03-0.913D-03 0.176D-01 0.315D-01 0.440D-01 0.163D+00
 Coeff:      0.744D+00
 Gap=     0.254 Goal=   None    Shift=    0.000
 RMSDP=7.18D-06 MaxDP=2.28D-04 DE=-1.70D-06 OVMax= 6.92D-05

 Initial convergence to 1.0D-05 achieved.  Increase integral accuracy.
 Cycle   8  Pass 1  IDiag  1:
 E= -116.594980696711     Delta-E=        0.000003118904 Rises=F Damp=F
 DIIS: error= 3.62D-06 at cycle   1 NSaved=   1.
 NSaved= 1 IEnMin= 1 EnMin= -116.594980696711     IErMin= 1 ErrMin= 3.62D-06
 ErrMax= 3.62D-06  0.00D+00 EMaxC= 1.00D-01 BMatC= 9.33D-10 BMatP= 9.33D-10
 IDIUse=1 WtCom= 1.00D+00 WtEn= 0.00D+00
 Coeff-Com:  0.100D+01
 Coeff:      0.100D+01
 Gap=     0.254 Goal=   None    Shift=    0.000
 RMSDP=7.18D-06 MaxDP=2.28D-04 DE= 3.12D-06 OVMax= 3.74D-05

 Cycle   9  Pass 1  IDiag  1:
 E= -116.594980695778     Delta-E=        0.000000000933 Rises=F Damp=F
 DIIS: error= 6.64D-06 at cycle   2 NSaved=   2.
 NSaved= 2 IEnMin= 1 EnMin= -116.594980696711     IErMin= 1 ErrMin= 3.62D-06
 ErrMax= 6.64D-06  0.00D+00 EMaxC= 1.00D-01 BMatC= 2.40D-09 BMatP= 9.33D-10
 IDIUse=1 WtCom= 1.00D+00 WtEn= 0.00D+00
 Coeff-Com:  0.645D+00 0.355D+00
 Coeff:      0.645D+00 0.355D+00
 Gap=     0.254 Goal=   None    Shift=    0.000
 RMSDP=7.96D-07 MaxDP=1.63D-05 DE= 9.33D-10 OVMax= 3.04D-05

 Cycle  10  Pass 1  IDiag  1:
 E= -116.594980697910     Delta-E=       -0.000000002132 Rises=F Damp=F
 DIIS: error= 2.91D-06 at cycle   3 NSaved=   3.
 NSaved= 3 IEnMin= 3 EnMin= -116.594980697910     IErMin= 3 ErrMin= 2.91D-06
 ErrMax= 2.91D-06  0.00D+00 EMaxC= 1.00D-01 BMatC= 4.74D-10 BMatP= 9.33D-10
 IDIUse=1 WtCom= 1.00D+00 WtEn= 0.00D+00
 Coeff-Com:  0.111D+00 0.294D+00 0.595D+00
 Coeff:      0.111D+00 0.294D+00 0.595D+00
 Gap=     0.254 Goal=   None    Shift=    0.000
 RMSDP=2.89D-07 MaxDP=5.28D-06 DE=-2.13D-09 OVMax= 8.73D-06

 Cycle  11  Pass 1  IDiag  1:
 E= -116.594980698374     Delta-E=       -0.000000000464 Rises=F Damp=F
 DIIS: error= 5.33D-07 at cycle   4 NSaved=   4.
 NSaved= 4 IEnMin= 4 EnMin= -116.594980698374     IErMin= 4 ErrMin= 5.33D-07
 ErrMax= 5.33D-07  0.00D+00 EMaxC= 1.00D-01 BMatC= 2.41D-11 BMatP= 4.74D-10
 IDIUse=1 WtCom= 1.00D+00 WtEn= 0.00D+00
 Coeff-Com: -0.195D-02 0.131D+00 0.316D+00 0.555D+00
 Coeff:     -0.195D-02 0.131D+00 0.316D+00 0.555D+00
 Gap=     0.254 Goal=   None    Shift=    0.000
 RMSDP=8.60D-08 MaxDP=1.52D-06 DE=-4.64D-10 OVMax= 1.57D-06

 Cycle  12  Pass 1  IDiag  1:
 E= -116.594980698401     Delta-E=       -0.000000000027 Rises=F Damp=F
 DIIS: error= 6.48D-08 at cycle   5 NSaved=   5.
 NSaved= 5 IEnMin= 5 EnMin= -116.594980698401     IErMin= 5 ErrMin= 6.48D-08
 ErrMax= 6.48D-08  0.00D+00 EMaxC= 1.00D-01 BMatC= 2.27D-13 BMatP= 2.41D-11
 IDIUse=1 WtCom= 1.00D+00 WtEn= 0.00D+00
 Coeff-Com: -0.253D-02 0.403D-01 0.885D-01 0.180D+00 0.693D+00
 Coeff:     -0.253D-02 0.403D-01 0.885D-01 0.180D+00 0.693D+00
 Gap=     0.254 Goal=   None    Shift=    0.000
 RMSDP=2.87D-08 MaxDP=9.06D-07 DE=-2.72D-11 OVMax= 2.32D-07

 Cycle  13  Pass 1  IDiag  1:
 E= -116.594980698403     Delta-E=       -0.000000000002 Rises=F Damp=F
 DIIS: error= 1.20D-08 at cycle   6 NSaved=   6.
 NSaved= 6 IEnMin= 6 EnMin= -116.594980698403     IErMin= 6 ErrMin= 1.20D-08
 ErrMax= 1.20D-08  0.00D+00 EMaxC= 1.00D-01 BMatC= 7.24D-15 BMatP= 2.27D-13
 IDIUse=1 WtCom= 1.00D+00 WtEn= 0.00D+00
 Coeff-Com: -0.844D-03 0.109D-01 0.233D-01 0.483D-01 0.255D+00 0.663D+00
 Coeff:     -0.844D-03 0.109D-01 0.233D-01 0.483D-01 0.255D+00 0.663D+00
 Gap=     0.254 Goal=   None    Shift=    0.000
 RMSDP=3.05D-09 MaxDP=8.35D-08 DE=-1.99D-12 OVMax= 3.75D-08

 SCF Done:  E(RTPSS-TPSS) =  -116.594980698     A.U. after   13 cycles
            NFock= 13  Conv=0.31D-08     -V/T= 2.0114
 KE= 1.152841906719D+02 PE=-3.871003039188D+02 EE= 9.628648278772D+01
 Leave Link  502 at Mon Mar 21 20:13:16 2022, MaxMem=  8589934592 cpu:              28.3 elap:               3.7
 (Enter /home/sabyasachi/g16/l801.exe)
 DoSCS=F DFT=T ScalE2(SS,OS)=  1.000000  1.000000
 ExpMin= 6.71D-02 ExpMax= 1.24D+03 ExpMxC= 1.86D+02 IAcc=3 IRadAn=         5 AccDes= 0.00D+00
 HarFok:  IExCor=  205 AccDes= 0.00D+00 IRadAn=         5 IDoV=-2 UseB2=F ITyADJ=14
 ICtDFT= 12500011 ScaDFX=  1.000000  1.000000  1.000000  1.000000
 Largest valence mixing into a core orbital is  7.96D-05
 Largest core mixing into a valence orbital is  2.43D-05
 Range of M.O.s used for correlation:     4    92
 NBasis=    92 NAE=    11 NBE=    11 NFC=     3 NFV=     0
 NROrb=     89 NOA=     8 NOB=     8 NVA=    81 NVB=    81

 **** Warning!!: The largest alpha MO coefficient is  0.81926202D+02

 Leave Link  801 at Mon Mar 21 20:13:17 2022, MaxMem=  8589934592 cpu:               0.5 elap:               0.1
 (Enter /home/sabyasachi/g16/l914.exe)
 RHF ground state
 Keep J ints in memory in canonical form, NReq=526446841.
 FoFCou: FMM=F IPFlag=           0 FMFlag=           0 FMFlg1=           0
         NFxFlg=           0 DoJE=F BraDBF=F KetDBF=F FulRan=T
         wScrn=  0.000000 ICntrl=       600 IOpCl=  0 I1Cent=           0 NGrid=           0
         NMat0=    1 NMatS0=   4278 NMatT0=    0 NMatD0=    1 NMtDS0=    0 NMtDT0=    0
 Symmetry not used in FoFCou.
 Two-electron integral symmetry not used.
 MDV=  8589934592 DFT=T DoStab=F Mixed=F DoRPA=T DoScal=T NonHer=F
 Making orbital integer symmetry assigments:
 Orbital symmetries:
       Occupied  (A) (A) (A) (A) (A) (A) (A) (A) (A) (A) (A)
       Virtual   (A) (A) (A) (A) (A) (A) (A) (A) (A) (A) (A) (A)
                 (A) (A) (A) (A) (A) (A) (A) (A) (A) (A) (A) (A)
                 (A) (A) (A) (A) (A) (A) (A) (A) (A) (A) (A) (A)
                 (A) (A) (A) (A) (A) (A) (A) (A) (A) (A) (A) (A)
                 (A) (A) (A) (A) (A) (A) (A) (A) (A) (A) (A) (A)
                 (A) (A) (A) (A) (A) (A) (A) (A) (A) (A) (A) (A)
                 (A) (A) (A) (A) (A) (A) (A) (A) (A)
   648 initial guesses have been made.
 Convergence on wavefunction:    0.001000000000000
 Davidson Disk Diagonalization:  ConvIn= 1.00D-03 SkipCon=T Conv= 1.00D-03.
 Max sub-space:  2592 roots to seek:  1296 dimension of matrix:         1296
 *** WARNING: Number of orthogonal guesses is          648
 Iteration     1 Dimension   648 NMult     0 NNew    648
 CISAX will form   648 AO SS matrices at one time.
 NMat=   648 NSing=   648 JSym2X= 0.
 New state      4 was old state      6
 New state      6 was old state      7
 New state      7 was old state      8
 New state      8 was old state      9
 New state      9 was old state     10
 New state     10 was old state     12
 New state     11 was old state     13
 New state     12 was old state     11
 New state     13 was old state     14
 New state     14 was old state     17
 New state     15 was old state     18
 New state     16 was old state     15
 New state     17 was old state     16
 New state     18 was old state      4
 New state     23 was old state     24
 New state     24 was old state     23
 New state     26 was old state     28
 New state     27 was old state     29
 New state     28 was old state     31
 New state     29 was old state     27
 New state     30 was old state     33
 New state     31 was old state     32
 New state     32 was old state     26
 New state     33 was old state     34
 New state     34 was old state     35
 New state     35 was old state     36
 New state     36 was old state     37
 New state     37 was old state     38
 New state     38 was old state     30
 New state     41 was old state     43
 New state     42 was old state     45
 New state     43 was old state     41
 New state     44 was old state     42
 New state     45 was old state     44
 New state     47 was old state     49
 New state     48 was old state     52
 New state     49 was old state     51
 New state     50 was old state     55
 New state     51 was old state     53
 New state     52 was old state     54
 New state     53 was old state     58
 New state     54 was old state     57
 New state     55 was old state     59
 New state     56 was old state     60
 New state     57 was old state     50
 New state     58 was old state     63
 New state     59 was old state     61
 New state     60 was old state     47
 New state     61 was old state     48
 New state     62 was old state     66
 New state     63 was old state     67
 New state     64 was old state     62
 New state     65 was old state     72
 New state     66 was old state     68
 New state     67 was old state     69
 New state     68 was old state     65
 New state     69 was old state     64
 New state     70 was old state     71
 New state     71 was old state     73
 New state     72 was old state     75
 New state     73 was old state     74
 New state     74 was old state     76
 New state     75 was old state     77
 New state     76 was old state     70
 New state     77 was old state     78
 New state     78 was old state     79
 New state     79 was old state     81
 New state     81 was old state     82
 New state     82 was old state     83
 New state     83 was old state     84
 New state     84 was old state     85
 New state     85 was old state     86
 New state     86 was old state     87
 New state     87 was old state     56
 New state     92 was old state     95
 New state     93 was old state     96
 New state     94 was old state     92
 New state     95 was old state     93
 New state     96 was old state     99
 New state     99 was old state    100
 New state    100 was old state    102
 New state    102 was old state     94
 New state    108 was old state    112
 New state    109 was old state    111
 New state    110 was old state    108
 New state    111 was old state    120
 New state    112 was old state    113
 New state    113 was old state    114
 New state    114 was old state    121
 New state    115 was old state    119
 New state    117 was old state    122
 New state    118 was old state    124
 New state    119 was old state    123
 New state    120 was old state    125
 New state    121 was old state    126
 New state    122 was old state    115
 New state    123 was old state    117
 New state    124 was old state    118
 New state    125 was old state    109
 New state    126 was old state    110
 New state    127 was old state    128
 New state    128 was old state    129
 New state    129 was old state    127
 New state    132 was old state    134
 New state    133 was old state    137
 New state    134 was old state    138
 New state    135 was old state    132
 New state    136 was old state    142
 New state    137 was old state    140
 New state    138 was old state    141
 New state    140 was old state    133
 New state    141 was old state    144
 New state    142 was old state    146
 New state    143 was old state    147
 New state    144 was old state    145
 No map to state    145
 New state    146 was old state    150
 New state    147 was old state    151
 New state    148 was old state    152
 New state    149 was old state    153
 New state    150 was old state    157
 New state    151 was old state    158
 New state    152 was old state    143
 New state    153 was old state    159
 New state    154 was old state    160
 New state    155 was old state    154
 New state    156 was old state    148
 New state    157 was old state    149
 New state    158 was old state    168
 New state    159 was old state    166
 New state    160 was old state    167
 New state    161 was old state    165
 New state    162 was old state    163
 New state    163 was old state    164
 New state    164 was old state    162
 New state    165 was old state    161
 New state    166 was old state    172
 New state    167 was old state    170
 New state    168 was old state    171
 New state    169 was old state    155
 New state    170 was old state    156
 New state    171 was old state    169
 New state    172 was old state    173
 New state    173 was old state    174
 New state    174 was old state    176
 New state    175 was old state    181
 New state    176 was old state    183
 New state    177 was old state    175
 New state    178 was old state    184
 New state    179 was old state    180
 New state    180 was old state    179
 New state    181 was old state    182
 New state    182 was old state    178
 New state    183 was old state    177
 New state    184 was old state    185
 New state    185 was old state    187
 New state    186 was old state    188
 New state    187 was old state    186
 New state    188 was old state    191
 New state    191 was old state    192
 New state    192 was old state    193
 New state    193 was old state    205
 New state    196 was old state    198
 New state    198 was old state    201
 New state    201 was old state    202
 New state    202 was old state    203
 New state    203 was old state    206
 New state    204 was old state    207
 New state    205 was old state    208
 New state    206 was old state    204
 New state    207 was old state    209
 New state    208 was old state    210
 New state    209 was old state    211
 New state    210 was old state    236
 New state    211 was old state    213
 New state    212 was old state    214
 New state    213 was old state    212
 New state    214 was old state    215
 New state    215 was old state    216
 New state    216 was old state    219
 New state    217 was old state    220
 New state    219 was old state    223
 New state    220 was old state    221
 New state    221 was old state    224
 New state    222 was old state    225
 New state    223 was old state    226
 New state    224 was old state    222
 New state    225 was old state    227
 New state    226 was old state    228
 New state    227 was old state    229
 New state    228 was old state    230
 New state    229 was old state    231
 New state    230 was old state    232
 New state    231 was old state    233
 New state    232 was old state    234
 New state    233 was old state    235
 New state    234 was old state    238
 New state    235 was old state    239
 New state    236 was old state    248
 New state    237 was old state    217
 New state    238 was old state    240
 New state    239 was old state    241
 New state    240 was old state    242
 New state    241 was old state    237
 New state    242 was old state    243
 New state    243 was old state    245
 New state    244 was old state    246
 New state    245 was old state    263
 New state    246 was old state    244
 New state    248 was old state    252
 New state    250 was old state    253
 New state    251 was old state    262
 New state    252 was old state    250
 New state    253 was old state    251
 New state    258 was old state    259
 New state    259 was old state    258
 New state    260 was old state    261
 No map to state    261
 New state    262 was old state    260
 New state    263 was old state    264
 New state    264 was old state    265
 New state    265 was old state    288
 New state    266 was old state    268
 New state    267 was old state    269
 New state    268 was old state    266
 New state    269 was old state    267
 New state    275 was old state    276
 New state    276 was old state    286
 New state    277 was old state    284
 New state    278 was old state    275
 New state    279 was old state    278
 New state    280 was old state    277
 New state    281 was old state    280
 New state    282 was old state    285
 New state    283 was old state    279
 New state    284 was old state    281
 New state    285 was old state    282
 New state    286 was old state    287
 New state    287 was old state    283
 New state    288 was old state    289
 New state    289 was old state    290
 New state    290 was old state    291
 New state    291 was old state    292
 New state    292 was old state    293
 New state    293 was old state    297
 New state    297 was old state    301
 New state    300 was old state    302
 New state    301 was old state    300
 New state    302 was old state    303
 New state    303 was old state    304
 New state    304 was old state    305
 New state    305 was old state    323
 New state    312 was old state    315
 New state    313 was old state    316
 New state    314 was old state    312
 New state    315 was old state    317
 New state    316 was old state    313
 New state    317 was old state    314
 New state    318 was old state    320
 New state    319 was old state    324
 New state    320 was old state    325
 New state    321 was old state    322
 New state    322 was old state    326
 New state    323 was old state    327
 New state    324 was old state    321
 New state    325 was old state    319
 New state    326 was old state    318
 New state    327 was old state    328
 New state    328 was old state    329
 New state    329 was old state    335
 New state    335 was old state    340
 New state    336 was old state    338
 New state    337 was old state    341
 New state    338 was old state    336
 New state    339 was old state    337
 New state    340 was old state    346
 New state    341 was old state    342
 New state    342 was old state    343
 New state    343 was old state    339
 New state    346 was old state    347
 New state    347 was old state    349
 New state    349 was old state    351
 New state    351 was old state    358
 New state    354 was old state    361
 New state    355 was old state    359
 New state    356 was old state    354
 New state    357 was old state    355
 New state    358 was old state    356
 New state    359 was old state    357
 New state    361 was old state    365
 New state    362 was old state    364
 New state    363 was old state    362
 New state    364 was old state    366
 New state    365 was old state    367
 New state    366 was old state    363
 New state    367 was old state    368
 New state    368 was old state    371
 New state    371 was old state    372
 New state    372 was old state    373
 New state    373 was old state    375
 New state    374 was old state    376
 New state    375 was old state    374
 New state    376 was old state    377
 New state    377 was old state    379
 New state    379 was old state    381
 New state    380 was old state    382
 New state    381 was old state    383
 New state    382 was old state    384
 New state    383 was old state    389
 New state    384 was old state    385
 New state    385 was old state    386
 New state    386 was old state    387
 New state    387 was old state    388
 New state    388 was old state    390
 New state    389 was old state    391
 New state    390 was old state    380
 New state    391 was old state    392
 New state    392 was old state    393
 New state    393 was old state    394
 New state    394 was old state    401
 New state    401 was old state    402
 New state    402 was old state    403
 New state    403 was old state    404
 New state    404 was old state    405
 New state    405 was old state    409
 New state    409 was old state    410
 New state    410 was old state    411
 New state    411 was old state    412
 New state    412 was old state    415
 New state    413 was old state    414
 New state    414 was old state    413
 New state    415 was old state    420
 New state    416 was old state    421
 New state    417 was old state    416
 New state    418 was old state    417
 New state    420 was old state    418
 New state    421 was old state    423
 New state    423 was old state    424
 New state    424 was old state    425
 No map to state    425
 New state    430 was old state    440
 New state    431 was old state    439
 New state    432 was old state    430
 New state    433 was old state    431
 New state    434 was old state    437
 New state    436 was old state    434
 New state    437 was old state    433
 New state    439 was old state    436
 New state    440 was old state    443
 New state    441 was old state    444
 New state    442 was old state    432
 New state    443 was old state    446
 New state    444 was old state    447
 New state    446 was old state    449
 New state    447 was old state    450
 New state    449 was old state    451
 New state    450 was old state    452
 New state    451 was old state    453
 New state    452 was old state    454
 New state    453 was old state    458
 New state    454 was old state    459
 New state    457 was old state    462
 New state    458 was old state    461
 New state    459 was old state    441
 New state    460 was old state    442
 New state    461 was old state    460
 New state    462 was old state    457
 New state    468 was old state    470
 New state    469 was old state    471
 New state    470 was old state    468
 New state    471 was old state    469
 New state    475 was old state    477
 New state    476 was old state    478
 New state    477 was old state    475
 New state    478 was old state    476
 New state    479 was old state    480
 New state    480 was old state    479
 New state    483 was old state    486
 New state    484 was old state    485
 New state    485 was old state    488
 New state    486 was old state    487
 New state    487 was old state    483
 New state    488 was old state    484
 New state    491 was old state    496
 New state    492 was old state    495
 New state    493 was old state    491
 New state    494 was old state    492
 New state    495 was old state    500
 New state    496 was old state    501
 New state    497 was old state    499
 New state    498 was old state    497
 New state    499 was old state    498
 New state    500 was old state    494
 New state    501 was old state    493
 New state    505 was old state    508
 New state    506 was old state    505
 New state    507 was old state    506
 New state    508 was old state    507
 New state    514 was old state    515
 New state    515 was old state    516
 New state    516 was old state    514
 New state    523 was old state    525
 New state    524 was old state    526
 New state    525 was old state    523
 New state    526 was old state    524
 New state    540 was old state    542
 New state    541 was old state    543
 New state    542 was old state    541
 New state    543 was old state    540
 New state    561 was old state    563
 New state    562 was old state    565
 New state    563 was old state    564
 New state    564 was old state    561
 New state    565 was old state    562
 New state    575 was old state    579
 New state    576 was old state    575
 New state    577 was old state    576
 New state    578 was old state    577
 New state    579 was old state    580
 New state    580 was old state    578
 New state    591 was old state    593
 New state    592 was old state    594
 New state    593 was old state    591
 New state    594 was old state    592
 New state    596 was old state    597
 New state    597 was old state    596
 New state    598 was old state    599
 New state    599 was old state    598
 New state    603 was old state    604
 New state    604 was old state    605
 New state    605 was old state    603
 New state    607 was old state    608
 New state    608 was old state    607
 New state    610 was old state    611
 New state    611 was old state    612
 New state    612 was old state    610
 New state    613 was old state    615
 New state    615 was old state    613
 Excitation Energies [eV] at current iteration:
 Root      1 :     6.916722004090254
 Root      2 :     6.916733962055118
 Root      3 :     7.054895395991745
 Root      4 :     7.073913635661921
 Root      5 :     7.073913847397804
 Root      6 :     7.932186785183892
 Root      7 :     7.932195940617500
 Root      8 :     8.613629792412345
 Root      9 :     8.613640570589350
 Root     10 :     9.009006767235222
 Root     11 :     9.440933091383874
 Root     12 :     9.440934389881354
 Root     13 :     9.451851918611620
 Root     14 :    10.207900962234390
 Root     15 :    10.241024973400160
 Root     16 :    10.304741642564050
 Root     17 :    10.304763357331690
 Root     18 :    10.363670786095140
 Root     19 :    10.447628960345110
 Root     20 :    10.447661905193150
 Root     21 :    11.238823835472590
 Root     22 :    11.238933586895740
 Root     23 :    11.279732051752640
 Root     24 :    11.405707038780530
 Root     25 :    11.405730745253210
 Root     26 :    11.520664212696720
 Root     27 :    11.520668556334820
 Root     28 :    11.615740340529270
 Root     29 :    11.674613119766640
 Root     30 :    11.722416582369150
 Root     31 :    11.722421990604310
 Root     32 :    12.028204331998860
 Root     33 :    12.167460074479650
 Root     34 :    12.167477413308640
 Root     35 :    12.175908521364580
 Root     36 :    12.175997514286420
 Root     37 :    12.418439958028040
 Root     38 :    12.783895247630500
 Root     39 :    12.824801248181050
 Root     40 :    12.824905663075380
 Root     41 :    13.215085979620510
 Root     42 :    13.265458914678040
 Root     43 :    13.377016288451210
 Root     44 :    13.534931574858370
 Root     45 :    13.557120410104740
 Root     46 :    13.557124279769570
 Root     47 :    13.681733743078910
 Root     48 :    13.702463353588370
 Root     49 :    13.702466158001760
 Root     50 :    13.786682031751000
 Root     51 :    13.786691781369240
 Root     52 :    13.850107331723530
 Root     53 :    13.906817645856380
 Root     54 :    13.906818886815860
 Root     55 :    14.130624770892180
 Root     56 :    14.130636787676240
 Root     57 :    14.346964197904100
 Root     58 :    14.373798821453690
 Root     59 :    14.397451516679780
 Root     60 :    14.441338870552410
 Root     61 :    14.441344021137210
 Root     62 :    14.652494386462260
 Root     63 :    14.652614094007100
 Root     64 :    14.712345593579260
 Root     65 :    14.857180146441120
 Root     66 :    14.967241789889200
 Root     67 :    14.967248339052570
 Root     68 :    15.109397766309390
 Root     69 :    15.109419395108090
 Root     70 :    15.192389311589340
 Root     71 :    15.246017947534560
 Root     72 :    15.246044569954120
 Root     73 :    15.267259137014410
 Root     74 :    15.393439166272700
 Root     75 :    15.393457400452040
 Root     76 :    15.681958412906170
 Root     77 :    15.743242591717890
 Root     78 :    15.743251139089060
 Root     79 :    15.777845299524240
 Root     80 :    15.821558158325460
 Root     81 :    15.821565202319460
 Root     82 :    15.854750723330150
 Root     83 :    15.965485856011640
 Root     84 :    15.965492035744420
 Root     85 :    16.083453426242990
 Root     86 :    16.083546386952070
 Root     87 :    16.100116587403460
 Root     88 :    16.156728317598650
 Root     89 :    16.156738306692020
 Root     90 :    16.177762325819780
 Root     91 :    16.177770621036360
 Root     92 :    16.430833973470870
 Root     93 :    16.430855102950250
 Root     94 :    16.446555401894050
 Root     95 :    16.446558069703360
 Root     96 :    16.860123425635930
 Root     97 :    16.870233424475180
 Root     98 :    16.870234742577600
 Root     99 :    16.893941431335310
 Root    100 :    16.893943316871450
 Root    101 :    16.947732387478330
 Root    102 :    17.104643145983180
 Root    103 :    17.365140332219020
 Root    104 :    17.711547478421020
 Root    105 :    17.731287359880850
 Root    106 :    17.791387489000670
 Root    107 :    17.791388227666070
 Root    108 :    17.957295842994430
 Root    109 :    17.957343206041470
 Root    110 :    17.990115193419060
 Root    111 :    18.029534440811840
 Root    112 :    18.062650869110860
 Root    113 :    18.062654244092910
 Root    114 :    18.110761108772490
 Root    115 :    18.110824699132590
 Root    116 :    18.114820712265310
 Root    117 :    18.119627729785840
 Root    118 :    18.156551983999060
 Root    119 :    18.156557593238570
 Root    120 :    18.212431856221410
 Root    121 :    18.212453084234800
 Root    122 :    18.244634711725550
 Root    123 :    18.282231372929080
 Root    124 :    18.282300150868470
 Root    125 :    18.462447119049390
 Root    126 :    18.462461205924580
 Root    127 :    18.584334271980520
 Root    128 :    18.584352927371200
 Root    129 :    18.693168564594500
 Root    130 :    18.859547760753860
 Root    131 :    19.002276251898930
 Root    132 :    19.456688754550210
 Root    133 :    19.520552905896150
 Root    134 :    19.520626013641660
 Root    135 :    19.580227328093010
 Root    136 :    19.581330195050090
 Root    137 :    19.581376868142770
 Root    138 :    19.586462160711140
 Root    139 :    19.621828296505590
 Root    140 :    19.735947096580340
 Root    141 :    19.758519822538540
 Root    142 :    19.758544106789150
 Root    143 :    19.832663939342940
 Root    144 :    19.832672286845310
 Root    145 :    19.909621888854690
 Root    146 :    19.912259819625310
 Root    147 :    19.912328641242440
 Root    148 :    19.926025181090970
 Root    149 :    19.926038388503270
 Root    150 :    20.058225713544730
 Root    151 :    20.058238380011620
 Root    152 :    20.079697390587650
 Root    153 :    20.130677491336280
 Root    154 :    20.130725934290360
 Root    155 :    20.150987038148620
 Root    156 :    20.173112344159270
 Root    157 :    20.173149841777690
 Root    158 :    20.250805382936590
 Root    159 :    20.359482375342440
 Root    160 :    20.359496661789000
 Root    161 :    20.412696314526230
 Root    162 :    20.430355693366540
 Root    163 :    20.430435728768200
 Root    164 :    20.474275122668580
 Root    165 :    20.474292661583680
 Root    166 :    20.571827272621510
 Root    167 :    20.682427046559180
 Root    168 :    20.682518726621530
 Root    169 :    20.750955219865530
 Root    170 :    20.750971616021890
 Root    171 :    20.814823262961240
 Root    172 :    20.962338318075900
 Root    173 :    20.982222874267370
 Root    174 :    21.074951803252620
 Root    175 :    21.149206814857690
 Root    176 :    21.149208658982610
 Root    177 :    21.199442792063450
 Root    178 :    21.257955131896810
 Root    179 :    21.258639248056880
 Root    180 :    21.258641674366250
 Root    181 :    21.317316394013300
 Root    182 :    21.380726309707700
 Root    183 :    21.380755380160410
 Root    184 :    21.487425344298580
 Root    185 :    21.613840594656450
 Root    186 :    21.613858346326530
 Root    187 :    21.792820961717800
 Root    188 :    21.876194990416220
 Root    189 :    21.954439784292780
 Root    190 :    21.954491459993310
 Root    191 :    22.225346022436750
 Root    192 :    22.225466820019880
 Root    193 :    22.263416705406040
 Root    194 :    22.312953902948810
 Root    195 :    22.368649241622890
 Root    196 :    22.411182039115170
 Root    197 :    22.411203828354280
 Root    198 :    22.532888428165870
 Root    199 :    22.632516414285050
 Root    200 :    22.632534209503830
 Root    201 :    22.749209750590940
 Root    202 :    22.749218786327570
 Root    203 :    22.827245452681870
 Root    204 :    22.854069128365460
 Root    205 :    22.854152778410470
 Root    206 :    22.947437657322870
 Root    207 :    23.220802666978020
 Root    208 :    23.362311223265500
 Root    209 :    23.362315982905460
 Root    210 :    23.417795563142040
 Root    211 :    23.502779358058680
 Root    212 :    23.502822839132690
 Root    213 :    23.580604484716710
 Root    214 :    23.759322896700360
 Root    215 :    23.844934031891740
 Root    216 :    23.970179127258020
 Root    217 :    23.970196090842240
 Root    218 :    23.992441532344170
 Root    219 :    24.058885758870440
 Root    220 :    24.058943479301440
 Root    221 :    24.134146094908530
 Root    222 :    24.144561881281470
 Root    223 :    24.144647060394830
 Root    224 :    24.238932364146700
 Root    225 :    24.372760149419480
 Root    226 :    24.372802857039790
 Root    227 :    24.483334161686150
 Root    228 :    24.483359076328310
 Root    229 :    24.522048277390490
 Root    230 :    24.522094045472780
 Root    231 :    24.688715840296970
 Root    232 :    24.688720977258380
 Root    233 :    24.701655255288550
 Root    234 :    24.732936680531210
 Root    235 :    24.733031832645260
 Root    236 :    24.740220155200680
 Root    237 :    24.740233872824120
 Root    238 :    24.850193847464170
 Root    239 :    24.850214693055670
 Root    240 :    25.062214521449250
 Root    241 :    25.398953884549120
 Root    242 :    25.417141659399580
 Root    243 :    25.417142347813580
 Root    244 :    25.496293102577110
 Root    245 :    25.723118882099930
 Root    246 :    26.076514761610430
 Root    247 :    26.232213918138840
 Root    248 :    26.232239452458470
 Root    249 :    26.251139433848780
 Root    250 :    26.251193185819400
 Root    251 :    26.375238705110350
 Root    252 :    26.375284904950040
 Root    253 :    26.432545493626890
 Root    254 :    26.500229292687290
 Root    255 :    26.500272079951110
 Root    256 :    26.574423145686290
 Root    257 :    26.574448454916890
 Root    258 :    26.687156967357070
 Root    259 :    26.982207309736100
 Root    260 :    27.006995250379120
 Root    261 :    27.007008249314460
 Root    262 :    27.073817951941430
 Root    263 :    27.277046365236380
 Root    264 :    27.549746357460820
 Root    265 :    27.754099545352730
 Root    266 :    27.908725002367260
 Root    267 :    27.908759307112410
 Root    268 :    27.997244226761170
 Root    269 :    27.997290773666760
 Root    270 :    28.284362167316220
 Root    271 :    28.284444280700660
 Root    272 :    28.434600218943470
 Root    273 :    28.434655040827680
 Root    274 :    28.473035092165370
 Root    275 :    28.745199554386730
 Root    276 :    28.812436787621640
 Root    277 :    28.812483194577660
 Root    278 :    28.915191438417710
 Root    279 :    28.992989412689190
 Root    280 :    28.993027419344690
 Root    281 :    28.998370953348110
 Root    282 :    29.106278654155890
 Root    283 :    29.120523353212840
 Root    284 :    29.137822167010790
 Root    285 :    29.137905187159210
 Root    286 :    29.275807410736550
 Root    287 :    29.706267223271810
 Root    288 :    30.018511780403120
 Root    289 :    30.018544706930650
 Root    290 :    30.444341783084180
 Root    291 :    30.691110525787430
 Root    292 :    30.691182964382750
 Root    293 :    30.821903557862260
 Root    294 :    30.883164087105420
 Root    295 :    30.883208205803270
 Root    296 :    31.019682437448870
 Root    297 :    31.171600438912630
 Root    298 :    31.207913941682500
 Root    299 :    31.208002695165580
 Root    300 :    31.416946630977680
 Root    301 :    31.416954016500200
 Root    302 :    31.510511895089910
 Root    303 :    31.600517883659120
 Root    304 :    31.600531682570540
 Root    305 :    32.147768626398990
 Root    306 :    32.322270443217860
 Root    307 :    32.322328270943010
 Root    308 :    32.761612503048690
 Root    309 :    32.761674679809870
 Root    310 :    32.972240839913620
 Root    311 :    32.972290925754980
 Root    312 :    32.986400546930080
 Root    313 :    32.986408025855250
 Root    314 :    33.133179530780430
 Root    315 :    33.257505611241070
 Root    316 :    33.260119990973580
 Root    317 :    33.260224166994940
 Root    318 :    33.290849976949880
 Root    319 :    33.467032115884250
 Root    320 :    33.467053118176230
 Root    321 :    33.497458240503280
 Root    322 :    33.578200820125160
 Root    323 :    33.578243488508590
 Root    324 :    33.907636519528000
 Root    325 :    33.907714460693800
 Root    326 :    34.040562931972220
 Root    327 :    34.353549824522690
 Root    328 :    34.353609688118810
 Root    329 :    34.450617631154990
 Root    330 :    34.538867611863840
 Root    331 :    34.538879647268280
 Root    332 :    35.110498778047020
 Root    333 :    35.237325123977660
 Root    334 :    35.237339506197340
 Root    335 :    35.538017004406610
 Root    336 :    35.538044969106820
 Root    337 :    35.662709246058250
 Root    338 :    35.688512554341580
 Root    339 :    35.688614009635640
 Root    340 :    35.784878908100810
 Root    341 :    35.929033971367720
 Root    342 :    35.929161431462150
 Root    343 :    36.025514283972460
 Root    344 :    36.172207730598420
 Root    345 :    36.172319209244020
 Root    346 :    36.999951024985700
 Root    347 :    37.463102369326890
 Root    348 :    37.503598831436670
 Root    349 :    37.539269905219090
 Root    350 :    37.539320086160560
 Root    351 :    37.731247968146230
 Root    352 :    37.745868417678100
 Root    353 :    37.745972830418870
 Root    354 :    37.790702804324980
 Root    355 :    37.790715578984520
 Root    356 :    37.937059347266710
 Root    357 :    37.937124971482900
 Root    358 :    38.089179596568910
 Root    359 :    38.089250905131670
 Root    360 :    38.136924644909440
 Root    361 :    38.243636427269120
 Root    362 :    38.243652029791220
 Root    363 :    38.295267481493520
 Root    364 :    38.817875159473240
 Root    365 :    38.817979312168360
 Root    366 :    39.207458999152320
 Root    367 :    39.314021946126440
 Root    368 :    39.472397458054660
 Root    369 :    39.509728745451070
 Root    370 :    39.509833711476160
 Root    371 :    39.789271972156110
 Root    372 :    39.789376296834540
 Root    373 :    40.151025870175190
 Root    374 :    40.151135232689830
 Root    375 :    40.306461354749540
 Root    376 :    40.503311326645000
 Root    377 :    40.674343877468810
 Root    378 :    41.491689348150470
 Root    379 :    42.177826700059690
 Root    380 :    42.177934389326090
 Root    381 :    42.246078505091260
 Root    382 :    42.287652755496440
 Root    383 :    42.389594903030610
 Root    384 :    42.474734923497760
 Root    385 :    42.474770199518350
 Root    386 :    42.491832160568490
 Root    387 :    42.491917283493690
 Root    388 :    42.562668218952430
 Root    389 :    42.562752694212220
 Root    390 :    42.691278088569870
 Root    391 :    42.830862839077030
 Root    392 :    42.831017922006800
 Root    393 :    43.395901955142020
 Root    394 :    43.648047092382770
 Root    395 :    43.838695040269930
 Root    396 :    43.838705367555430
 Root    397 :    44.233493643920750
 Root    398 :    44.233599172567540
 Root    399 :    44.551614615645220
 Root    400 :    44.551725708838320
 Root    401 :    44.711919392460300
 Root    402 :    44.723165882150840
 Root    403 :    44.723339670142050
 Root    404 :    44.755540273580500
 Root    405 :    44.938813103515950
 Root    406 :    46.045067081082210
 Root    407 :    46.282898881423900
 Root    408 :    46.283011945766500
 Root    409 :    46.868162627788270
 Root    410 :    46.915993686055310
 Root    411 :    46.915995456039530
 Root    412 :    47.067100542065680
 Root    413 :    47.249895543476430
 Root    414 :    47.955314833376540
 Root    415 :    48.012642423676470
 Root    416 :    48.012742578979550
 Root    417 :    48.052033011947330
 Root    418 :    48.243068491804090
 Root    419 :    48.243079568409630
 Root    420 :    48.250428954306730
 Root    421 :    48.782550189101460
 Root    422 :    48.799590948765030
 Root    423 :    49.050591746003900
 Root    424 :    49.050766689965530
 Root    425 :    49.205195834087700
 Root    426 :    50.009874211469390
 Root    427 :    50.085692046333040
 Root    428 :    50.085700158794220
 Root    429 :    50.771929267222700
 Root    430 :    51.019061212156240
 Root    431 :    51.035716304475070
 Root    432 :    51.076694781277580
 Root    433 :    51.076865770367360
 Root    434 :    51.417633790977150
 Root    435 :    51.417642022380130
 Root    436 :    51.451097987136660
 Root    437 :    51.451114624668430
 Root    438 :    51.472815219327410
 Root    439 :    51.650714251181090
 Root    440 :    51.734893029021670
 Root    441 :    51.734930316256360
 Root    442 :    51.938471647981810
 Root    443 :    52.303127560643450
 Root    444 :    52.594169984235310
 Root    445 :    52.594200281811900
 Root    446 :    53.092705332917820
 Root    447 :    53.092819551488690
 Root    448 :    53.136106129911230
 Root    449 :    53.750992711790010
 Root    450 :    53.751054070391880
 Root    451 :    54.582562782066110
 Root    452 :    54.582667759388830
 Root    453 :    54.791192870497600
 Root    454 :    54.791204441882900
 Root    455 :    54.855258748278740
 Root    456 :    54.855372734008770
 Root    457 :    54.970030390286600
 Root    458 :    55.012561359704990
 Root    459 :    55.143687688191870
 Root    460 :    55.143735740246780
 Root    461 :    55.294043963037720
 Root    462 :    55.471176010024680
 Root    463 :    55.702135257362400
 Root    464 :    55.702247952734910
 Root    465 :    56.008583448843300
 Root    466 :    56.063811341609390
 Root    467 :    56.070632007770430
 Root    468 :    56.461882261204200
 Root    469 :    56.461900599250510
 Root    470 :    56.653742673283910
 Root    471 :    56.653772905282260
 Root    472 :    56.803170780152530
 Root    473 :    57.350316389022790
 Root    474 :    58.001158111313200
 Root    475 :    58.410415469560980
 Root    476 :    58.410447545743960
 Root    477 :    58.652013208436320
 Root    478 :    58.652052804724720
 Root    479 :    58.771637297730110
 Root    480 :    58.780186524802710
 Root    481 :    58.977795666008050
 Root    482 :    58.977799962879540
 Root    483 :    59.118605230766660
 Root    484 :    59.118611667831410
 Root    485 :    59.199505581516500
 Root    486 :    59.201528251812700
 Root    487 :    59.426707481835490
 Root    488 :    59.426831261995710
 Root    489 :    59.816372814912110
 Root    490 :    59.816420050418600
 Root    491 :    60.318406736189060
 Root    492 :    60.320671887246410
 Root    493 :    60.531839477549920
 Root    494 :    60.531883273714090
 Root    495 :    61.318143739453710
 Root    496 :    61.318201695337660
 Root    497 :    61.326879792575390
 Root    498 :    61.621406525205680
 Root    499 :    61.621535222099840
 Root    500 :    62.305317283285880
 Root    501 :    62.305318807933000
 Root    502 :    62.344011827095190
 Root    503 :    62.547264538688890
 Root    504 :    62.547273319682700
 Root    505 :    62.686887043109150
 Root    506 :    63.034776063181330
 Root    507 :    63.034801989298670
 Root    508 :    63.078139064838370
 Root    509 :    63.138072799188760
 Root    510 :    63.138116692284910
 Root    511 :    63.417497571251970
 Root    512 :    63.652536473940370
 Root    513 :    63.652741775429630
 Root    514 :    64.289360515940130
 Root    515 :    64.289362074521290
 Root    516 :    64.410445130165140
 Root    517 :    64.479381377916280
 Root    518 :    64.866751024556790
 Root    519 :    65.117574263262700
 Root    520 :    65.117600741502830
 Root    521 :    65.260529528973540
 Root    522 :    65.306999537579770
 Root    523 :    65.449307643133780
 Root    524 :    65.449399401873960
 Root    525 :    65.519644640163120
 Root    526 :    65.519788628742760
 Root    527 :    65.667422219876360
 Root    528 :    65.667473158170010
 Root    529 :    66.023420396382210
 Root    530 :    66.023468498645490
 Root    531 :    66.519453529616460
 Root    532 :    66.519463477327530
 Root    533 :    66.717386232437140
 Root    534 :    66.717472867481290
 Root    535 :    67.523499941771080
 Root    536 :    67.662907739193670
 Root    537 :    67.662923613948950
 Root    538 :    68.038533308714340
 Root    539 :    68.038585408595170
 Root    540 :    68.445383320981110
 Root    541 :    68.512167778804510
 Root    542 :    68.512177277829510
 Root    543 :    68.694523188727490
 Root    544 :    69.229706435507410
 Root    545 :    69.229810568522610
 Root    546 :    69.322344782638000
 Root    547 :    69.878448719145330
 Root    548 :    69.878687078032470
 Root    549 :    70.094005845463870
 Root    550 :    70.094019241992830
 Root    551 :    70.705826745893550
 Root    552 :    70.705925029897030
 Root    553 :    70.938128759416440
 Root    554 :    70.938220046178460
 Root    555 :    71.431677541930550
 Root    556 :    71.942897619102440
 Root    557 :    71.943123511525670
 Root    558 :    71.996330479113980
 Root    559 :    71.996380740318360
 Root    560 :    72.869196308080500
 Root    561 :    73.566458544769350
 Root    562 :    73.566462556448930
 Root    563 :    73.598406614456640
 Root    564 :    73.626306143619670
 Root    565 :    73.911538980990830
 Root    566 :    74.133367608598970
 Root    567 :    74.133384106183640
 Root    568 :    74.218527347463510
 Root    569 :    74.218634036881570
 Root    570 :    74.988250770459840
 Root    571 :    75.586685486329240
 Root    572 :    75.586794214825830
 Root    573 :    75.659998437914610
 Root    574 :    76.692299031169750
 Root    575 :    77.193109409889470
 Root    576 :    77.474409293812680
 Root    577 :    77.474503837968910
 Root    578 :    77.528320201044000
 Root    579 :    77.779800125675010
 Root    580 :    77.779822297936180
 Root    581 :    77.784068269499510
 Root    582 :    78.289850370765610
 Root    583 :    78.290314449231430
 Root    584 :    79.678629733789410
 Root    585 :    80.165150593864440
 Root    586 :    80.165628309649610
 Root    587 :    80.658333858038460
 Root    588 :    80.658349976749830
 Root    589 :    81.166889742021910
 Root    590 :    83.218975003329660
 Root    591 :    84.422018289440790
 Root    592 :    84.422151376187670
 Root    593 :    84.561611478108060
 Root    594 :    84.562060148409070
 Root    595 :    85.288830026713460
 Root    596 :    85.544831634021450
 Root    597 :    85.544832014382920
 Root    598 :    86.048874081582060
 Root    599 :    86.122592389242030
 Root    600 :    86.635341696821380
 Root    601 :    86.635815197682550
 Root    602 :    87.318603999477150
 Root    603 :    89.727464101144240
 Root    604 :    89.969184012833270
 Root    605 :    89.969223265724490
 Root    606 :    90.074238514450200
 Root    607 :    90.352506515166170
 Root    608 :    90.352510904590290
 Root    609 :    90.432331306233650
 Root    610 :    90.480109623534530
 Root    611 :    90.480410700033470
 Root    612 :    90.542656624237790
 Root    613 :    91.415354370344120
 Root    614 :    91.415360925951060
 Root    615 :    91.711551185368730
 Root    616 :    92.370996564850930
 Root    617 :    92.371295899821430
 Root    618 :    93.720471250485090
 Root    619 :    94.070117860999160
 Root    620 :    94.070141575648950
 Root    621 :    94.112171124493880
 Root    622 :    94.472503326142430
 Root    623 :    94.839673949854810
 Root    624 :    94.839867043762510
 Root    625 :    95.838531627279320
 Root    626 :    95.838628036205880
 Root    627 :    96.562022858821990
 Root    628 :    96.786959296759850
 Root    629 :    96.787243850134630
 Root    630 :    97.013090638796200
 Root    631 :    97.013308861239440
 Root    632 :    97.938311886324020
 Root    633 :    98.826432739639060
 Root    634 :    98.826739665233380
 Root    635 :   101.220686148982800
 Root    636 :   101.220910534310200
 Root    637 :   102.833198866971500
 Root    638 :   103.241567631073800
 Root    639 :   103.241795997806600
 Root    640 :   104.683627486405900
 Root    641 :   112.634464914089600
 Root    642 :   112.634468778933400
 Root    643 :   117.387495694056700
 Root    644 :   117.387603078565600
 Root    645 :   117.556723816944800
 Root    646 :   118.861646556798900
 Root    647 :   124.142656369498700
 Root    648 :   126.175050990229700
 Convergence achieved for final wavefunctions.
 ***********************************************************************
 Excited states from <AA,BB:AA,BB> singles matrix:
 ***********************************************************************
 
 1PDM for each excited state written to RWF  633
 Ground to excited state transition densities written to RWF  633
 Ground to excited state transition electric dipole moments (Au):
       state          X           Y           Z        Dip. S.      Osc.
         1        -0.1751      0.0444     -0.0007      0.0326      0.0055
         2        -0.0444     -0.1750      0.0026      0.0326      0.0055
         3         0.0000      0.0000      0.0000      0.0000      0.0000
         4        -0.0753     -0.0034      0.0000      0.0057      0.0010
         5         0.0034     -0.0753      0.0011      0.0057      0.0010
         6        -0.4130      0.1094     -0.0017      0.1825      0.0355
         7        -0.1094     -0.4129      0.0062      0.1825      0.0355
         8        -0.4190      0.1208     -0.0019      0.1901      0.0401
         9        -0.1208     -0.4189      0.0062      0.1901      0.0401
        10        -0.0004      0.0217      1.4360      2.0627      0.4553
        11        -0.0096     -0.1176      0.0018      0.0139      0.0032
        12         0.1176     -0.0096      0.0002      0.0139      0.0032
        13        -0.0001      0.0001     -0.0002      0.0000      0.0000
        14         0.0001     -0.0001      0.0000      0.0000      0.0000
        15        -0.0002      0.0116      0.7719      0.5960      0.1495
        16        -0.0002     -0.0258      0.0002      0.0007      0.0002
        17        -0.0259      0.0002      0.0000      0.0007      0.0002
        18         0.0003     -0.0232     -1.5302      2.3420      0.5946
        19        -0.3272      0.0283     -0.0004      0.1078      0.0276
        20        -0.0283     -0.3271      0.0052      0.1078      0.0276
        21        -0.6016     -0.0587      0.0008      0.3654      0.1006
        22         0.0587     -0.6015      0.0092      0.3654      0.1006
        23        -0.0004      0.0003     -0.0000      0.0000      0.0000
        24        -0.2546     -0.1172      0.0018      0.0786      0.0220
        25        -0.1173      0.2546     -0.0039      0.0786      0.0220
        26         0.0899     -0.0818      0.0013      0.0148      0.0042
        27        -0.0819     -0.0898      0.0013      0.0148      0.0042
        28         0.0001     -0.0000      0.0000      0.0000      0.0000
        29         0.0000     -0.0053     -0.3495      0.1222      0.0349
        30        -0.0333      0.0660     -0.0010      0.0055      0.0016
        31         0.0660      0.0333     -0.0005      0.0055      0.0016
        32        -0.0001      0.0041      0.2710      0.0735      0.0217
        33        -0.2633     -0.0285      0.0003      0.0701      0.0209
        34         0.0285     -0.2629      0.0038      0.0700      0.0209
        35         0.0806      0.0088     -0.0001      0.0066      0.0020
        36        -0.0089      0.0817     -0.0013      0.0068      0.0020
        37         0.0002     -0.0112     -0.7472      0.5584      0.1699
        38        -0.0000      0.0025      0.1639      0.0269      0.0084
        39        -0.0668     -0.0081      0.0000      0.0045      0.0014
        40         0.0081     -0.0668      0.0010      0.0045      0.0014
        41        -0.0000     -0.0001     -0.0002      0.0000      0.0000
        42        -0.0000      0.0040      0.2701      0.0730      0.0237
        43        -0.0002      0.0112      0.7441      0.5539      0.1815
        44        -0.0000     -0.0020     -0.1202      0.0144      0.0048
        45        -0.2705     -0.2150      0.0032      0.1194      0.0397
        46        -0.2151      0.2705     -0.0041      0.1194      0.0397
        47        -0.0006      0.0012      0.0000      0.0000      0.0000
        48         0.1504     -0.4061      0.0062      0.1876      0.0630
        49         0.4061      0.1504     -0.0021      0.1876      0.0630
        50        -0.1156      0.0226     -0.0004      0.0139      0.0047
        51        -0.0226     -0.1156      0.0017      0.0139      0.0047
        52        -0.0000      0.0001      0.0001      0.0000      0.0000
        53         0.0372     -0.1322      0.0020      0.0189      0.0064
        54        -0.1322     -0.0372      0.0008      0.0189      0.0064
        55         0.0398     -0.1559      0.0023      0.0259      0.0090
        56         0.1559      0.0398     -0.0006      0.0259      0.0090
        57         0.0002     -0.0041     -0.2770      0.0767      0.0270
        58         0.0001     -0.0001     -0.0001      0.0000      0.0000
        59        -0.0000      0.0097      0.6357      0.4043      0.1426
        60        -0.5213     -0.2242      0.0033      0.3221      0.1140
        61         0.2243     -0.5213      0.0079      0.3221      0.1140
        62        -0.1840     -0.0124      0.0001      0.0340      0.0122
        63         0.0124     -0.1839      0.0028      0.0340      0.0122
        64         0.0000     -0.0025     -0.1637      0.0268      0.0097
        65        -0.0001      0.0058      0.3787      0.1434      0.0522
        66         0.1816      0.0122     -0.0002      0.0331      0.0121
        67        -0.0120      0.1813     -0.0028      0.0330      0.0121
        68         0.7325      0.6481     -0.0095      0.9567      0.3541
        69        -0.6482      0.7325     -0.0112      0.9568      0.3542
        70         0.0002     -0.0028     -0.1871      0.0350      0.0130
        71         0.0707     -0.1669      0.0025      0.0328      0.0123
        72         0.1671      0.0707     -0.0010      0.0329      0.0123
        73         0.0000     -0.0004     -0.0000      0.0000      0.0000
        74         0.8665      0.0604     -0.0007      0.7544      0.2845
        75        -0.0604      0.8663     -0.0131      0.7543      0.2845
        76        -0.0001     -0.0013     -0.0846      0.0072      0.0028
        77        -0.0237     -0.1184      0.0018      0.0146      0.0056
        78         0.1184     -0.0237      0.0004      0.0146      0.0056
        79        -0.0003      0.0033      0.2275      0.0518      0.0200
        80         0.1307     -0.0339      0.0007      0.0182      0.0071
        81        -0.0339     -0.1307      0.0018      0.0182      0.0071
        82        -0.0001      0.0002     -0.0001      0.0000      0.0000
        83         0.2742     -0.1810      0.0028      0.1080      0.0422
        84         0.1811      0.2742     -0.0040      0.1080      0.0422
        85         0.1559      0.0194      0.0002      0.0247      0.0097
        86        -0.0194      0.1558     -0.0021      0.0246      0.0097
        87         0.0002     -0.0044     -0.2959      0.0876      0.0345
        88        -0.1264      0.3455     -0.0051      0.1354      0.0536
        89        -0.3457     -0.1264      0.0017      0.1355      0.0536
        90        -0.2464      0.0272     -0.0004      0.0614      0.0244
        91        -0.0271     -0.2465      0.0038      0.0615      0.0244
        92        -0.4628     -0.0176      0.0002      0.2145      0.0863
        93         0.0175     -0.4627      0.0071      0.2144      0.0863
        94         0.2944     -0.7082      0.0109      0.5884      0.2371
        95         0.7082      0.2943     -0.0044      0.5882      0.2370
        96         0.0001      0.0002     -0.0000      0.0000      0.0000
        97        -0.0065      0.0126     -0.0001      0.0002      0.0001
        98        -0.0126     -0.0066     -0.0000      0.0002      0.0001
        99         0.3805     -0.2733      0.0042      0.2195      0.0908
       100         0.2733      0.3804     -0.0058      0.2194      0.0908
       101        -0.0001      0.0048      0.3203      0.1026      0.0426
       102         0.0000     -0.0053     -0.3456      0.1195      0.0501
       103         0.0003     -0.0186     -1.2291      1.5112      0.6429
       104         0.0001     -0.0001      0.0000      0.0000      0.0000
       105        -0.0001      0.0022      0.1551      0.0241      0.0104
       106         0.0034      0.0013     -0.0001      0.0000      0.0000
       107         0.0013     -0.0034      0.0002      0.0000      0.0000
       108        -0.0085      0.0615     -0.0009      0.0039      0.0017
       109         0.0615      0.0085     -0.0002      0.0039      0.0017
       110         0.0000      0.0001      0.0086      0.0001      0.0000
       111         0.0001     -0.0000      0.0000      0.0000      0.0000
       112         0.0348      0.1593     -0.0025      0.0266      0.0118
       113         0.1592     -0.0348      0.0005      0.0266      0.0118
       114         0.0069     -0.0003      0.0004      0.0000      0.0000
       115         0.0003      0.0070     -0.0006      0.0000      0.0000
       116         0.0001     -0.0004      0.0000      0.0000      0.0000
       117        -0.0000      0.0029      0.1962      0.0385      0.0171
       118        -0.2399      0.0290     -0.0006      0.0584      0.0260
       119         0.0290      0.2397     -0.0035      0.0583      0.0259
       120        -0.0263      0.0909     -0.0013      0.0090      0.0040
       121        -0.0910     -0.0262      0.0002      0.0090      0.0040
       122        -0.0002      0.0089      0.5817      0.3385      0.1513
       123         0.6148      0.0756     -0.0010      0.3837      0.1719
       124        -0.0756      0.6147     -0.0093      0.3837      0.1719
       125        -0.0720     -0.0204      0.0002      0.0056      0.0025
       126         0.0205     -0.0721      0.0011      0.0056      0.0025
       127         0.1834     -0.1140      0.0017      0.0466      0.0212
       128         0.1140      0.1834     -0.0028      0.0466      0.0212
       129        -0.0002      0.0077      0.5166      0.2669      0.1223
       130         0.0001     -0.0017     -0.1177      0.0138      0.0064
       131        -0.0001      0.0027      0.1837      0.0337      0.0157
       132        -0.0000     -0.0000     -0.0001      0.0000      0.0000
       133         0.1729      0.0166     -0.0002      0.0302      0.0144
       134        -0.0166      0.1728     -0.0026      0.0301      0.0144
       135        -0.0008      0.0022      0.1512      0.0229      0.0110
       136        -0.0714     -0.0173     -0.0013      0.0054      0.0026
       137        -0.0172      0.0715     -0.0014      0.0054      0.0026
       138         0.0001     -0.0001     -0.0000      0.0000      0.0000
       139         0.0001     -0.0010     -0.0711      0.0050      0.0024
       140        -0.0005     -0.0049     -0.3060      0.0936      0.0453
       141        -0.2698     -0.0732      0.0014      0.0782      0.0378
       142         0.0732     -0.2697      0.0042      0.0781      0.0378
       143         0.1132     -0.0526      0.0007      0.0156      0.0076
       144        -0.0525     -0.1132      0.0018      0.0156      0.0076
       145        -0.0004      0.0002      0.0001      0.0000      0.0000
       146        -0.0110      0.2128     -0.0033      0.0454      0.0222
       147        -0.2126     -0.0107      0.0001      0.0453      0.0221
       148        -0.1110      0.1419     -0.0021      0.0324      0.0158
       149        -0.1421     -0.1111      0.0016      0.0325      0.0159
       150        -0.0345     -0.3020      0.0045      0.0924      0.0454
       151         0.3020     -0.0345      0.0007      0.0924      0.0454
       152        -0.0001      0.0044      0.2891      0.0836      0.0411
       153         0.0925      0.0022      0.0004      0.0086      0.0042
       154        -0.0025      0.0934     -0.0014      0.0087      0.0043
       155        -0.0001     -0.0038     -0.2507      0.0629      0.0310
       156        -0.5729      0.0078     -0.0001      0.3283      0.1623
       157        -0.0078     -0.5727      0.0086      0.3281      0.1622
       158         0.0000     -0.0043     -0.2811      0.0790      0.0392
       159        -0.0735      0.0541     -0.0008      0.0083      0.0042
       160        -0.0541     -0.0735      0.0010      0.0083      0.0042
       161         0.0000      0.0000      0.0000      0.0000      0.0000
       162        -0.0289     -0.0033      0.0001      0.0008      0.0004
       163         0.0034     -0.0289      0.0005      0.0008      0.0004
       164         0.0104     -0.0011      0.0000      0.0001      0.0001
       165        -0.0010     -0.0104      0.0002      0.0001      0.0001
       166        -0.0001      0.0047      0.3200      0.1024      0.0516
       167        -0.0939     -0.0111      0.0001      0.0089      0.0045
       168         0.0111     -0.0939      0.0014      0.0089      0.0045
       169         0.0405      0.0125     -0.0001      0.0018      0.0009
       170        -0.0125      0.0404     -0.0006      0.0018      0.0009
       171        -0.0000      0.0005      0.0368      0.0014      0.0007
       172         0.0000     -0.0006     -0.0427      0.0018      0.0009
       173         0.0000     -0.0023     -0.1504      0.0226      0.0116
       174        -0.0000      0.0000     -0.0000      0.0000      0.0000
       175         0.0107     -0.0522      0.0008      0.0028      0.0015
       176        -0.0522     -0.0106      0.0002      0.0028      0.0015
       177        -0.0000     -0.0055     -0.3608      0.1302      0.0676
       178        -0.0001     -0.0002      0.0001      0.0000      0.0000
       179        -0.0287     -0.0676      0.0010      0.0054      0.0028
       180        -0.0675      0.0286     -0.0004      0.0054      0.0028
       181        -0.0001     -0.0018     -0.1181      0.0139      0.0073
       182         0.4109      0.2043     -0.0030      0.2106      0.1103
       183        -0.2043      0.4109     -0.0063      0.2106      0.1103
[...]
      8  -0.628168D-04  0.839730D-05 -0.477664D-03  0.103998D-03  0.448889D-04
      9  -0.298918D+00 -0.172649D+00  0.473680D-03 -0.156752D+00 -0.186937D+00
     10  -0.172698D+00  0.298927D+00 -0.490503D-03 -0.187064D+00  0.156678D+00
     11  -0.442640D-04 -0.199448D-03  0.601464D-01 -0.265638D-02  0.276123D-01
     12  -0.474079D-01 -0.136782D+00 -0.273633D+00 -0.132402D-02  0.745241D-01
     13   0.471984D-01  0.136109D+00 -0.273794D+00 -0.564200D-03 -0.538881D-01
     14  -0.135217D+00  0.232952D+00 -0.445961D-03 -0.202451D+00  0.170384D+00
     15   0.232948D+00  0.135174D+00 -0.415949D-03  0.170501D+00  0.202308D+00
     16   0.136433D+00 -0.472898D-01 -0.214588D-04 -0.642434D-01 -0.371327D-03
               581           582           583           584           585 
      1  -0.113736D+03 -0.113718D+03 -0.113718D+03 -0.113667D+03 -0.113649D+03
      2  -0.154333D-01 -0.117037D-05  0.722164D-05  0.832999D-01 -0.140194D-05
      3   0.538142D-03 -0.748455D-03 -0.191975D-01 -0.510355D-05 -0.410863D-02
      4   0.526678D-03  0.191975D-01 -0.745493D-03 -0.622271D-05  0.701776D-01
      5   0.318366D-01  0.572802D-05 -0.240715D-04 -0.203317D+00  0.361719D-05
      6  -0.218990D-02  0.237296D-02  0.612826D-01  0.135371D-04  0.106544D-01
      7  -0.214580D-02 -0.612819D-01  0.236242D-02  0.173423D-04 -0.182742D+00
      8   0.433355D-03 -0.257119D-04 -0.300968D-04 -0.725698D-04 -0.856798D-05
      9   0.722462D-02  0.586077D+00 -0.224127D-01  0.558241D-04 -0.168368D+00
     10  -0.731793D-02  0.224337D-01  0.586018D+00 -0.300358D-04 -0.100898D-01
     11   0.649761D+00  0.724149D-05 -0.432751D-04 -0.660232D+00  0.393967D-04
     12   0.246147D+00 -0.204150D+00  0.190760D+00  0.547261D-01 -0.530684D-01
     13   0.251599D+00  0.204216D+00 -0.190859D+00  0.546947D-01  0.530774D-01
     14  -0.798772D-02  0.187289D-01  0.490000D+00 -0.201605D-04 -0.136786D-01
     15  -0.786222D-02 -0.490063D+00  0.187065D-01 -0.308157D-04  0.232860D+00
     16  -0.244264D-03  0.190808D+00  0.204198D+00 -0.145529D-05  0.516620D-01
               586           587           588           589           590 
      1  -0.113649D+03 -0.113631D+03 -0.113631D+03 -0.113612D+03 -0.113537D+03
      2   0.167375D-05 -0.406946D-05  0.000000D+00 -0.851064D-01 -0.335848D-01
      3  -0.701760D-01  0.168388D-02 -0.220471D-01  0.109187D-05 -0.354163D-05
      4  -0.410591D-02 -0.220428D-01 -0.168241D-02  0.186188D-05 -0.267233D-05
      5  -0.359472D-05  0.127263D-04  0.436010D-05  0.217644D+00  0.947969D-01
      6   0.182739D+00 -0.425661D-02  0.557483D-01 -0.584247D-05  0.128493D-04
      7   0.106477D-01  0.557383D-01  0.425308D-02 -0.532699D-05  0.627435D-05
      8  -0.306178D-05  0.241049D-05 -0.199667D-05  0.282737D-04 -0.194444D-04
      9   0.100809D-01  0.229025D+00  0.178054D-01 -0.279383D-04  0.319443D-04
     10  -0.168360D+00  0.178032D-01 -0.229035D+00  0.418651D-05 -0.101636D-04
     11  -0.412125D-04 -0.771135D-04 -0.818094D-04 -0.296552D+00 -0.705517D+00
     12   0.516814D-01 -0.740255D-01 -0.747507D-01 -0.413461D-01  0.156491D-02
     13  -0.516698D-01  0.739701D-01  0.746972D-01 -0.413311D-01  0.155011D-02
     14  -0.232859D+00  0.188565D-01 -0.237787D+00 -0.109378D-05  0.000000D+00
     15  -0.136654D-01 -0.237787D+00 -0.188606D-01  0.727409D-05 -0.277544D-04
     16   0.530734D-01  0.747263D-01 -0.740000D-01 -0.739794D-05  0.783506D-05
               591           592           593           594           595 
      1  -0.113493D+03 -0.113493D+03 -0.113487D+03 -0.113487D+03 -0.113461D+03
      2   0.476580D-05 -0.194939D-05  0.147117D-05  0.000000D+00 -0.919297D-01
      3  -0.525648D-02 -0.687854D-01  0.777282D-03  0.189098D-01 -0.667088D-05
      4  -0.687721D-01  0.525135D-02 -0.189521D-01  0.768593D-03 -0.123665D-05
      5  -0.126366D-04  0.691054D-05 -0.583809D-05  0.257941D-05  0.304586D+00
      6   0.108708D-01  0.142069D+00 -0.153994D-02 -0.380891D-01  0.137499D-04
      7   0.142039D+00 -0.108595D-01  0.381756D-01 -0.152211D-02  0.000000D+00
      8   0.000000D+00  0.000000D+00 -0.223352D-05 -0.744113D-05  0.615092D-04
      9  -0.132876D+00  0.898145D-02 -0.321192D+00  0.134236D-01 -0.245402D-04
     10   0.905547D-02  0.133096D+00 -0.134505D-01 -0.321102D+00 -0.139287D-04
     11  -0.620897D-04 -0.958470D-05  0.130250D-04  0.000000D+00 -0.707079D-01
     12   0.362040D-01  0.268074D-01 -0.656759D-01  0.619265D-01 -0.583180D-01
     13  -0.361918D-01 -0.268058D-01  0.656633D-01 -0.619122D-01 -0.583581D-01
     14   0.147615D-01  0.200591D+00 -0.238212D-01 -0.562560D+00 -0.721455D-05
     15   0.200241D+00 -0.146368D-01  0.562692D+00 -0.237774D-01  0.245568D-04
     16  -0.268474D-01  0.361715D-01  0.618926D-01  0.656876D-01 -0.285928D-05
               596           597           598           599           600 
      1  -0.113451D+03 -0.113451D+03 -0.113433D+03 -0.113430D+03 -0.113411D+03
      2  -0.556331D-05 -0.436771D-05 -0.655703D-04 -0.108008D+00  0.000000D+00
      3  -0.255534D-01 -0.152096D-01  0.540171D-05  0.514939D-05 -0.366984D-02
      4  -0.152150D-01  0.255487D-01  0.118095D-04 -0.102202D-05  0.795259D-01
      5   0.151739D-04  0.121135D-04  0.221994D-03  0.348597D+00 -0.133500D-05
      6   0.686284D-01  0.408197D-01 -0.146509D-04 -0.109856D-04  0.897193D-02
      7   0.408324D-01 -0.686156D-01 -0.297726D-04  0.519040D-05 -0.195962D+00
      8  -0.273541D-05 -0.399129D-05  0.110607D-01  0.365867D-04  0.167803D-05
      9  -0.570294D-01  0.943350D-01  0.116228D-04 -0.326211D-04  0.645466D-01
     10   0.943284D-01  0.570485D-01 -0.916430D-05 -0.148965D-05  0.353147D-02
     11  -0.131270D-03 -0.223149D-03  0.835938D-03 -0.136465D+01  0.270752D-04
     12   0.442994D-01 -0.142106D-01 -0.334032D-03  0.272097D-01  0.830404D-01
     13  -0.442792D-01  0.142374D-01 -0.305952D-03  0.272356D-01 -0.830351D-01
     14   0.141115D+00  0.854510D-01 -0.144233D-04 -0.137568D-04  0.549479D-02
     15   0.854359D-01 -0.141117D+00 -0.314356D-04  0.265602D-04 -0.867190D-01
     16   0.142246D-01  0.442942D-01  0.822906D-05  0.117595D-05 -0.785472D-01
               601           602           603           604           605 
      1  -0.113411D+03 -0.113386D+03 -0.113298D+03 -0.113289D+03 -0.113289D+03
      2  -0.199769D-05 -0.115577D-01 -0.163894D-01 -0.145522D-04  0.532853D-05
      3  -0.795231D-01  0.101336D-05  0.482583D-04 -0.889277D-01 -0.383590D-02
      4  -0.366780D-02 -0.197503D-05 -0.168598D-04  0.383704D-02 -0.889267D-01
      5   0.506172D-05  0.410802D-01  0.120572D+00  0.833662D-04 -0.343665D-04
      6   0.195955D+00 -0.370236D-05 -0.141545D-03  0.263392D+00  0.113677D-01
      7   0.896668D-02  0.589017D-05  0.512962D-04 -0.113710D-01  0.263392D+00
      8   0.757070D-05  0.211893D-04  0.105509D-03 -0.473901D-05  0.339994D-04
      9  -0.353098D-02  0.126039D-04 -0.119396D-03  0.217310D-01 -0.507699D+00
     10   0.645463D-01 -0.120383D-04 -0.307284D-03  0.507710D+00  0.217391D-01
     11  -0.150575D-04  0.500305D+00 -0.965902D+00 -0.437906D-03  0.353729D-03
     12  -0.785474D-01 -0.359343D-01 -0.335856D-01  0.619546D-01  0.778322D-01
     13   0.785469D-01 -0.359468D-01 -0.335471D-01 -0.619963D-01 -0.778115D-01
     14   0.867225D-01 -0.116834D-04 -0.342148D-03  0.607864D+00  0.264295D-01
     15   0.549172D-02 -0.158440D-04  0.135597D-03 -0.264151D-01  0.607819D+00
     16  -0.830413D-01 -0.495336D-05 -0.636531D-04  0.778154D-01 -0.619777D-01
               606           607           608           609           610 
      1  -0.113285D+03 -0.113275D+03 -0.113275D+03 -0.113272D+03 -0.113270D+03
      2   0.344425D-04  0.283988D-04  0.185376D-04 -0.233785D-01 -0.175753D-05
      3   0.000000D+00 -0.985385D-03 -0.873712D-02  0.000000D+00 -0.784712D-02
      4  -0.146557D-03 -0.874689D-02  0.990863D-03 -0.187255D-04 -0.568940D-02
      5  -0.100662D-03 -0.102693D-03 -0.717288D-04  0.895371D-01  0.116080D-04
      6  -0.277414D-05  0.366572D-02  0.328491D-01  0.780759D-05  0.130024D-01
      7   0.432017D-03  0.328722D-01 -0.367855D-02  0.626005D-04  0.955041D-02
      8  -0.225960D-01  0.000000D+00  0.121462D-04  0.249840D-03  0.187011D-05
      9  -0.839516D-03 -0.225598D-01  0.303899D-02 -0.107952D-03 -0.918460D-02
     10  -0.184402D-04  0.304717D-02  0.225938D-01  0.208245D-04  0.120768D-01
     11   0.127253D-02  0.121633D-02  0.644965D-03 -0.118398D+01 -0.361706D-03
     12  -0.240031D-03  0.509526D-02  0.291361D-02 -0.685979D-02 -0.996818D-01
     13  -0.439668D-03 -0.507519D-02 -0.289878D-02 -0.692719D-02  0.996422D-01
     14  -0.129493D-04 -0.152964D-01 -0.137582D+00 -0.123637D-03  0.167663D+00
     15   0.981193D-03 -0.137584D+00  0.152604D-01 -0.664223D-04  0.120792D+00
     16  -0.994782D-04 -0.287837D-02  0.507495D-02  0.245646D-05 -0.241291D-01
               611           612           613           614           615 
      1  -0.113270D+03 -0.113268D+03 -0.113236D+03 -0.113236D+03 -0.113225D+03
      2   0.000000D+00 -0.770056D-04 -0.116910D-05  0.438967D-05 -0.372674D-03
      3   0.568124D-02  0.818534D-05  0.758990D-01 -0.797693D-01  0.614244D-05
      4  -0.784912D-02  0.118200D-05  0.797651D-01  0.759005D-01  0.000000D+00
      5   0.669360D-05  0.265119D-03  0.616494D-05 -0.170909D-04 -0.109356D-03
      6  -0.952661D-02 -0.283930D-04 -0.207756D+00  0.218300D+00 -0.182685D-04
      7   0.130080D-01  0.000000D+00 -0.218288D+00 -0.207759D+00 -0.245682D-05
      8  -0.114871D-04  0.185060D-01 -0.142333D-05  0.231676D-05  0.283146D-04
      9  -0.121261D-01 -0.338916D-04 -0.157800D+00 -0.149266D+00  0.105792D-04
     10  -0.916413D-02 -0.548146D-04  0.149251D+00 -0.157798D+00 -0.292609D-04
     11  -0.171183D-04 -0.527631D-04 -0.815442D-04  0.553833D-04  0.732259D+00
     12  -0.240993D-01 -0.118158D-02  0.309046D-01  0.187520D-02 -0.940519D-01
     13   0.240932D-01 -0.117609D-02 -0.309456D-01 -0.187046D-02 -0.940552D-01
     14  -0.120780D+00  0.300500D-04  0.619002D-01 -0.651997D-01 -0.410449D-04
     15   0.167753D+00 -0.162844D-04  0.651997D-01  0.618919D-01 -0.222278D-04
     16   0.996463D-01 -0.121486D-04  0.187142D-02 -0.309293D-01 -0.415534D-05
               616           617           618           619           620 
      1  -0.113200D+03 -0.113200D+03 -0.113151D+03 -0.113138D+03 -0.113138D+03
      2   0.181575D-05  0.000000D+00  0.773397D-01 -0.621112D-04  0.104163D-03
      3  -0.524787D-01  0.370894D-01 -0.357393D-05  0.689454D-01  0.452689D-01
      4  -0.370935D-01 -0.524781D-01  0.000000D+00 -0.452671D-01  0.689456D-01
      5  -0.525594D-05  0.351974D-05 -0.231647D+00  0.209915D-03 -0.355501D-03
      6   0.154572D+00 -0.109200D+00  0.992878D-05 -0.207652D+00 -0.136350D+00
      7   0.109210D+00  0.154570D+00 -0.226506D-05  0.136343D+00 -0.207650D+00
      8   0.000000D+00 -0.346293D-05  0.786732D-04 -0.401459D-04  0.210429D-04
      9   0.260687D+00  0.367239D+00  0.221469D-04 -0.400056D+00  0.608853D+00
     10  -0.367239D+00  0.260669D+00  0.184752D-04 -0.608872D+00 -0.400038D+00
     11  -0.187061D-04 -0.557366D-04 -0.205664D-01  0.878137D-03 -0.146251D-02
     12  -0.586426D-02 -0.171192D-02  0.913651D-01 -0.442049D-02 -0.355819D-01
     13   0.587382D-02  0.170054D-02  0.913725D-01  0.447850D-02  0.354714D-01
     14  -0.350809D+00  0.248844D+00  0.187585D-04 -0.460700D+00 -0.301480D+00
     15  -0.248860D+00 -0.350809D+00 -0.150337D-04  0.301673D+00 -0.460697D+00
     16  -0.169969D-02  0.589311D-02  0.000000D+00 -0.354143D-01  0.428471D-02
               621           622           623           624           625 
      1  -0.113136D+03 -0.113123D+03 -0.113110D+03 -0.113110D+03 -0.113073D+03
      2  -0.895098D-01  0.195274D-03 -0.538221D-05  0.426265D-05  0.363639D-05
      3   0.544369D-05 -0.386005D-04 -0.567917D-02  0.814689D-03 -0.757538D-03
      4   0.116604D-03  0.178026D-04  0.813295D-03  0.568931D-02 -0.685255D-02
      5   0.306416D+00 -0.673073D-03  0.183967D-04 -0.128644D-04 -0.140813D-04
      6  -0.164923D-04  0.115099D-03  0.282941D-01 -0.413371D-02  0.279841D-02
      7  -0.345913D-03 -0.536514D-04 -0.412863D-02 -0.283238D-01  0.248590D-01
      8  -0.379887D-03 -0.396091D-01 -0.143951D-04 -0.126227D-04  0.636044D-05
      9   0.956058D-03  0.124422D-03  0.279665D-01  0.180565D+00 -0.306368D+00
     10  -0.788774D-04  0.290155D-03  0.180509D+00 -0.279969D-01  0.355232D-01
     11   0.117714D+01 -0.187777D-02  0.105526D-03 -0.535472D-04 -0.546848D-04
     12   0.508862D-01  0.176956D-02 -0.432780D-01  0.686328D-01 -0.932127D-01
     13   0.509661D-01  0.174007D-02  0.432815D-01 -0.686088D-01  0.932710D-01
     14  -0.939773D-04  0.215816D-03  0.290457D+00 -0.442663D-01  0.529998D-01
     15  -0.743118D-03 -0.966360D-04 -0.442223D-01 -0.290481D+00  0.458960D+00
     16   0.351830D-04  0.413767D-04 -0.686130D-01 -0.432640D-01  0.635438D-01
               626           627           628           629           630 
      1  -0.113073D+03 -0.113046D+03 -0.113038D+03 -0.113038D+03 -0.113030D+03
      2  -0.534640D-05 -0.821052D-01  0.420086D-05  0.447782D-05 -0.149930D-05
      3  -0.685709D-02  0.576439D-05  0.775511D-01 -0.485409D-01  0.461686D-02
      4   0.756964D-03  0.975175D-05  0.485378D-01  0.775465D-01 -0.282224D-03
      5   0.196236D-04  0.271808D+00 -0.152665D-04 -0.164470D-04  0.449610D-05
      6   0.248732D-01 -0.183162D-04 -0.208422D+00  0.130480D+00 -0.672148D-02
      7  -0.279747D-02 -0.297946D-04 -0.130475D+00 -0.208409D+00  0.324112D-03
      8  -0.543560D-05 -0.664051D-05  0.111310D-05  0.196206D-05 -0.218727D-05
      9   0.355203D-01  0.772448D-04  0.856908D-01  0.136191D+00  0.202578D-01
     10   0.306395D+00 -0.135739D-04 -0.136241D+00  0.855758D-01  0.252221D+00
     11   0.118127D-03  0.164479D+01 -0.492388D-04 -0.119830D-03 -0.144069D-04
     12  -0.635214D-01 -0.364368D-01  0.407429D-01  0.123250D-01  0.352791D-02
     13   0.635632D-01 -0.364323D-01 -0.407306D-01 -0.123275D-01 -0.354396D-02
     14   0.458976D+00 -0.188129D-04 -0.181771D+00  0.114335D+00  0.362802D+00
     15  -0.529969D-01 -0.561059D-04 -0.114501D+00 -0.181730D+00 -0.287752D-01
     16  -0.932273D-01  0.493763D-05  0.123362D-01 -0.407460D-01  0.414451D-02
               631           632           633           634           635 
      1  -0.113030D+03 -0.112996D+03 -0.112963D+03 -0.112963D+03 -0.112875D+03
      2  -0.266475D-05 -0.384088D-01 -0.395416D-05 -0.152107D-05 -0.299639D-05
      3  -0.322506D-03 -0.184844D-05 -0.581867D-01  0.395403D-01  0.374437D-01
      4  -0.463345D-02  0.340313D-05 -0.395411D-01 -0.581819D-01 -0.602163D-02
      5   0.951726D-05  0.144159D+00  0.134371D-04  0.635167D-05  0.659413D-05
      6   0.432931D-03  0.250626D-05  0.158899D+00 -0.108072D+00 -0.103997D+00
      7   0.676550D-02 -0.140820D-04  0.108074D+00  0.158886D+00  0.166526D-01
      8  -0.132830D-05 -0.159242D-04 -0.244039D-05  0.158783D-05  0.420615D-05
      9   0.252163D+00  0.493538D-04 -0.163559D+00 -0.242296D+00 -0.698583D-01
     10  -0.202095D-01 -0.632534D-04  0.242334D+00 -0.163567D+00 -0.422545D+00
     11   0.378015D-04  0.238123D+00  0.796606D-04  0.173084D-04  0.213924D-04
     12  -0.415130D-02 -0.741503D-01 -0.321649D-01 -0.860081D-02  0.661260D-01
     13   0.416758D-02 -0.741366D-01  0.321647D-01  0.859895D-02 -0.661150D-01
     14  -0.287066D-01 -0.697790D-04  0.946912D-01 -0.630378D-01 -0.292781D+00
     15  -0.362733D+00 -0.448530D-04  0.630288D-01  0.946603D-01  0.483574D-01
     16   0.354345D-02 -0.256329D-05 -0.860561D-02  0.321697D-01  0.107524D+00
               636           637           638           639           640 
      1  -0.112875D+03 -0.112816D+03 -0.112801D+03 -0.112801D+03 -0.112748D+03
      2   0.000000D+00 -0.628777D-01  0.000000D+00  0.256771D-05  0.108027D-01
      3  -0.601859D-02 -0.144372D-05 -0.612088D-01  0.916405D-02  0.000000D+00
      4  -0.374477D-01  0.000000D+00  0.916517D-02  0.612104D-01  0.159468D-05
      5   0.227325D-05  0.162524D+00  0.000000D+00 -0.992006D-05  0.269976D-02
      6   0.166445D-01  0.352005D-05  0.174503D+00 -0.260547D-01  0.000000D+00
      7   0.104009D+00 -0.182968D-05 -0.260578D-01 -0.174507D+00 -0.257140D-05
      8   0.170527D-05 -0.232089D-04 -0.509817D-05 -0.186810D-05 -0.128635D-05
      9  -0.422554D+00  0.336631D-05  0.703702D-01  0.462669D+00 -0.122552D-04
     10   0.698508D-01 -0.818519D-05  0.462665D+00 -0.703607D-01 -0.699543D-05
     11   0.376503D-04 -0.316536D+00 -0.429554D-04 -0.189160D-04 -0.135364D+01
     12  -0.107532D+00 -0.132158D+00 -0.589212D-01  0.936348D-01 -0.698009D-01
     13   0.107517D+00 -0.132144D+00  0.589392D-01 -0.936594D-01 -0.698228D-01
     14   0.483392D-01 -0.152712D-04  0.479378D+00 -0.730219D-01 -0.136729D-04
     15   0.292790D+00  0.000000D+00 -0.730312D-01 -0.479372D+00  0.160956D-04
     16   0.661397D-01 -0.322750D-05 -0.936495D-01 -0.589383D-01  0.000000D+00
               641           642           643           644           645 
      1  -0.112456D+03 -0.112456D+03 -0.112281D+03 -0.112281D+03 -0.112275D+03
      2   0.000000D+00  0.000000D+00  0.535808D-05  0.000000D+00 -0.641903D-01
      3   0.964553D-02 -0.218772D-01 -0.905064D-03 -0.862204D-02  0.114239D-05
      4  -0.218774D-01 -0.964561D-02 -0.862211D-02  0.905107D-03  0.000000D+00
      5   0.387587D-05 -0.123791D-05 -0.209491D-04 -0.282929D-05  0.254143D+00
      6  -0.317559D-01  0.719396D-01  0.307904D-02  0.291012D-01 -0.235570D-05
      7   0.719402D-01  0.317560D-01  0.291013D-01 -0.307952D-02  0.414061D-05
      8   0.000000D+00  0.000000D+00  0.000000D+00  0.000000D+00 -0.202948D-05
      9   0.453021D+00  0.198159D+00 -0.726074D-01  0.786046D-02 -0.161946D-04
     10   0.198160D+00 -0.453022D+00  0.785795D-02  0.726090D-01  0.104972D-04
     11  -0.622728D-05 -0.122974D-04  0.200193D-04 -0.943070D-05 -0.559789D+00
     12   0.539159D-02  0.117392D-01 -0.316379D-01 -0.220645D-01 -0.234671D-01
     13  -0.540293D-02 -0.117372D-01  0.316664D-01  0.220782D-01 -0.234661D-01
     14   0.236762D+00 -0.540610D+00  0.113713D-01  0.111685D+00  0.826380D-05
     15  -0.540608D+00 -0.236762D+00  0.111680D+00 -0.113684D-01  0.212716D-04
     16  -0.117294D-01  0.540131D-02  0.220779D-01 -0.316498D-01  0.174563D-05
               646           647           648 
      1  -0.112227D+03 -0.112033D+03 -0.111958D+03
      2  -0.216732D-01 -0.539514D-01 -0.211461D-01
      3   0.000000D+00  0.140653D-05  0.169757D-05
      4  -0.137996D-05  0.000000D+00 -0.104579D-05
      5   0.668738D-01  0.183857D+00  0.124877D+00
      6   0.429248D-05 -0.528321D-05 -0.257355D-05
      7   0.668306D-05 -0.179346D-05  0.733753D-05
      8   0.793280D-05 -0.115552D-05  0.565699D-05
      9  -0.179133D-04  0.127540D-04 -0.268441D-04
     10   0.178417D-04  0.765903D-05  0.369565D-04
     11   0.104869D+01  0.161211D+00 -0.599535D+00
     12  -0.165397D+00  0.639622D-01  0.280150D-02
     13  -0.165406D+00  0.639567D-01  0.278350D-02
     14   0.131728D-04  0.128962D-04  0.374889D-04
     15   0.201417D-04 -0.190235D-04  0.224853D-04
     16   0.224823D-05 -0.112191D-05 -0.149959D-05
 Unable to Open any file for archive entry.
 1\1\GINC-HEL12\SP\RTPSSTPSS TD-FC\Gen\C3H4\SABYASACHI\21-Mar-2022\0\\#
 P TD(Nstates=10000) tpsstpss/Gen SCF(maxcycles=100) Int(Grid=ultrafine
 )\\xGDB7_00001_tier4.com\\0,1\C,0,1.236673,0.000003,0.000003\C,0,-0.21
 8742,-0.000006,-0.000005\C,0,-1.41578,0.000004,-0.000001\H,0,1.622045,
 0.979039,0.288094\H,0,1.62207,-0.240023,-0.991898\H,0,1.622037,-0.7390
 19,0.703815\H,0,-2.479058,-0.000005,0.000008\\Version=EM64L-G16RevC.01
 \State=1-A\HF=-116.5949807\RMSD=3.053e-09\PG=C01 [X(C3H4)]\\@
 The archive entry for this job was punched.


 I SUPPOSE A BABY LLAMA HAS A MMAMA AND A PPOPA.
     -- RICHARD AMOUR
 Job cpu time:       0 days  0 hours 19 minutes 26.6 seconds.
 Elapsed time:       0 days  0 hours  2 minutes 26.2 seconds.
 File lengths (MBytes):  RWF=    213 Int=      0 D2E=      0 Chk=    132 Scr=      1
 Normal termination of Gaussian 16 at Mon Mar 21 20:15:38 2022.
