 Entering Gaussian System, Link 0=g16
 Input=000004.com
 Output=000004.log
 Initial command:
 /home/sabyasachi/g16/l1.exe "/scratch/sabyasachi/PBS_7976534.helios/Gau-48430.inp" -scrdir="/scratch/sabyasachi/PBS_7976534.helios/"
 Entering Link 1 = /home/sabyasachi/g16/l1.exe PID=     48431.
  
 Copyright (c) 1988-2019, Gaussian, Inc.  All Rights Reserved.
  
 This is part of the Gaussian(R) 16 program.  It is based on
 the Gaussian(R) 09 system (copyright 2009, Gaussian, Inc.),
 the Gaussian(R) 03 system (copyright 2003, Gaussian, Inc.),
 the Gaussian(R) 98 system (copyright 1998, Gaussian, Inc.),
 the Gaussian(R) 94 system (copyright 1995, Gaussian, Inc.),
 the Gaussian 92(TM) system (copyright 1992, Gaussian, Inc.),
 the Gaussian 90(TM) system (copyright 1990, Gaussian, Inc.),
 the Gaussian 88(TM) system (copyright 1988, Gaussian, Inc.),
 the Gaussian 86(TM) system (copyright 1986, Carnegie Mellon
 University), and the Gaussian 82(TM) system (copyright 1983,
 Carnegie Mellon University). Gaussian is a federally registered
 trademark of Gaussian, Inc.
  
 This software contains proprietary and confidential information,
 including trade secrets, belonging to Gaussian, Inc.
  
 This software is provided under written license and may be
 used, copied, transmitted, or stored only in accord with that
 written license.
  
 The following legend is applicable only to US Government
 contracts under FAR:
  
                    RESTRICTED RIGHTS LEGEND
  
 Use, reproduction and disclosure by the US Government is
 subject to restrictions as set forth in subparagraphs (a)
 and (c) of the Commercial Computer Software - Restricted
 Rights clause in FAR 52.227-19.
  
 Gaussian, Inc.
 340 Quinnipiac St., Bldg. 40, Wallingford CT 06492
  
  
 ---------------------------------------------------------------
 Warning -- This program may not be used in any manner that
 competes with the business of Gaussian, Inc. or will provide
 assistance to any competitor of Gaussian, Inc.  The licensee
 of this program is prohibited from giving any competitor of
 Gaussian, Inc. access to this program.  By using this program,
 the user acknowledges that Gaussian, Inc. is engaged in the
 business of creating and licensing software in the field of
 computational chemistry and represents and warrants to the
 licensee that it is not a competitor of Gaussian, Inc. and that
 it will not use this program in any manner prohibited above.
 ---------------------------------------------------------------
  

 Cite this work as:
 Gaussian 16, Revision C.01,
 M. J. Frisch, G. W. Trucks, H. B. Schlegel, G. E. Scuseria, 
 M. A. Robb, J. R. Cheeseman, G. Scalmani, V. Barone, 
 G. A. Petersson, H. Nakatsuji, X. Li, M. Caricato, A. V. Marenich, 
 J. Bloino, B. G. Janesko, R. Gomperts, B. Mennucci, H. P. Hratchian, 
 J. V. Ortiz, A. F. Izmaylov, J. L. Sonnenberg, D. Williams-Young, 
 F. Ding, F. Lipparini, F. Egidi, J. Goings, B. Peng, A. Petrone, 
 T. Henderson, D. Ranasinghe, V. G. Zakrzewski, J. Gao, N. Rega, 
 G. Zheng, W. Liang, M. Hada, M. Ehara, K. Toyota, R. Fukuda, 
 J. Hasegawa, M. Ishida, T. Nakajima, Y. Honda, O. Kitao, H. Nakai, 
 T. Vreven, K. Throssell, J. A. Montgomery, Jr., J. E. Peralta, 
 F. Ogliaro, M. J. Bearpark, J. J. Heyd, E. N. Brothers, K. N. Kudin, 
 V. N. Staroverov, T. A. Keith, R. Kobayashi, J. Normand, 
 K. Raghavachari, A. P. Rendell, J. C. Burant, S. S. Iyengar, 
 J. Tomasi, M. Cossi, J. M. Millam, M. Klene, C. Adamo, R. Cammi, 
 J. W. Ochterski, R. L. Martin, K. Morokuma, O. Farkas, 
 J. B. Foresman, and D. J. Fox, Gaussian, Inc., Wallingford CT, 2019.
 
 ******************************************
 Gaussian 16:  EM64L-G16RevC.01  3-Jul-2019
                21-Mar-2022 
 ******************************************
 %mem=64gb
 %nproc=8
 Will use up to    8 processors via shared memory.
 ----------------------------------------------------------------------
 #P TD(Nstates=10000) tpsstpss/Gen SCF(maxcycles=100) Int(Grid=ultrafin
 e)
 ----------------------------------------------------------------------
 1/38=1,172=1/1;
 2/12=2,17=6,18=5,40=1/2;
 3/5=7,11=9,25=1,30=1,74=2523,75=-5/1,2,3,8;
 4//1;
 5/5=2,7=100,38=5/2;
 8/6=1,10=1,108=10000/1;
 9/41=10000,42=1,70=2/14;
 6/7=2,8=2,9=2,10=2/1;
 99/5=1,9=1/99;
 Leave Link    1 at Mon Mar 21 20:14:47 2022, MaxMem=  8589934592 cpu:               0.4 elap:               0.1
 (Enter /home/sabyasachi/g16/l101.exe)
 ---------------------
 xGDB7_00001_tier4.com
 ---------------------
 Symbolic Z-matrix:
 Charge =  0 Multiplicity = 1
 9                     0.        0.        0.0918 
 1                     0.        0.       -0.82621 
 
 ITRead=  0  0
 MicOpt= -1 -1
 NAtoms=      2 NQM=        2 NQMF=       0 NMMI=      0 NMMIF=      0
                NMic=       0 NMicF=      0.
                    Isotopes and Nuclear Properties:
 (Nuclear quadrupole moments (NQMom) in fm**2, nuclear magnetic moments (NMagM)
  in nuclear magnetons)

  Atom         1           2
 IAtWgt=          19           1
 AtmWgt=  18.9984033   1.0078250
 NucSpn=           1           1
 AtZEff=  -0.0000000  -0.0000000
 NQMom=    0.0000000   0.0000000
 NMagM=    2.6288670   2.7928460
 AtZNuc=   9.0000000   1.0000000
 Leave Link  101 at Mon Mar 21 20:14:47 2022, MaxMem=  8589934592 cpu:               0.6 elap:               0.1
 (Enter /home/sabyasachi/g16/l202.exe)
                          Input orientation:                          
 ---------------------------------------------------------------------
 Center     Atomic      Atomic             Coordinates (Angstroms)
 Number     Number       Type             X           Y           Z
 ---------------------------------------------------------------------
      1          9           0        0.000000    0.000000    0.091801
      2          1           0        0.000000    0.000000   -0.826212
 ---------------------------------------------------------------------
 Stoichiometry    FH
 Framework group  C*V[C*(HF)]
 Deg. of freedom     1
 Full point group                 C*V     NOp   4
 Largest Abelian subgroup         C2V     NOp   4
 Largest concise Abelian subgroup C1      NOp   1
                         Standard orientation:                         
 ---------------------------------------------------------------------
 Center     Atomic      Atomic             Coordinates (Angstroms)
 Number     Number       Type             X           Y           Z
 ---------------------------------------------------------------------
      1          9           0        0.000000    0.000000    0.091801
      2          1           0        0.000000    0.000000   -0.826212
 ---------------------------------------------------------------------
 Rotational constants (GHZ):           0.0000000         626.5886337         626.5886337
 Leave Link  202 at Mon Mar 21 20:14:47 2022, MaxMem=  8589934592 cpu:               0.1 elap:               0.0
 (Enter /home/sabyasachi/g16/l301.exe)
 General basis read from cards:  (5D, 7F)
 Centers:       2
 S 3 1.00
     Exponent=  1.3010701000D+01 Coefficients=  1.9682158000D-02
     Exponent=  1.9622572000D+00 Coefficients=  1.3796524000D-01
     Exponent=  4.4453796000D-01 Coefficients=  4.7831935000D-01
 S 1 1.00
     Exponent=  1.2194962000D-01 Coefficients=  1.0000000000D+00
 P 1 1.00
     Exponent=  8.0000000000D-01 Coefficients=  1.0000000000D+00
 P 1 1.00
     Exponent=  1.1704099050D-01 Coefficients=  1.0000000000D+00
 ****
 Centers:       1
 S 5 1.00
     Exponent=  2.8948325990D+03 Coefficients= -5.3408255515D-03
     Exponent=  4.3541939120D+02 Coefficients= -3.9904258866D-02
     Exponent=  9.8843328866D+01 Coefficients= -1.7912768038D-01
     Exponent=  2.7485198001D+01 Coefficients= -4.6758090825D-01
     Exponent=  8.5405498171D+00 Coefficients= -4.4653131020D-01
 S 1 1.00
     Exponent=  1.0654578038D+00 Coefficients=  1.0000000000D+00
 S 1 1.00
     Exponent=  3.3247346748D-01 Coefficients=  1.0000000000D+00
 S 1 1.00
     Exponent=  9.8097752264D-02 Coefficients=  1.0000000000D+00
 P 3 1.00
     Exponent=  2.2696633924D+01 Coefficients= -4.5212874436D-02
     Exponent=  4.9872339257D+00 Coefficients= -2.3754317067D-01
     Exponent=  1.3491613954D+00 Coefficients= -5.1287353587D-01
 P 1 1.00
     Exponent=  3.4829881977D-01 Coefficients=  1.0000000000D+00
 P 1 1.00
     Exponent=  8.3372148304D-02 Coefficients=  1.0000000000D+00
 D 1 1.00
     Exponent=  1.4000000000D+00 Coefficients=  1.0000000000D+00
 D 1 1.00
     Exponent=  2.2301361948D-01 Coefficients=  1.0000000000D+00
 ****
 Ernie: Thresh=  0.10000D-02 Tol=  0.10000D-05 Strict=F.
 There are    17 symmetry adapted cartesian basis functions of A1  symmetry.
 There are     2 symmetry adapted cartesian basis functions of A2  symmetry.
 There are     7 symmetry adapted cartesian basis functions of B1  symmetry.
 There are     7 symmetry adapted cartesian basis functions of B2  symmetry.
 There are    15 symmetry adapted basis functions of A1  symmetry.
 There are     2 symmetry adapted basis functions of A2  symmetry.
 There are     7 symmetry adapted basis functions of B1  symmetry.
 There are     7 symmetry adapted basis functions of B2  symmetry.
    31 basis functions,    45 primitive gaussians,    33 cartesian basis functions
     5 alpha electrons        5 beta electrons
       nuclear repulsion energy         5.1879384042 Hartrees.
 IExCor= 2523 DFT=T Ex=TPSS Corr=TPSS ExCW=0 ScaHFX=  0.000000
 ScaDFX=  1.000000  1.000000  1.000000  1.000000 ScalE2=  1.000000  1.000000
 IRadAn=      5 IRanWt=     -1 IRanGd=            0 ICorTp=0 IEmpDi=  4
 NAtoms=    2 NActive=    2 NUniq=    2 SFac= 1.00D+00 NAtFMM=   60 NAOKFM=F Big=F
 Integral buffers will be    131072 words long.
 Regular integral format.
 Two-electron integral symmetry is turned on.
 Leave Link  301 at Mon Mar 21 20:14:47 2022, MaxMem=  8589934592 cpu:               0.5 elap:               0.1
 (Enter /home/sabyasachi/g16/l302.exe)
 NPDir=0 NMtPBC=     1 NCelOv=     1 NCel=       1 NClECP=     1 NCelD=      1
         NCelK=      1 NCelE2=     1 NClLst=     1 CellRange=     0.0.
 One-electron integrals computed using PRISM.
 One-electron integral symmetry used in STVInt
 NBasis=    31 RedAO= T EigKep=  3.31D-03  NBF=    15     2     7     7
 NBsUse=    31 1.00D-06 EigRej= -1.00D+00 NBFU=    15     2     7     7
 Precomputing XC quadrature grid using
 IXCGrd= 4 IRadAn=           5 IRanWt=          -1 IRanGd=           0 AccXCQ= 0.00D+00.
 Generated NRdTot=       0 NPtTot=           0 NUsed=           0 NTot=          32
 NSgBfM=    33    33    33    33    33 MxSgAt=     2 MxSgA2=     2.
 Leave Link  302 at Mon Mar 21 20:14:47 2022, MaxMem=  8589934592 cpu:               0.8 elap:               0.1
 (Enter /home/sabyasachi/g16/l303.exe)
 DipDrv:  MaxL=1.
 Leave Link  303 at Mon Mar 21 20:14:48 2022, MaxMem=  8589934592 cpu:               0.2 elap:               0.0
 (Enter /home/sabyasachi/g16/l308.exe)
 Leave Link  308 at Mon Mar 21 20:14:48 2022, MaxMem=  8589934592 cpu:               0.2 elap:               0.0
 (Enter /home/sabyasachi/g16/l401.exe)
 ExpMin= 8.34D-02 ExpMax= 2.89D+03 ExpMxC= 4.35D+02 IAcc=3 IRadAn=         5 AccDes= 0.00D+00
 Harris functional with IExCor= 1009 and IRadAn=       5 diagonalized for initial guess.
 HarFok:  IExCor= 1009 AccDes= 0.00D+00 IRadAn=         5 IDoV= 1 UseB2=F ITyADJ=14
 ICtDFT=  3500011 ScaDFX=  1.000000  1.000000  1.000000  1.000000
 FoFCou: FMM=F IPFlag=           0 FMFlag=      100000 FMFlg1=           0
         NFxFlg=           0 DoJE=T BraDBF=F KetDBF=T FulRan=T
         wScrn=  0.000000 ICntrl=       500 IOpCl=  0 I1Cent=   200000004 NGrid=           0
         NMat0=    1 NMatS0=      1 NMatT0=    0 NMatD0=    1 NMtDS0=    0 NMtDT0=    0
 Petite list used in FoFCou.
 Harris En= -100.289747365988    
 JPrj=0 DoOrth=F DoCkMO=F.
 Initial guess orbital symmetries:
       Occupied  (SG) (SG) (SG) (PI) (PI)
       Virtual   (SG) (SG) (PI) (PI) (SG) (PI) (PI) (SG) (DLTA)
                 (DLTA) (SG) (PI) (PI) (SG) (PI) (PI) (SG) (PI)
                 (PI) (SG) (SG) (DLTA) (DLTA) (PI) (PI) (SG)
 The electronic state of the initial guess is 1-SG.
 Leave Link  401 at Mon Mar 21 20:14:48 2022, MaxMem=  8589934592 cpu:               1.1 elap:               0.2
 (Enter /home/sabyasachi/g16/l502.exe)
 Keep J ints in memory in symmetry-blocked form, NReq=7042552.
 FoFCou: FMM=F IPFlag=           0 FMFlag=           0 FMFlg1=           0
         NFxFlg=           0 DoJE=F BraDBF=F KetDBF=F FulRan=T
         wScrn=  0.000000 ICntrl=       600 IOpCl=  0 I1Cent=           0 NGrid=           0
         NMat0=    1 NMatS0=    496 NMatT0=    0 NMatD0=    1 NMtDS0=    0 NMtDT0=    0
 Petite list used in FoFCou.
 Closed shell SCF:
 Using DIIS extrapolation, IDIIS=  1040.
 NGot=  8589934592 LenX=  8589895776 LenY=  8589894246
 Requested convergence on RMS density matrix=1.00D-08 within 100 cycles.
 Requested convergence on MAX density matrix=1.00D-06.
 Requested convergence on             energy=1.00D-06.
 No special actions if energy rises.
 Integral accuracy reduced to 1.0D-05 until final iterations.

 Cycle   1  Pass 0  IDiag  1:
 E= -100.357929741898    
 DIIS: error= 2.50D-02 at cycle   1 NSaved=   1.
 NSaved= 1 IEnMin= 1 EnMin= -100.357929741898     IErMin= 1 ErrMin= 2.50D-02
 ErrMax= 2.50D-02  0.00D+00 EMaxC= 1.00D-01 BMatC= 2.70D-02 BMatP= 2.70D-02
 IDIUse=3 WtCom= 7.50D-01 WtEn= 2.50D-01
 Coeff-Com:  0.100D+01
 Coeff-En:   0.100D+01
 Coeff:      0.100D+01
 Gap=     0.266 Goal=   None    Shift=    0.000
 GapD=    0.266 DampG=1.000 DampE=0.500 DampFc=0.5000 IDamp=-1.
 Damping current iteration by 5.00D-01
 RMSDP=8.11D-03 MaxDP=9.38D-02              OVMax= 1.26D-01

 Cycle   2  Pass 0  IDiag  1:
 E= -100.359860613978     Delta-E=       -0.001930872079 Rises=F Damp=T
 DIIS: error= 1.23D-02 at cycle   2 NSaved=   2.
 NSaved= 2 IEnMin= 2 EnMin= -100.359860613978     IErMin= 2 ErrMin= 1.23D-02
 ErrMax= 1.23D-02  0.00D+00 EMaxC= 1.00D-01 BMatC= 6.10D-03 BMatP= 2.70D-02
 IDIUse=3 WtCom= 8.77D-01 WtEn= 1.23D-01
 Coeff-Com:  0.312D+00 0.688D+00
 Coeff-En:   0.461D+00 0.539D+00
 Coeff:      0.331D+00 0.669D+00
 Gap=     0.348 Goal=   None    Shift=    0.000
 RMSDP=1.31D-03 MaxDP=1.31D-02 DE=-1.93D-03 OVMax= 7.22D-02

 Cycle   3  Pass 0  IDiag  1:
 E= -100.377484093040     Delta-E=       -0.017623479063 Rises=F Damp=F
 DIIS: error= 1.62D-03 at cycle   3 NSaved=   3.
 NSaved= 3 IEnMin= 3 EnMin= -100.377484093040     IErMin= 3 ErrMin= 1.62D-03
 ErrMax= 1.62D-03  0.00D+00 EMaxC= 1.00D-01 BMatC= 1.03D-04 BMatP= 6.10D-03
 IDIUse=3 WtCom= 9.84D-01 WtEn= 1.62D-02
 Coeff-Com:  0.714D-01 0.623D-01 0.866D+00
 Coeff-En:   0.000D+00 0.000D+00 0.100D+01
 Coeff:      0.702D-01 0.613D-01 0.868D+00
 Gap=     0.354 Goal=   None    Shift=    0.000
 RMSDP=2.49D-04 MaxDP=3.80D-03 DE=-1.76D-02 OVMax= 4.04D-03

 Cycle   4  Pass 0  IDiag  1:
 E= -100.377558517031     Delta-E=       -0.000074423991 Rises=F Damp=F
 DIIS: error= 3.09D-04 at cycle   4 NSaved=   4.
 NSaved= 4 IEnMin= 4 EnMin= -100.377558517031     IErMin= 4 ErrMin= 3.09D-04
 ErrMax= 3.09D-04  0.00D+00 EMaxC= 1.00D-01 BMatC= 4.15D-06 BMatP= 1.03D-04
 IDIUse=3 WtCom= 9.97D-01 WtEn= 3.09D-03
 Coeff-Com:  0.104D-01-0.880D-02 0.240D+00 0.759D+00
 Coeff-En:   0.000D+00 0.000D+00 0.000D+00 0.100D+01
 Coeff:      0.104D-01-0.877D-02 0.239D+00 0.760D+00
 Gap=     0.354 Goal=   None    Shift=    0.000
 RMSDP=3.77D-05 MaxDP=2.76D-04 DE=-7.44D-05 OVMax= 4.26D-04

 Cycle   5  Pass 0  IDiag  1:
 E= -100.377561140256     Delta-E=       -0.000002623225 Rises=F Damp=F
 DIIS: error= 2.60D-05 at cycle   5 NSaved=   5.
 NSaved= 5 IEnMin= 5 EnMin= -100.377561140256     IErMin= 5 ErrMin= 2.60D-05
 ErrMax= 2.60D-05  0.00D+00 EMaxC= 1.00D-01 BMatC= 2.75D-08 BMatP= 4.15D-06
 IDIUse=1 WtCom= 1.00D+00 WtEn= 0.00D+00
 Coeff-Com:  0.133D-02-0.230D-02 0.257D-01 0.808D-01 0.894D+00
 Coeff:      0.133D-02-0.230D-02 0.257D-01 0.808D-01 0.894D+00
 Gap=     0.354 Goal=   None    Shift=    0.000
 RMSDP=3.91D-06 MaxDP=3.04D-05 DE=-2.62D-06 OVMax= 3.61D-05

 Initial convergence to 1.0D-05 achieved.  Increase integral accuracy.
 Cycle   6  Pass 1  IDiag  1:
 E= -100.377558139185     Delta-E=        0.000003001072 Rises=F Damp=F
 DIIS: error= 3.83D-06 at cycle   1 NSaved=   1.
 NSaved= 1 IEnMin= 1 EnMin= -100.377558139185     IErMin= 1 ErrMin= 3.83D-06
 ErrMax= 3.83D-06  0.00D+00 EMaxC= 1.00D-01 BMatC= 5.72D-10 BMatP= 5.72D-10
 IDIUse=1 WtCom= 1.00D+00 WtEn= 0.00D+00
 Coeff-Com:  0.100D+01
 Coeff:      0.100D+01
 Gap=     0.354 Goal=   None    Shift=    0.000
 RMSDP=3.91D-06 MaxDP=3.04D-05 DE= 3.00D-06 OVMax= 1.59D-05

 Cycle   7  Pass 1  IDiag  1:
 E= -100.377558138449     Delta-E=        0.000000000735 Rises=F Damp=F
 DIIS: error= 6.55D-06 at cycle   2 NSaved=   2.
 NSaved= 2 IEnMin= 1 EnMin= -100.377558139185     IErMin= 1 ErrMin= 3.83D-06
 ErrMax= 6.55D-06  0.00D+00 EMaxC= 1.00D-01 BMatC= 1.75D-09 BMatP= 5.72D-10
 IDIUse=1 WtCom= 1.00D+00 WtEn= 0.00D+00
 Coeff-Com:  0.638D+00 0.362D+00
 Coeff:      0.638D+00 0.362D+00
 Gap=     0.354 Goal=   None    Shift=    0.000
 RMSDP=7.01D-07 MaxDP=7.95D-06 DE= 7.35D-10 OVMax= 9.82D-06

 Cycle   8  Pass 1  IDiag  1:
 E= -100.377558139577     Delta-E=       -0.000000001127 Rises=F Damp=F
 DIIS: error= 1.31D-07 at cycle   3 NSaved=   3.
 NSaved= 3 IEnMin= 3 EnMin= -100.377558139577     IErMin= 3 ErrMin= 1.31D-07
 ErrMax= 1.31D-07  0.00D+00 EMaxC= 1.00D-01 BMatC= 7.28D-13 BMatP= 5.72D-10
 IDIUse=1 WtCom= 1.00D+00 WtEn= 0.00D+00
 Coeff-Com:  0.708D-01 0.396D-01 0.890D+00
 Coeff:      0.708D-01 0.396D-01 0.890D+00
 Gap=     0.354 Goal=   None    Shift=    0.000
 RMSDP=2.45D-08 MaxDP=2.66D-07 DE=-1.13D-09 OVMax= 3.61D-07

 Cycle   9  Pass 1  IDiag  1:
 E= -100.377558139577     Delta-E=       -0.000000000000 Rises=F Damp=F
 DIIS: error= 4.76D-08 at cycle   4 NSaved=   4.
 NSaved= 4 IEnMin= 4 EnMin= -100.377558139577     IErMin= 4 ErrMin= 4.76D-08
 ErrMax= 4.76D-08  0.00D+00 EMaxC= 1.00D-01 BMatC= 8.53D-14 BMatP= 7.28D-13
 IDIUse=1 WtCom= 1.00D+00 WtEn= 0.00D+00
 Coeff-Com: -0.416D-02-0.216D-02 0.244D+00 0.762D+00
 Coeff:     -0.416D-02-0.216D-02 0.244D+00 0.762D+00
 Gap=     0.354 Goal=   None    Shift=    0.000
 RMSDP=5.79D-09 MaxDP=6.39D-08 DE=-3.98D-13 OVMax= 6.92D-08

 SCF Done:  E(RTPSS-TPSS) =  -100.377558140     A.U. after    9 cycles
            NFock=  9  Conv=0.58D-08     -V/T= 2.0060
 KE= 9.978108910964D+01 PE=-2.500019730005D+02 EE= 4.465538734709D+01
 Leave Link  502 at Mon Mar 21 20:14:48 2022, MaxMem=  8589934592 cpu:               1.7 elap:               0.2
 (Enter /home/sabyasachi/g16/l801.exe)
 DoSCS=F DFT=T ScalE2(SS,OS)=  1.000000  1.000000
 ExpMin= 8.34D-02 ExpMax= 2.89D+03 ExpMxC= 4.35D+02 IAcc=3 IRadAn=         5 AccDes= 0.00D+00
 HarFok:  IExCor=  205 AccDes= 0.00D+00 IRadAn=         5 IDoV=-2 UseB2=F ITyADJ=14
 ICtDFT= 12500011 ScaDFX=  1.000000  1.000000  1.000000  1.000000
 Largest valence mixing into a core orbital is  3.28D-05
 Largest core mixing into a valence orbital is  1.18D-05
 Range of M.O.s used for correlation:     2    31
 NBasis=    31 NAE=     5 NBE=     5 NFC=     1 NFV=     0
 NROrb=     30 NOA=     4 NOB=     4 NVA=    26 NVB=    26
 Leave Link  801 at Mon Mar 21 20:14:48 2022, MaxMem=  8589934592 cpu:               0.3 elap:               0.1
 (Enter /home/sabyasachi/g16/l914.exe)
 RHF ground state
 Keep J ints in memory in symmetry-blocked form, NReq=24008196.
 FoFCou: FMM=F IPFlag=           0 FMFlag=           0 FMFlg1=           0
         NFxFlg=           0 DoJE=F BraDBF=F KetDBF=F FulRan=T
         wScrn=  0.000000 ICntrl=       600 IOpCl=  0 I1Cent=           0 NGrid=           0
         NMat0=    1 NMatS0=    496 NMatT0=    0 NMatD0=    1 NMtDS0=    0 NMtDT0=    0
 Petite list used in FoFCou.
 MDV=  8589934592 DFT=T DoStab=F Mixed=F DoRPA=T DoScal=T NonHer=F
 Making orbital integer symmetry assigments:
 Orbital symmetries:
       Occupied  (SG) (SG) (SG) (PI) (PI)
       Virtual   (SG) (SG) (PI) (PI) (SG) (PI) (PI) (SG) (DLTA)
                 (DLTA) (SG) (PI) (PI) (SG) (PI) (PI) (SG) (PI)
                 (PI) (SG) (SG) (DLTA) (DLTA) (PI) (PI) (SG)
   104 initial guesses have been made.
 Convergence on wavefunction:    0.001000000000000
 Davidson Disk Diagonalization:  ConvIn= 1.00D-03 SkipCon=T Conv= 1.00D-03.
 Max sub-space:   416 roots to seek:   208 dimension of matrix:          208
 *** WARNING: Number of orthogonal guesses is          104
 Iteration     1 Dimension   104 NMult     0 NNew    104
 CISAX will form   104 AO SS matrices at one time.
 NMat=   104 NSing=   104 JSym2X=-1.
 New state      3 was old state      7
 New state      4 was old state      6
 New state      6 was old state      4
 New state      7 was old state      3
 New state      8 was old state      9
 New state      9 was old state      8
 New state     12 was old state     13
 New state     13 was old state     12
 New state     14 was old state     15
 New state     15 was old state     14
 New state     16 was old state     18
 New state     18 was old state     16
 New state     21 was old state     22
 New state     22 was old state     23
 New state     23 was old state     21
 New state     25 was old state     26
 New state     26 was old state     25
 New state     27 was old state     28
 New state     28 was old state     27
 New state     34 was old state     35
 New state     35 was old state     36
 New state     36 was old state     34
 New state     47 was old state     48
 New state     48 was old state     47
 New state     54 was old state     56
 New state     56 was old state     57
 New state     57 was old state     59
 New state     59 was old state     60
 New state     60 was old state     61
 New state     61 was old state     63
 New state     63 was old state     64
 New state     64 was old state     65
 New state     65 was old state     67
 New state     67 was old state     68
 New state     68 was old state     69
 New state     69 was old state     76
 New state     76 was old state     77
 New state     77 was old state     80
 New state     80 was old state     83
 New state     83 was old state     54
 New state     85 was old state     86
 New state     86 was old state     85
 New state     87 was old state     89
 New state     88 was old state     90
 New state     89 was old state     87
 New state     90 was old state     88
 New state     93 was old state     94
 New state     94 was old state     93
 Excitation Energies [eV] at current iteration:
 Root      1 :     9.735146117967822
 Root      2 :     9.735146117967940
 Root      3 :    13.617100285893530
 Root      4 :    13.617101479595370
 Root      5 :    13.652525411357180
 Root      6 :    13.652525411357180
 Root      7 :    13.660656264977030
 Root      8 :    13.699082669340760
 Root      9 :    15.202542477952520
 Root     10 :    15.559403944157560
 Root     11 :    15.559403944157570
 Root     12 :    16.222725134679000
 Root     13 :    16.222725181458710
 Root     14 :    16.361760720130900
 Root     15 :    16.470306851313740
 Root     16 :    17.522287063508550
 Root     17 :    17.522287063508600
 Root     18 :    17.879958157732630
 Root     19 :    18.746092327239340
 Root     20 :    18.746092327239350
 Root     21 :    20.113860549037150
 Root     22 :    20.113860549037190
 Root     23 :    20.335766853684380
 Root     24 :    23.282976214293780
 Root     25 :    24.183415675982500
 Root     26 :    24.183415675982520
 Root     27 :    25.549033192737030
 Root     28 :    25.549033192737080
 Root     29 :    26.848160389869670
 Root     30 :    26.848160389869680
 Root     31 :    28.331168403873990
 Root     32 :    28.331168407426070
 Root     33 :    28.940738272246720
 Root     34 :    28.940738297176570
 Root     35 :    29.220973412316670
 Root     36 :    29.326328122300570
 Root     37 :    30.760367124102110
 Root     38 :    32.164790930900370
 Root     39 :    33.228719529784870
 Root     40 :    33.228719529784950
 Root     41 :    34.282812911702020
 Root     42 :    34.500593048980380
 Root     43 :    34.500593048980390
 Root     44 :    36.263412829620840
 Root     45 :    36.801683126538850
 Root     46 :    36.801683126538960
 Root     47 :    37.302736905571160
 Root     48 :    37.302736905571170
 Root     49 :    39.736437097189870
 Root     50 :    41.422560629289410
 Root     51 :    44.399377190974810
 Root     52 :    44.399387625038310
 Root     53 :    45.033641545497940
 Root     54 :    45.339137343883530
 Root     55 :    45.339137943423260
 Root     56 :    47.466224286689120
 Root     57 :    48.704997571373870
 Root     58 :    48.704997571373890
 Root     59 :    49.783601704383690
 Root     60 :    49.783601704383710
 Root     61 :    50.218952619553660
 Root     62 :    50.218952619553730
 Root     63 :    51.036926195395440
 Root     64 :    57.453050361733530
 Root     65 :    58.634586753493500
 Root     66 :    58.634587634572170
 Root     67 :    59.087646878526850
 Root     68 :    59.155201476783180
 Root     69 :    60.067882166782010
 Root     70 :    61.711094672771190
 Root     71 :    61.711094672771190
 Root     72 :    63.056289595862410
 Root     73 :    63.056289595862440
 Root     74 :    66.019136883347910
 Root     75 :    66.019136883348010
 Root     76 :    66.546995959411010
 Root     77 :    72.983325726653550
 Root     78 :    73.154360000157480
 Root     79 :    73.154360000157540
 Root     80 :    77.543180333044650
 Root     81 :    79.474706768237170
 Root     82 :    79.474706768237200
 Root     83 :    85.028467422152230
 Root     84 :    94.322364998960960
 Root     85 :    97.219495549273900
 Root     86 :    97.219495549273940
 Root     87 :   101.673282427205300
 Root     88 :   101.673283428742000
 Root     89 :   102.377794184832800
 Root     90 :   102.377794184832800
 Root     91 :   102.762504160798900
 Root     92 :   102.762507028372500
 Root     93 :   103.246412565233300
 Root     94 :   108.383448130841000
 Root     95 :   111.126432840256000
 Root     96 :   111.126432840256200
 Root     97 :   120.223065240333800
 Root     98 :   120.223073655673000
 Root     99 :   124.903196901604100
 Root    100 :   124.903196901604200
 Root    101 :   129.196234016025700
 Root    102 :   129.196234016025800
 Root    103 :   133.829836040717200
 Root    104 :   149.492835598344800
 Vector   8 has DEMin= 4.44D-16 removing all elements with DE> 1.00D-12.
 Vector  14 has DEMin= 1.55D-15 removing all elements with DE> 1.00D-12.
 Vector  35 has DEMin= 6.66D-16 removing all elements with DE> 1.00D-12.
 Vector  53 has DEMin= 1.11D-15 removing all elements with DE> 1.00D-12.
 Vector  68 has DEMin= 8.88D-16 removing all elements with DE> 1.00D-12.
 Vector  93 has DEMin= 1.78D-15 removing all elements with DE> 1.00D-12.
 Convergence achieved for final wavefunctions.
 ***********************************************************************
 Excited states from <AA,BB:AA,BB> singles matrix:
 ***********************************************************************
 
 1PDM for each excited state written to RWF  633
 Ground to excited state transition densities written to RWF  633
 Ground to excited state transition electric dipole moments (Au):
       state          X           Y           Z        Dip. S.      Osc.
         1         0.3030      0.2195     -0.0000      0.1400      0.0334
         2        -0.2195      0.3030     -0.0000      0.1400      0.0334
         3        -0.0000     -0.0000     -0.0000      0.0000      0.0000
         4        -0.0000     -0.0000     -0.0000      0.0000      0.0000
         5        -0.1453      0.2030     -0.0000      0.0623      0.0208
         6         0.2030      0.1453     -0.0000      0.0623      0.0208
         7        -0.0000     -0.0000      0.6359      0.4044      0.1353
         8        -0.0000     -0.0000     -0.0000      0.0000      0.0000
         9        -0.0000     -0.0000     -0.1689      0.0285      0.0106
        10        -0.4206      0.1586     -0.0000      0.2021      0.0770
        11        -0.1586     -0.4206     -0.0000      0.2021      0.0770
        12        -0.0000     -0.0000     -0.0000      0.0000      0.0000
        13        -0.0000     -0.0000     -0.0000      0.0000      0.0000
        14        -0.0000     -0.0000     -0.0000      0.0000      0.0000
        15        -0.0000     -0.0000     -0.6938      0.4814      0.1942
        16        -0.0253     -0.0035     -0.0000      0.0007      0.0003
        17         0.0035     -0.0253     -0.0000      0.0007      0.0003
        18        -0.0000     -0.0000      0.3322      0.1104      0.0483
        19         0.2130     -0.0272     -0.0000      0.0461      0.0212
        20         0.0272      0.2130     -0.0000      0.0461      0.0212
        21         0.1719     -0.3402     -0.0000      0.1453      0.0716
        22        -0.3402     -0.1719     -0.0000      0.1453      0.0716
        23        -0.0000     -0.0000      0.4356      0.1898      0.0946
        24        -0.0000     -0.0000      0.3856      0.1487      0.0848
        25         0.0000     -0.0000     -0.0000      0.0000      0.0000
        26         0.0000      0.0000     -0.0000      0.0000      0.0000
        27        -0.4630      0.7083     -0.0000      0.7161      0.4482
        28         0.7083      0.4630     -0.0000      0.7161      0.4482
        29         0.3866     -0.2829     -0.0000      0.2295      0.1509
        30         0.2829      0.3866     -0.0000      0.2295      0.1509
        31        -0.0000     -0.0000     -0.0000      0.0000      0.0000
        32        -0.0000     -0.0000      0.0000      0.0000      0.0000
        33        -0.0000     -0.0000     -0.0000      0.0000      0.0000
        34        -0.0000     -0.0000     -0.0000      0.0000      0.0000
        35        -0.0000     -0.0000     -0.0000      0.0000      0.0000
        36        -0.0000     -0.0000      0.4527      0.2049      0.1472
        37        -0.0000     -0.0000      0.3705      0.1373      0.1035
        38        -0.0000     -0.0000     -0.8258      0.6820      0.5374
        39        -0.3168      0.5210     -0.0000      0.3718      0.3027
        40         0.5210      0.3168     -0.0000      0.3718      0.3027
        41        -0.0000     -0.0000      0.1011      0.0102      0.0086
        42        -0.0062      0.0819     -0.0000      0.0068      0.0057
        43         0.0819      0.0062     -0.0000      0.0068      0.0057
        44        -0.0000     -0.0000      0.0989      0.0098      0.0087
        45         0.0276     -0.0497     -0.0000      0.0032      0.0029
        46        -0.0497     -0.0276     -0.0000      0.0032      0.0029
        47        -0.0130     -0.0787     -0.0000      0.0064      0.0058
        48        -0.0787      0.0130     -0.0000      0.0064      0.0058
        49        -0.0000     -0.0000      0.1427      0.0204      0.0198
        50        -0.0000     -0.0000     -0.0450      0.0020      0.0021
        51        -0.0000     -0.0000     -0.0000      0.0000      0.0000
        52        -0.0000     -0.0000     -0.0000      0.0000      0.0000
        53        -0.0000     -0.0000     -0.0000      0.0000      0.0000
        54        -0.0000     -0.0000      0.0000      0.0000      0.0000
        55        -0.0000     -0.0000     -0.0000      0.0000      0.0000
        56        -0.0000     -0.0000     -0.0122      0.0001      0.0002
        57         0.0134      0.0150     -0.0000      0.0004      0.0005
        58         0.0150     -0.0134     -0.0000      0.0004      0.0005
        59        -0.0068      0.0164     -0.0000      0.0003      0.0004
        60         0.0164      0.0068     -0.0000      0.0003      0.0004
        61        -0.1179      0.1602     -0.0000      0.0396      0.0487
        62         0.1602      0.1179     -0.0000      0.0396      0.0487
        63        -0.0000     -0.0000      0.2512      0.0631      0.0789
        64        -0.0000     -0.0000     -0.1065      0.0113      0.0160
        65        -0.0000     -0.0000     -0.0000      0.0000      0.0000
        66        -0.0000     -0.0000     -0.0000      0.0000      0.0000
        67        -0.0000     -0.0000     -0.2867      0.0822      0.1190
        68        -0.0000     -0.0000     -0.0000      0.0000      0.0000
        69        -0.0000     -0.0000     -0.1453      0.0211      0.0310
        70         0.0094     -0.0022     -0.0000      0.0001      0.0001
        71         0.0022      0.0094     -0.0000      0.0001      0.0001
        72         0.2035     -0.2545     -0.0000      0.1062      0.1640
        73        -0.2545     -0.2035     -0.0000      0.1062      0.1640
        74        -0.3233     -0.1571     -0.0000      0.1292      0.2090
        75         0.1571     -0.3233     -0.0000      0.1292      0.2090
        76        -0.0000     -0.0000      0.1088      0.0118      0.0193
        77        -0.0000     -0.0000     -0.2108      0.0444      0.0795
        78        -0.0889      0.0582     -0.0000      0.0113      0.0202
        79        -0.0582     -0.0889     -0.0000      0.0113      0.0202
        80        -0.0000     -0.0000      0.0987      0.0097      0.0185
        81        -0.0203     -0.0273     -0.0000      0.0012      0.0023
        82        -0.0273      0.0203     -0.0000      0.0012      0.0023
        83        -0.0000     -0.0000     -0.1351      0.0183      0.0380
        84        -0.0000     -0.0000      0.0951      0.0090      0.0209
        85         0.0000     -0.0000     -0.0000      0.0000      0.0000
        86         0.0000      0.0000     -0.0000      0.0000      0.0000
        87        -0.0000     -0.0000     -0.0000      0.0000      0.0000
        88        -0.0000     -0.0000     -0.0000      0.0000      0.0000
        89         0.2763      0.1561     -0.0000      0.1007      0.2526
        90         0.1561     -0.2763     -0.0000      0.1007      0.2526
        91        -0.0000     -0.0000     -0.0000      0.0000      0.0000
        92        -0.0000     -0.0000      0.0000      0.0000      0.0000
        93        -0.0000     -0.0000     -0.0000      0.0000      0.0000
        94        -0.0000     -0.0000      0.4592      0.2109      0.5600
        95        -0.0535      0.5008     -0.0000      0.2537      0.6907
        96         0.5008      0.0535     -0.0000      0.2537      0.6907
        97        -0.0000     -0.0000     -0.0000      0.0000      0.0000
        98        -0.0000     -0.0000      0.0000      0.0000      0.0000
        99         0.0132      0.0553     -0.0000      0.0032      0.0099
       100         0.0553     -0.0132     -0.0000      0.0032      0.0099
       101        -0.1790     -0.0621     -0.0000      0.0359      0.1136
       102         0.0621     -0.1790     -0.0000      0.0359      0.1136
       103        -0.0000     -0.0000      0.2728      0.0744      0.2440
       104        -0.0000     -0.0000     -0.0094      0.0001      0.0003
 Ground to excited state transition velocity dipole moments (Au):
       state          X           Y           Z        Dip. S.      Osc.
         1        -0.1059     -0.0767      0.0000      0.0171      0.0319
         2         0.0767     -0.1059      0.0000      0.0171      0.0319
         3         0.0000      0.0000      0.0000      0.0000      0.0000
         4         0.0000      0.0000      0.0000      0.0000      0.0000
         5         0.0746     -0.1042      0.0000      0.0164      0.0218
         6        -0.1042     -0.0746      0.0000      0.0164      0.0218
         7         0.0000      0.0000     -0.3158      0.0997      0.1324
         8         0.0000      0.0000      0.0000      0.0000      0.0000
         9         0.0000      0.0000      0.0948      0.0090      0.0107
        10         0.2261     -0.0853      0.0000      0.0584      0.0681
        11         0.0853      0.2261      0.0000      0.0584      0.0681
        12         0.0000      0.0000      0.0000      0.0000      0.0000
        13         0.0000      0.0000      0.0000      0.0000      0.0000
        14         0.0000      0.0000      0.0000      0.0000      0.0000
        15         0.0000      0.0000      0.3952      0.1562      0.1721
        16         0.0212      0.0029      0.0000      0.0005      0.0005
        17        -0.0029      0.0212      0.0000      0.0005      0.0005
        18         0.0000      0.0000     -0.2077      0.0431      0.0438
        19        -0.1517      0.0194      0.0000      0.0234      0.0226
        20        -0.0194     -0.1517      0.0000      0.0234      0.0226
        21        -0.1284      0.2541      0.0000      0.0810      0.0731
        22         0.2541      0.1284      0.0000      0.0810      0.0731
        23         0.0000      0.0000     -0.3023      0.0914      0.0815
        24         0.0000      0.0000     -0.3346      0.1119      0.0872
        25        -0.0000      0.0000      0.0000      0.0000      0.0000
        26        -0.0000     -0.0000      0.0000      0.0000      0.0000
        27         0.4278     -0.6546      0.0000      0.6115      0.4342
        28        -0.6546     -0.4278      0.0000      0.6115      0.4342
        29        -0.3821      0.2796      0.0000      0.2242      0.1515
        30        -0.2796     -0.3821      0.0000      0.2242      0.1515
        31         0.0000      0.0000      0.0000      0.0000      0.0000
        32         0.0000      0.0000     -0.0000      0.0000      0.0000
        33         0.0000      0.0000      0.0000      0.0000      0.0000
        34         0.0000      0.0000      0.0000      0.0000      0.0000
        35         0.0000      0.0000      0.0000      0.0000      0.0000
        36         0.0000      0.0000     -0.5274      0.2782      0.1721
        37         0.0000      0.0000     -0.4057      0.1646      0.0971
        38         0.0000      0.0000      0.9804      0.9612      0.5421
        39         0.3902     -0.6419      0.0000      0.5643      0.3081
        40        -0.6419     -0.3902      0.0000      0.5643      0.3081
        41         0.0000      0.0000     -0.1224      0.0150      0.0079
        42         0.0099     -0.1303      0.0000      0.0171      0.0090
        43        -0.1303     -0.0099      0.0000      0.0171      0.0090
        44         0.0000      0.0000     -0.0943      0.0089      0.0044
        45        -0.0422      0.0760      0.0000      0.0076      0.0037
        46         0.0760      0.0422      0.0000      0.0076      0.0037
        47         0.0167      0.1007      0.0000      0.0104      0.0051
        48         0.1007     -0.0167      0.0000      0.0104      0.0051
        49         0.0000      0.0000     -0.2016      0.0407      0.0186
        50         0.0000      0.0000      0.0492      0.0024      0.0011
        51         0.0000      0.0000      0.0000      0.0000      0.0000
        52         0.0000      0.0000      0.0000      0.0000      0.0000
        53         0.0000      0.0000      0.0000      0.0000      0.0000
        54         0.0000      0.0000     -0.0000      0.0000      0.0000
        55         0.0000      0.0000      0.0000      0.0000      0.0000
        56         0.0000      0.0000      0.0007      0.0000      0.0000
        57        -0.0453     -0.0509      0.0000      0.0046      0.0017
        58        -0.0509      0.0453      0.0000      0.0046      0.0017
        59         0.0140     -0.0339      0.0000      0.0013      0.0005
        60        -0.0339     -0.0140      0.0000      0.0013      0.0005
        61         0.2398     -0.3259      0.0000      0.1637      0.0591
        62        -0.3259     -0.2398      0.0000      0.1637      0.0591
        63         0.0000      0.0000     -0.4805      0.2309      0.0821
        64         0.0000      0.0000      0.2774      0.0770      0.0243
        65         0.0000      0.0000      0.0000      0.0000      0.0000
        66         0.0000      0.0000      0.0000      0.0000      0.0000
        67         0.0000      0.0000      0.5571      0.3104      0.0953
        68         0.0000      0.0000      0.0000      0.0000      0.0000
        69         0.0000      0.0000      0.2589      0.0670      0.0202
        70         0.0228     -0.0054      0.0000      0.0005      0.0002
        71         0.0054      0.0228      0.0000      0.0005      0.0002
        72        -0.4246      0.5311      0.0000      0.4624      0.1330
        73         0.5311      0.4246      0.0000      0.4624      0.1330
        74         0.8247      0.4008      0.0000      0.8409      0.2311
        75        -0.4008      0.8247      0.0000      0.8409      0.2311
        76         0.0000      0.0000     -0.2551      0.0651      0.0177
        77         0.0000      0.0000      0.5894      0.3474      0.0863
        78         0.1780     -0.1165      0.0000      0.0453      0.0112
        79         0.1165      0.1780      0.0000      0.0453      0.0112
        80         0.0000      0.0000     -0.2540      0.0645      0.0151
        81         0.0164      0.0221      0.0000      0.0008      0.0002
        82         0.0221     -0.0164      0.0000      0.0008      0.0002
        83         0.0000      0.0000      0.4109      0.1689      0.0360
        84         0.0000      0.0000     -0.3717      0.1382      0.0266
        85        -0.0000      0.0000      0.0000      0.0000      0.0000
        86        -0.0000     -0.0000      0.0000      0.0000      0.0000
        87         0.0000      0.0000      0.0000      0.0000      0.0000
        88         0.0000      0.0000      0.0000      0.0000      0.0000
        89        -0.9007     -0.5089      0.0000      1.0703      0.1897
        90        -0.5089      0.9007      0.0000      1.0703      0.1897
        91         0.0000      0.0000      0.0000      0.0000      0.0000
        92         0.0000      0.0000     -0.0000      0.0000      0.0000
        93         0.0000      0.0000      0.0000      0.0000      0.0000
        94         0.0000      0.0000     -1.6251      2.6409      0.4420
        95         0.1907     -1.7852      0.0000      3.2233      0.5262
        96        -1.7852     -0.1907      0.0000      3.2233      0.5262
        97         0.0000      0.0000      0.0000      0.0000      0.0000
        98         0.0000      0.0000     -0.0000      0.0000      0.0000
        99        -0.0532     -0.2221      0.0000      0.0522      0.0076
       100        -0.2221      0.0532      0.0000      0.0522      0.0076
       101         0.7863      0.2730      0.0000      0.6928      0.0973
       102        -0.2730      0.7863      0.0000      0.6928      0.0973
       103         0.0000      0.0000     -1.2313      1.5161      0.2055
       104         0.0000      0.0000      0.0141      0.0002      0.0000
 Ground to excited state transition magnetic dipole moments (Au):
       state          X           Y           Z
         1        -0.0685      0.0946      0.0000
         2        -0.0946     -0.0685      0.0000
         3         0.0000      0.0000      0.0000
         4         0.0000      0.0000     -0.0000
         5        -0.0298     -0.0214      0.0000
         6        -0.0214      0.0298      0.0000
         7         0.0000      0.0000      0.0000
         8         0.0000      0.0000      0.0000
         9         0.0000      0.0000      0.0000
        10         0.0549      0.1455      0.0000
        11        -0.1455      0.0549      0.0000
        12         0.0000      0.0000      0.0000
        13         0.0000      0.0000     -0.0000
        14         0.0000      0.0000      0.0000
        15         0.0000      0.0000      0.0000
        16         0.0074     -0.0542      0.0000
        17         0.0542      0.0074      0.0000
        18         0.0000      0.0000      0.0000
        19         0.0122      0.0955      0.0000
        20        -0.0955      0.0122      0.0000
        21         0.1617      0.0817      0.0000
        22         0.0817     -0.1617      0.0000
        23         0.0000      0.0000      0.0000
        24         0.0000      0.0000      0.0000
        25        -0.0000     -0.0000      0.0000
        26         0.0000     -0.0000      0.0000
        27         0.0360      0.0235      0.0000
        28         0.0235     -0.0360      0.0000
        29        -0.1009     -0.1379      0.0000
        30         0.1379     -0.1009      0.0000
        31         0.0000      0.0000     -0.0000
        32         0.0000      0.0000      0.0000
        33         0.0000      0.0000     -0.0000
        34         0.0000      0.0000      0.0000
        35         0.0000      0.0000     -0.0000
        36         0.0000      0.0000      0.0000
        37         0.0000      0.0000      0.0000
        38         0.0000      0.0000      0.0000
        39        -0.0717     -0.0436      0.0000
        40        -0.0436      0.0717      0.0000
        41         0.0000      0.0000      0.0000
        42        -0.0245     -0.0019      0.0000
        43        -0.0019      0.0245      0.0000
        44         0.0000      0.0000      0.0000
        45         0.0628      0.0349      0.0000
        46         0.0349     -0.0628      0.0000
        47         0.0858     -0.0141      0.0000
        48        -0.0141     -0.0858      0.0000
        49         0.0000      0.0000      0.0000
        50         0.0000      0.0000      0.0000
        51         0.0000      0.0000      0.0000
        52         0.0000      0.0000     -0.0000
        53         0.0000      0.0000     -0.0000
        54         0.0000      0.0000      0.0000
        55         0.0000      0.0000     -0.0000
        56         0.0000      0.0000      0.0000
        57         0.1400     -0.1247      0.0000
        58        -0.1247     -0.1400      0.0000
        59        -0.0726     -0.0300      0.0000
        60        -0.0300      0.0726      0.0000
        61         0.0214      0.0157      0.0000
        62         0.0157     -0.0214      0.0000
        63         0.0000      0.0000      0.0000
        64         0.0000      0.0000      0.0000
        65         0.0000      0.0000      0.0000
        66         0.0000      0.0000     -0.0000
        67         0.0000      0.0000      0.0000
        68         0.0000      0.0000     -0.0000
        69         0.0000      0.0000      0.0000
        70         0.0557      0.2384      0.0000
        71        -0.2384      0.0557      0.0000
        72         0.1676      0.1340      0.0000
        73         0.1340     -0.1676      0.0000
        74        -0.0265      0.0544      0.0000
        75        -0.0544     -0.0265      0.0000
        76         0.0000      0.0000      0.0000
        77         0.0000      0.0000      0.0000
        78         0.0601      0.0918      0.0000
        79        -0.0918      0.0601      0.0000
        80         0.0000      0.0000      0.0000
        81         0.1671     -0.1242      0.0000
        82        -0.1242     -0.1671      0.0000
        83         0.0000      0.0000      0.0000
        84         0.0000      0.0000      0.0000
        85        -0.0000     -0.0000      0.0000
        86         0.0000     -0.0000      0.0000
        87         0.0000      0.0000     -0.0000
        88         0.0000      0.0000      0.0000
        89         0.0647     -0.1145      0.0000
        90        -0.1145     -0.0647      0.0000
        91         0.0000      0.0000      0.0000
        92         0.0000      0.0000      0.0000
        93         0.0000      0.0000      0.0000
        94         0.0000      0.0000      0.0000
        95         0.2875      0.0307      0.0000
        96         0.0307     -0.2875      0.0000
        97         0.0000      0.0000     -0.0000
        98         0.0000      0.0000      0.0000
        99         0.0139     -0.0033      0.0000
       100        -0.0033     -0.0139      0.0000
       101        -0.0336      0.0967      0.0000
       102        -0.0967     -0.0336      0.0000
       103         0.0000      0.0000      0.0000
       104         0.0000      0.0000      0.0000
 Ground to excited state transition velocity quadrupole moments (Au):
       state          XX          YY          ZZ          XY          XZ          YZ
         1         0.0000      0.0000      0.0000      0.0000      0.0680      0.0493
         2         0.0000      0.0000      0.0000      0.0000     -0.0493      0.0680
         3        -0.4563      0.4563     -0.0000      0.0000      0.0000      0.0000
         4         0.0000      0.0000      0.0000     -0.4563      0.0000      0.0000
         5         0.0000      0.0000      0.0000      0.0000      0.1716     -0.2397
         6         0.0000      0.0000      0.0000      0.0000     -0.2397     -0.1716
         7        -0.3055     -0.3055      0.4789      0.0000      0.0000      0.0000
         8         0.0000      0.0000      0.0000      0.0000      0.0000      0.0000
         9        -0.6950     -0.6950     -0.2517      0.0000      0.0000      0.0000
        10         0.0000      0.0000      0.0000      0.0000      0.0222     -0.0084
        11         0.0000      0.0000      0.0000      0.0000      0.0084      0.0222
        12        -0.0223      0.0223     -0.0000      0.0000      0.0000      0.0000
        13         0.0000      0.0000      0.0000      0.0223      0.0000      0.0000
        14         0.0000      0.0000      0.0000     -0.0000      0.0000      0.0000
        15        -0.0745     -0.0745     -0.2764      0.0000      0.0000      0.0000
        16         0.0000      0.0000      0.0000      0.0000     -0.3568     -0.0487
        17         0.0000      0.0000      0.0000      0.0000      0.0487     -0.3568
        18        -0.4344     -0.4344     -0.6533      0.0000      0.0000      0.0000
        19         0.0000      0.0000      0.0000      0.0000      0.1409     -0.0179
        20         0.0000      0.0000      0.0000      0.0000      0.0179      0.1409
        21         0.0000      0.0000      0.0000      0.0000      0.1509     -0.2986
        22         0.0000      0.0000      0.0000      0.0000     -0.2986     -0.1509
        23         0.2389      0.2389      0.8561      0.0000      0.0000      0.0000
        24         0.2762      0.2762      0.3991      0.0000      0.0000      0.0000
        25         0.0000      0.0000      0.0000      0.0000     -0.0000      0.0000
        26         0.0000      0.0000      0.0000      0.0000     -0.0000     -0.0000
        27         0.0000      0.0000      0.0000      0.0000      0.0622     -0.0952
        28         0.0000      0.0000      0.0000      0.0000     -0.0952     -0.0622
        29         0.0000      0.0000      0.0000      0.0000      0.1086     -0.0795
        30         0.0000      0.0000      0.0000      0.0000      0.0795      0.1086
        31         0.0000      0.0000      0.0000     -0.1695      0.0000      0.0000
        32        -0.1695      0.1695     -0.0000      0.0000      0.0000      0.0000
        33         0.0000      0.0000      0.0000      0.0896      0.0000      0.0000
        34        -0.0896      0.0896      0.0000      0.0000      0.0000      0.0000
        35         0.0000      0.0000      0.0000     -0.0000      0.0000      0.0000
        36         0.1012      0.1012     -0.0709      0.0000      0.0000      0.0000
        37         0.3003      0.3003      0.5629      0.0000      0.0000      0.0000
        38         0.1125      0.1125      1.1536      0.0000      0.0000      0.0000
        39         0.0000      0.0000      0.0000      0.0000      0.2282     -0.3755
        40         0.0000      0.0000      0.0000      0.0000     -0.3755     -0.2282
        41         0.2089      0.2089      0.2389      0.0000      0.0000      0.0000
        42         0.0000      0.0000      0.0000      0.0000      0.0179     -0.2365
        43         0.0000      0.0000      0.0000      0.0000     -0.2365     -0.0179
        44        -0.4301     -0.4301      0.6576      0.0000      0.0000      0.0000
        45         0.0000      0.0000      0.0000      0.0000      0.2581     -0.4645
        46         0.0000      0.0000      0.0000      0.0000     -0.4645     -0.2581
        47         0.0000      0.0000      0.0000      0.0000      0.0481      0.2923
        48         0.0000      0.0000      0.0000      0.0000      0.2923     -0.0481
        49         0.3162      0.3162      0.4088      0.0000      0.0000      0.0000
        50         0.4749      0.4749     -1.1386      0.0000      0.0000      0.0000
        51        -0.6903      0.6903     -0.0000      0.0000      0.0000      0.0000
        52         0.0000      0.0000      0.0000     -0.6903      0.0000      0.0000
        53         0.0000      0.0000      0.0000      0.0000      0.0000      0.0000
        54         0.7649     -0.7649     -0.0000      0.0000      0.0000      0.0000
        55         0.0000      0.0000      0.0000      0.7649      0.0000      0.0000
        56         0.5855      0.5855     -0.7255      0.0000      0.0000      0.0000
        57         0.0000      0.0000      0.0000      0.0000     -0.3558     -0.3994
        58         0.0000      0.0000      0.0000      0.0000     -0.3994      0.3558
        59         0.0000      0.0000      0.0000      0.0000     -0.3402      0.8235
        60         0.0000      0.0000      0.0000      0.0000      0.8235      0.3402
        61         0.0000      0.0000      0.0000      0.0000      0.1434     -0.1948
        62         0.0000      0.0000      0.0000      0.0000     -0.1948     -0.1434
        63         0.2516      0.2516      0.7834      0.0000      0.0000      0.0000
        64         0.3128      0.3128      1.1040      0.0000      0.0000      0.0000
        65        -0.3967      0.3967      0.0000      0.0000      0.0000      0.0000
        66         0.0000      0.0000      0.0000      0.3967      0.0000      0.0000
        67         0.0957      0.0957     -1.3073      0.0000      0.0000      0.0000
        68         0.0000      0.0000      0.0000     -0.0000      0.0000      0.0000
        69         1.0714      1.0714      0.1857      0.0000      0.0000      0.0000
        70         0.0000      0.0000      0.0000      0.0000      0.2545     -0.0593
        71         0.0000      0.0000      0.0000      0.0000      0.0593      0.2545
        72         0.0000      0.0000      0.0000      0.0000      0.6493     -0.8120
        73         0.0000      0.0000      0.0000      0.0000     -0.8120     -0.6493
        74         0.0000      0.0000      0.0000      0.0000     -0.0991     -0.0482
        75         0.0000      0.0000      0.0000      0.0000      0.0482     -0.0991
        76        -0.5727     -0.5727      0.4920      0.0000      0.0000      0.0000
        77         0.9172      0.9172      1.2077      0.0000      0.0000      0.0000
        78         0.0000      0.0000      0.0000      0.0000      0.0507     -0.0333
        79         0.0000      0.0000      0.0000      0.0000      0.0333      0.0507
        80         0.2263      0.2263     -0.4434      0.0000      0.0000      0.0000
        81         0.0000      0.0000      0.0000      0.0000     -0.3933     -0.5291
        82         0.0000      0.0000      0.0000      0.0000     -0.5291      0.3933
        83        -1.2091     -1.2091     -0.0896      0.0000      0.0000      0.0000
        84        -0.1038     -0.1038      0.3981      0.0000      0.0000      0.0000
        85         0.0000      0.0000      0.0000      0.0000     -0.0000      0.0000
        86         0.0000      0.0000      0.0000      0.0000     -0.0000     -0.0000
        87         0.0000      0.0000      0.0000     -0.1276      0.0000      0.0000
        88        -0.1276      0.1276      0.0000      0.0000      0.0000      0.0000
        89         0.0000      0.0000      0.0000      0.0000      0.1277      0.0721
        90         0.0000      0.0000      0.0000      0.0000      0.0721     -0.1277
        91         0.0000      0.0000      0.0000      0.1798      0.0000      0.0000
        92        -0.1798      0.1798     -0.0000      0.0000      0.0000      0.0000
        93         0.0000      0.0000      0.0000     -0.0000      0.0000      0.0000
        94         0.0904      0.0904     -0.8794      0.0000      0.0000      0.0000
        95         0.0000      0.0000      0.0000      0.0000      0.0803     -0.7519
        96         0.0000      0.0000      0.0000      0.0000     -0.7519     -0.0803
        97         0.0000      0.0000      0.0000      0.8262      0.0000      0.0000
        98         0.8262     -0.8262      0.0000      0.0000      0.0000      0.0000
        99         0.0000      0.0000      0.0000      0.0000      0.1289      0.5374
       100         0.0000      0.0000      0.0000      0.0000      0.5374     -0.1289
       101         0.0000      0.0000      0.0000      0.0000      0.3773      0.1308
       102         0.0000      0.0000      0.0000      0.0000     -0.1308      0.3773
       103         0.1954      0.1954     -1.0894      0.0000      0.0000      0.0000
       104        -0.2216     -0.2216      0.3840      0.0000      0.0000      0.0000
 <0|del|b> * <b|rxdel|0> + <0|del|b> * <b|delr+rdel|0>
 Rotatory Strengths (R) in cgs (10**-40 erg-esu-cm/Gauss)
       state          XX          YY          ZZ    R(velocity)    E-M Angle
         1        -2.0135      2.0135     -0.0000      0.0000       90.00
         2         2.0135     -2.0135      0.0000     -0.0000       90.00
         3         0.0000      0.0000      0.0000      0.0000       90.00
         4         0.0000      0.0000      0.0000      0.0000       90.00
         5        14.1669    -14.1669      0.0000      0.0000       90.00
         6       -14.1669     14.1669     -0.0000     -0.0000       90.00
         7         0.0000      0.0000      0.0000      0.0000       90.00
         8         0.0000      0.0000      0.0000      0.0000       90.00
         9         0.0000      0.0000      0.0000      0.0000       90.00
        10        -6.5050      6.5016      0.0008     -0.0009       90.00
        11         6.5016     -6.5050      0.0008     -0.0009       90.00
        12         0.0000      0.0000      0.0000      0.0000       90.00
        13         0.0000      0.0000      0.0000      0.0000       90.00
        14         0.0000      0.0000      0.0000      0.0000       90.00
        15         0.0000      0.0000      0.0000      0.0000       90.00
        16         0.4803     -0.4801      0.0000      0.0000       90.00
        17        -0.4801      0.4803      0.0000      0.0000       90.00
        18         0.0000      0.0000      0.0000      0.0000       90.00
        19        -0.4506      0.4483      0.0049      0.0009       90.00
        20         0.4483     -0.4506      0.0049      0.0009       90.00
        21        -8.4105      8.4105     -0.0000     -0.0000       90.00
        22         8.4105     -8.4105     -0.0000     -0.0000       90.00
        23         0.0000      0.0000      0.0000      0.0000       90.00
        24         0.0000      0.0000      0.0000      0.0000       90.00
        25         0.0000     -0.0000      0.0000      0.0000       90.00
        26        -0.0000      0.0000      0.0000      0.0000       90.00
        27         9.5315     -9.5314     -0.0003     -0.0001       90.00
        28        -9.5314      9.5315     -0.0003     -0.0001       90.00
        29       -24.6990     24.6990     -0.0002     -0.0001       90.00
        30        24.6990    -24.6990     -0.0002     -0.0001       90.00
        31         0.0000      0.0000      0.0000      0.0000       90.00
        32         0.0000      0.0000      0.0000      0.0000       90.00
        33         0.0000      0.0000      0.0000      0.0000       90.00
        34         0.0000      0.0000      0.0000      0.0000       90.00
        35         0.0000      0.0000      0.0000      0.0000       90.00
        36         0.0000      0.0000      0.0000      0.0000       90.00
        37         0.0000      0.0000      0.0000      0.0000       90.00
        38         0.0000      0.0000      0.0000      0.0000       90.00
        39        50.5200    -50.5200     -0.0001     -0.0000       90.00
        40       -50.5200     50.5200     -0.0001     -0.0000       90.00
        41         0.0000      0.0000      0.0000      0.0000       90.00
        42         0.7167     -0.7199      0.0042      0.0003       90.00
        43        -0.7199      0.7167      0.0042      0.0003       90.00
        44         0.0000      0.0000      0.0000      0.0000       90.00
        45        -4.4317      4.4330     -0.0015     -0.0000       90.00
        46         4.4330     -4.4317     -0.0015     -0.0000       90.00
        47        -1.6139      1.6275     -0.0060      0.0025       90.00
        48         1.6275     -1.6139     -0.0060      0.0025       90.00
        49         0.0000      0.0000      0.0000      0.0000       90.00
        50         0.0000      0.0000      0.0000      0.0000       90.00
        51         0.0000      0.0000      0.0000      0.0000       90.00
        52         0.0000      0.0000      0.0000      0.0000       90.00
        53         0.0000      0.0000      0.0000      0.0000       90.00
        54         0.0000      0.0000      0.0000      0.0000       90.00
        55         0.0000      0.0000      0.0000      0.0000       90.00
        56         0.0000      0.0000      0.0000      0.0000       90.00
        57        -2.3230      2.3236     -0.0008     -0.0001       90.00
        58         2.3236     -2.3230     -0.0008     -0.0001       90.00
        59        -2.0351      2.0348      0.0003      0.0000       90.00
        60         2.0348     -2.0351      0.0003      0.0000       90.00
        61         7.9717     -7.9687     -0.0039     -0.0003       90.00
        62        -7.9687      7.9717     -0.0039     -0.0003       90.00
        63         0.0000      0.0000      0.0000      0.0000       90.00
        64         0.0000      0.0000      0.0000      0.0000       90.00
        65         0.0000      0.0000      0.0000      0.0000       90.00
        66         0.0000      0.0000      0.0000      0.0000       90.00
        67         0.0000      0.0000      0.0000      0.0000       90.00
        68         0.0000      0.0000      0.0000      0.0000       90.00
        69         0.0000      0.0000      0.0000      0.0000       90.00
        70         0.0134     -0.0130     -0.0029     -0.0008       90.00
        71        -0.0130      0.0134     -0.0029     -0.0008       90.00
        72       -41.7535     41.7558     -0.0023     -0.0000       90.00
        73        41.7558    -41.7535     -0.0023     -0.0000       90.00
        74         8.9663     -8.9733      0.0033     -0.0012       90.00
        75        -8.9733      8.9663      0.0033     -0.0012       90.00
        76         0.0000      0.0000      0.0000      0.0000       90.00
        77         0.0000      0.0000      0.0000      0.0000       90.00
        78        -0.6291      0.6272      0.0028      0.0003       90.00
        79         0.6272     -0.6291      0.0028      0.0003       90.00
        80         0.0000      0.0000      0.0000      0.0000       90.00
        81         0.7199     -0.7166     -0.0060     -0.0009       90.00
        82        -0.7166      0.7199     -0.0060     -0.0009       90.00
        83         0.0000      0.0000      0.0000      0.0000       90.00
        84         0.0000      0.0000      0.0000      0.0000       90.00
        85         0.0000     -0.0000      0.0000      0.0000       90.00
        86        -0.0000      0.0000      0.0000      0.0000       90.00
        87         0.0000      0.0000      0.0000      0.0000       90.00
        88         0.0000      0.0000      0.0000      0.0000       90.00
        89        11.5824    -11.5784     -0.0033      0.0002       90.00
        90       -11.5784     11.5824     -0.0033      0.0002       90.00
        91         0.0000      0.0000      0.0000      0.0000       90.00
        92         0.0000      0.0000      0.0000      0.0000       90.00
        93         0.0000      0.0000      0.0000      0.0000       90.00
        94         0.0000      0.0000      0.0000      0.0000       90.00
        95         7.6638     -7.6696      0.0036     -0.0007       90.00
        96        -7.6696      7.6638      0.0036     -0.0007       90.00
        97         0.0000      0.0000      0.0000      0.0000       90.00
        98         0.0000      0.0000      0.0000      0.0000       90.00
        99         2.2619     -2.2585     -0.0037     -0.0001       90.00
       100        -2.2585      2.2619     -0.0037     -0.0001       90.00
       101        -5.7040      5.6954      0.0111      0.0008       90.00
       102         5.6954     -5.7040      0.0111      0.0008       90.00
       103         0.0000      0.0000      0.0000      0.0000       90.00
       104         0.0000      0.0000      0.0000      0.0000       90.00
 1/2[<0|r|b>*<b|rxdel|0> + (<0|rxdel|b>*<b|r|0>)*]
 Rotatory Strengths (R) in cgs (10**-40 erg-esu-cm/Gauss)
       state          XX          YY          ZZ     R(length)
         1        14.6768    -14.6768      0.0000      0.0000
         2       -14.6768     14.6768      0.0000     -0.0000
         3         0.0000      0.0000      0.0000      0.0000
         4         0.0000      0.0000     -0.0000     -0.0000
         5        -3.0649      3.0649      0.0000      0.0000
         6         3.0649     -3.0649      0.0000     -0.0000
         7         0.0000      0.0000     -0.0000     -0.0000
         8         0.0000      0.0000      0.0000      0.0000
         9         0.0000      0.0000      0.0000      0.0000
        10        16.3219    -16.3249      0.0000     -0.0010
        11       -16.3249     16.3219      0.0000     -0.0010
        12         0.0000      0.0000      0.0000      0.0000
        13         0.0000      0.0000     -0.0000     -0.0000
        14         0.0000      0.0000      0.0000      0.0000
        15         0.0000      0.0000      0.0000      0.0000
        16         0.1326     -0.1329      0.0000     -0.0001
        17        -0.1329      0.1326      0.0000     -0.0001
        18         0.0000      0.0000     -0.0000     -0.0000
        19        -1.8351      1.8365      0.0000      0.0005
        20         1.8365     -1.8351      0.0000      0.0005
        21       -19.6495     19.6495      0.0000     -0.0000
        22        19.6495    -19.6495      0.0000     -0.0000
        23         0.0000      0.0000     -0.0000     -0.0000
        24         0.0000      0.0000     -0.0000     -0.0000
        25         0.0000     -0.0000      0.0000      0.0000
        26        -0.0000      0.0000      0.0000      0.0000
        27        11.7942    -11.7943      0.0000     -0.0001
        28       -11.7943     11.7942      0.0000     -0.0001
        29        27.5800    -27.5801      0.0000     -0.0001
        30       -27.5801     27.5800      0.0000     -0.0001
        31         0.0000      0.0000     -0.0000     -0.0000
        32         0.0000      0.0000     -0.0000     -0.0000
        33         0.0000      0.0000     -0.0000     -0.0000
        34         0.0000      0.0000      0.0000      0.0000
        35         0.0000      0.0000     -0.0000     -0.0000
        36         0.0000      0.0000     -0.0000     -0.0000
        37         0.0000      0.0000     -0.0000     -0.0000
        38         0.0000      0.0000      0.0000      0.0000
        39       -16.0540     16.0539      0.0000     -0.0000
        40        16.0539    -16.0540      0.0000     -0.0000
        41         0.0000      0.0000     -0.0000     -0.0000
        42        -0.1079      0.1086      0.0000      0.0002
        43         0.1086     -0.1079      0.0000      0.0002
        44         0.0000      0.0000     -0.0000     -0.0000
        45        -1.2262      1.2261      0.0000     -0.0000
        46         1.2261     -1.2262      0.0000     -0.0000
        47         0.7911     -0.7831      0.0000      0.0027
        48        -0.7831      0.7911      0.0000      0.0027
        49         0.0000      0.0000     -0.0000     -0.0000
        50         0.0000      0.0000      0.0000      0.0000
        51         0.0000      0.0000      0.0000      0.0000
        52         0.0000      0.0000     -0.0000     -0.0000
        53         0.0000      0.0000     -0.0000     -0.0000
        54         0.0000      0.0000     -0.0000     -0.0000
        55         0.0000      0.0000     -0.0000     -0.0000
        56         0.0000      0.0000      0.0000      0.0000
        57        -1.3274      1.3273      0.0000     -0.0001
        58         1.3273     -1.3274      0.0000     -0.0001
        59        -0.3483      0.3484      0.0000      0.0000
        60         0.3484     -0.3483      0.0000      0.0000
        61         1.7823     -1.7831      0.0000     -0.0003
        62        -1.7831      1.7823      0.0000     -0.0003
        63         0.0000      0.0000     -0.0000     -0.0000
        64         0.0000      0.0000      0.0000      0.0000
        65         0.0000      0.0000      0.0000      0.0000
        66         0.0000      0.0000     -0.0000     -0.0000
        67         0.0000      0.0000      0.0000      0.0000
        68         0.0000      0.0000     -0.0000     -0.0000
        69         0.0000      0.0000      0.0000      0.0000
        70        -0.3719      0.3703      0.0000     -0.0005
        71         0.3703     -0.3719      0.0000     -0.0005
        72       -24.1195     24.1195      0.0000     -0.0000
        73        24.1195    -24.1195      0.0000     -0.0000
        74        -6.0476      6.0441      0.0000     -0.0012
        75         6.0441     -6.0476      0.0000     -0.0012
        76         0.0000      0.0000     -0.0000     -0.0000
        77         0.0000      0.0000      0.0000      0.0000
        78         3.7776     -3.7765      0.0000      0.0004
        79        -3.7765      3.7776      0.0000      0.0004
        80         0.0000      0.0000     -0.0000     -0.0000
        81         2.3960     -2.3980      0.0000     -0.0007
        82        -2.3980      2.3960      0.0000     -0.0007
        83         0.0000      0.0000      0.0000      0.0000
        84         0.0000      0.0000     -0.0000     -0.0000
        85         0.0000     -0.0000      0.0000      0.0000
        86        -0.0000      0.0000      0.0000      0.0000
        87         0.0000      0.0000     -0.0000     -0.0000
        88         0.0000      0.0000      0.0000      0.0000
        89       -12.6364     12.6371      0.0000      0.0003
        90        12.6371    -12.6364      0.0000      0.0003
        91         0.0000      0.0000      0.0000      0.0000
        92         0.0000      0.0000     -0.0000     -0.0000
        93         0.0000      0.0000      0.0000      0.0000
        94         0.0000      0.0000     -0.0000     -0.0000
        95        10.8773    -10.8795      0.0000     -0.0007
        96       -10.8795     10.8773      0.0000     -0.0007
        97         0.0000      0.0000     -0.0000     -0.0000
        98         0.0000      0.0000     -0.0000     -0.0000
        99        -0.1303      0.1300      0.0000     -0.0001
       100         0.1300     -0.1303      0.0000     -0.0001
       101        -4.2488      4.2513      0.0000      0.0008
       102         4.2513     -4.2488      0.0000      0.0008
       103         0.0000      0.0000     -0.0000     -0.0000
       104         0.0000      0.0000      0.0000      0.0000
  1/2[<0|del|b>*<b|r|0> + (<0|r|b>*<b|del|0>)*] (Au)
       state          X           Y           Z        Dip. S.   Osc.(frdel)
         1        -0.0321     -0.0168     -0.0000      0.0489      0.0326
         2        -0.0168     -0.0321     -0.0000      0.0489      0.0326
         3        -0.0000     -0.0000     -0.0000      0.0000      0.0000
         4        -0.0000     -0.0000     -0.0000      0.0000      0.0000
         5        -0.0108     -0.0212     -0.0000      0.0320      0.0213
         6        -0.0212     -0.0108     -0.0000      0.0320      0.0213
         7        -0.0000     -0.0000     -0.2008      0.2008      0.1339
         8        -0.0000     -0.0000     -0.0000      0.0000      0.0000
         9        -0.0000     -0.0000     -0.0160      0.0160      0.0107
        10        -0.0951     -0.0135     -0.0000      0.1086      0.0724
        11        -0.0135     -0.0951     -0.0000      0.1086      0.0724
        12        -0.0000     -0.0000     -0.0000      0.0000      0.0000
        13        -0.0000     -0.0000     -0.0000      0.0000      0.0000
        14        -0.0000     -0.0000     -0.0000      0.0000      0.0000
        15        -0.0000     -0.0000     -0.2742      0.2742      0.1828
        16        -0.0005     -0.0000     -0.0000      0.0005      0.0004
        17        -0.0000     -0.0005     -0.0000      0.0005      0.0004
        18        -0.0000     -0.0000     -0.0690      0.0690      0.0460
        19        -0.0323     -0.0005     -0.0000      0.0328      0.0219
        20        -0.0005     -0.0323     -0.0000      0.0328      0.0219
        21        -0.0221     -0.0864     -0.0000      0.1085      0.0723
        22        -0.0864     -0.0221     -0.0000      0.1085      0.0723
        23        -0.0000     -0.0000     -0.1317      0.1317      0.0878
        24        -0.0000     -0.0000     -0.1290      0.1290      0.0860
        25        -0.0000     -0.0000     -0.0000      0.0000      0.0000
        26        -0.0000     -0.0000     -0.0000      0.0000      0.0000
        27        -0.1981     -0.4637     -0.0000      0.6617      0.4412
        28        -0.4637     -0.1981     -0.0000      0.6617      0.4412
        29        -0.1477     -0.0791     -0.0000      0.2268      0.1512
        30        -0.0791     -0.1477     -0.0000      0.2268      0.1512
        31        -0.0000     -0.0000     -0.0000      0.0000      0.0000
        32        -0.0000     -0.0000     -0.0000      0.0000      0.0000
        33        -0.0000     -0.0000     -0.0000      0.0000      0.0000
        34        -0.0000     -0.0000     -0.0000      0.0000      0.0000
        35        -0.0000     -0.0000     -0.0000      0.0000      0.0000
        36        -0.0000     -0.0000     -0.2388      0.2388      0.1592
        37        -0.0000     -0.0000     -0.1503      0.1503      0.1002
        38        -0.0000     -0.0000     -0.8096      0.8096      0.5398
        39        -0.1236     -0.3345     -0.0000      0.4581      0.3054
        40        -0.3345     -0.1236     -0.0000      0.4581      0.3054
        41        -0.0000     -0.0000     -0.0124      0.0124      0.0082
        42        -0.0001     -0.0107     -0.0000      0.0107      0.0072
        43        -0.0107     -0.0001     -0.0000      0.0107      0.0072
        44        -0.0000     -0.0000     -0.0093      0.0093      0.0062
        45        -0.0012     -0.0038     -0.0000      0.0049      0.0033
        46        -0.0038     -0.0012     -0.0000      0.0049      0.0033
        47        -0.0002     -0.0079     -0.0000      0.0081      0.0054
        48        -0.0079     -0.0002     -0.0000      0.0081      0.0054
        49        -0.0000     -0.0000     -0.0288      0.0288      0.0192
        50        -0.0000     -0.0000     -0.0022      0.0022      0.0015
        51        -0.0000     -0.0000     -0.0000      0.0000      0.0000
        52        -0.0000     -0.0000     -0.0000      0.0000      0.0000
        53        -0.0000     -0.0000     -0.0000      0.0000      0.0000
        54        -0.0000     -0.0000     -0.0000      0.0000      0.0000
        55        -0.0000     -0.0000     -0.0000      0.0000      0.0000
        56        -0.0000     -0.0000     -0.0000      0.0000      0.0000
        57        -0.0006     -0.0008     -0.0000      0.0014      0.0009
        58        -0.0008     -0.0006     -0.0000      0.0014      0.0009
        59        -0.0001     -0.0006     -0.0000      0.0007      0.0004
        60        -0.0006     -0.0001     -0.0000      0.0007      0.0004
        61        -0.0283     -0.0522     -0.0000      0.0805      0.0536
        62        -0.0522     -0.0283     -0.0000      0.0805      0.0536
        63        -0.0000     -0.0000     -0.1207      0.1207      0.0805
        64        -0.0000     -0.0000     -0.0295      0.0295      0.0197
        65        -0.0000     -0.0000     -0.0000      0.0000      0.0000
        66        -0.0000     -0.0000     -0.0000      0.0000      0.0000
        67        -0.0000     -0.0000     -0.1597      0.1597      0.1065
        68        -0.0000     -0.0000     -0.0000      0.0000      0.0000
        69        -0.0000     -0.0000     -0.0376      0.0376      0.0251
        70         0.0002      0.0000     -0.0000     -0.0002     -0.0002
        71         0.0000      0.0002     -0.0000     -0.0002     -0.0002
        72        -0.0864     -0.1351     -0.0000      0.2216      0.1477
        73        -0.1351     -0.0864     -0.0000      0.2216      0.1477
        74        -0.2666     -0.0630     -0.0000      0.3296      0.2197
        75        -0.0630     -0.2666     -0.0000      0.3296      0.2197
        76        -0.0000     -0.0000     -0.0278      0.0278      0.0185
        77        -0.0000     -0.0000     -0.1243      0.1243      0.0828
        78        -0.0158     -0.0068     -0.0000      0.0226      0.0151
        79        -0.0068     -0.0158     -0.0000      0.0226      0.0151
        80        -0.0000     -0.0000     -0.0251      0.0251      0.0167
        81        -0.0003     -0.0006     -0.0000      0.0009      0.0006
        82        -0.0006     -0.0003     -0.0000      0.0009      0.0006
        83        -0.0000     -0.0000     -0.0555      0.0555      0.0370
        84        -0.0000     -0.0000     -0.0353      0.0353      0.0236
        85        -0.0000     -0.0000     -0.0000      0.0000      0.0000
        86        -0.0000     -0.0000     -0.0000      0.0000      0.0000
        87        -0.0000     -0.0000     -0.0000      0.0000      0.0000
        88        -0.0000     -0.0000     -0.0000      0.0000      0.0000
        89        -0.2489     -0.0795     -0.0000      0.3283      0.2189
        90        -0.0795     -0.2489     -0.0000      0.3283      0.2189
        91        -0.0000     -0.0000     -0.0000      0.0000      0.0000
        92        -0.0000     -0.0000     -0.0000      0.0000      0.0000
        93        -0.0000     -0.0000     -0.0000      0.0000      0.0000
        94        -0.0000     -0.0000     -0.7463      0.7463      0.4975
        95        -0.0102     -0.8941     -0.0000      0.9043      0.6028
        96        -0.8941     -0.0102     -0.0000      0.9043      0.6028
        97        -0.0000     -0.0000     -0.0000      0.0000      0.0000
        98        -0.0000     -0.0000     -0.0000      0.0000      0.0000
        99        -0.0007     -0.0123     -0.0000      0.0130      0.0087
       100        -0.0123     -0.0007     -0.0000      0.0130      0.0087
       101        -0.1407     -0.0170     -0.0000      0.1577      0.1051
       102        -0.0170     -0.1407     -0.0000      0.1577      0.1051
       103        -0.0000     -0.0000     -0.3359      0.3359      0.2239
       104        -0.0000     -0.0000     -0.0001      0.0001      0.0001

 Excitation energies and oscillator strengths:
 
 Excited state symmetry could not be determined.
 Excited State   1:      Singlet-?Sym    9.7351 eV  127.36 nm  f=0.0334  <S**2>=0.000
       4 ->  6         0.41469
       5 ->  6         0.57245
 This state for optimization and/or second-order correction.
 Total Energy, E(TD-HF/TD-DFT) =  -100.019798103    
 Copying the excited state density for this state as the 1-particle RhoCI density.
 
 Excited state symmetry could not be determined.
[...]
     13   0.000000D+00  0.000000D+00  0.000000D+00  0.000000D+00  0.000000D+00
     14  -0.169498D+00  0.000000D+00  0.895685D-01  0.000000D+00  0.000000D+00
     15   0.000000D+00  0.000000D+00  0.000000D+00  0.000000D+00  0.000000D+00
     16   0.000000D+00  0.000000D+00  0.000000D+00  0.000000D+00  0.000000D+00
                36            37            38            39            40 
      1  -0.992998D+02 -0.992471D+02 -0.991955D+02 -0.991564D+02 -0.991564D+02
      2   0.000000D+00  0.000000D+00  0.000000D+00 -0.316753D+00  0.521049D+00
      3   0.000000D+00  0.000000D+00  0.000000D+00  0.521049D+00  0.316753D+00
      4   0.452670D+00  0.370530D+00 -0.825823D+00  0.000000D+00  0.000000D+00
      5   0.000000D+00  0.000000D+00  0.000000D+00  0.390219D+00 -0.641899D+00
      6   0.000000D+00  0.000000D+00  0.000000D+00 -0.641899D+00 -0.390219D+00
      7  -0.527448D+00 -0.405678D+00  0.980395D+00  0.000000D+00  0.000000D+00
      8   0.000000D+00  0.000000D+00  0.000000D+00 -0.716707D-01 -0.435694D-01
      9   0.000000D+00  0.000000D+00  0.000000D+00 -0.435694D-01  0.716707D-01
     10   0.000000D+00  0.000000D+00  0.000000D+00  0.000000D+00  0.000000D+00
     11   0.101178D+00  0.300290D+00  0.112488D+00  0.000000D+00  0.000000D+00
     12   0.101178D+00  0.300290D+00  0.112488D+00  0.000000D+00  0.000000D+00
     13  -0.708661D-01  0.562938D+00  0.115365D+01  0.000000D+00  0.000000D+00
     14   0.000000D+00  0.000000D+00  0.000000D+00  0.000000D+00  0.000000D+00
     15   0.000000D+00  0.000000D+00  0.000000D+00  0.228243D+00 -0.375452D+00
     16   0.000000D+00  0.000000D+00  0.000000D+00 -0.375452D+00 -0.228243D+00
                41            42            43            44            45 
      1  -0.991177D+02 -0.991097D+02 -0.991097D+02 -0.990449D+02 -0.990251D+02
      2   0.000000D+00 -0.622888D-02  0.819374D-01  0.000000D+00  0.276032D-01
      3   0.000000D+00  0.819374D-01  0.622888D-02  0.000000D+00 -0.496620D-01
      4   0.101056D+00  0.000000D+00  0.000000D+00  0.989000D-01  0.000000D+00
      5   0.000000D+00  0.989177D-02 -0.130298D+00  0.000000D+00 -0.422154D-01
      6   0.000000D+00 -0.130298D+00 -0.989177D-02  0.000000D+00  0.759538D-01
      7  -0.122408D+00  0.000000D+00  0.000000D+00 -0.942783D-01  0.000000D+00
      8   0.000000D+00 -0.244949D-01 -0.187344D-02  0.000000D+00  0.628187D-01
      9   0.000000D+00 -0.187344D-02  0.244949D-01  0.000000D+00  0.349123D-01
     10   0.000000D+00  0.000000D+00  0.000000D+00  0.000000D+00  0.000000D+00
     11   0.208906D+00  0.000000D+00  0.000000D+00 -0.430137D+00  0.000000D+00
     12   0.208906D+00  0.000000D+00  0.000000D+00 -0.430137D+00  0.000000D+00
     13   0.238888D+00  0.000000D+00  0.000000D+00  0.657575D+00  0.000000D+00
     14   0.000000D+00  0.000000D+00  0.000000D+00  0.000000D+00  0.000000D+00
     15   0.000000D+00  0.178500D-01 -0.236469D+00  0.000000D+00  0.258085D+00
     16   0.000000D+00 -0.236469D+00 -0.178500D-01  0.000000D+00 -0.464476D+00
                46            47            48            49            50 
      1  -0.990251D+02 -0.990067D+02 -0.990067D+02 -0.989173D+02 -0.988553D+02
      2  -0.496620D-01 -0.130371D-01 -0.786798D-01  0.000000D+00  0.000000D+00
      3  -0.276032D-01 -0.786798D-01  0.130371D-01  0.000000D+00  0.000000D+00
      4   0.000000D+00  0.000000D+00  0.000000D+00  0.142732D+00 -0.449668D-01
      5   0.759538D-01  0.166866D-01  0.100689D+00  0.000000D+00  0.000000D+00
      6   0.422154D-01  0.100689D+00 -0.166866D-01  0.000000D+00  0.000000D+00
      7   0.000000D+00  0.000000D+00  0.000000D+00 -0.201636D+00  0.491543D-01
      8   0.349123D-01  0.858075D-01 -0.140737D-01  0.000000D+00  0.000000D+00
      9  -0.628187D-01 -0.140737D-01 -0.858075D-01  0.000000D+00  0.000000D+00
     10   0.000000D+00  0.000000D+00  0.000000D+00  0.000000D+00  0.000000D+00
     11   0.000000D+00  0.000000D+00  0.000000D+00  0.316155D+00  0.474877D+00
     12   0.000000D+00  0.000000D+00  0.000000D+00  0.316155D+00  0.474877D+00
     13   0.000000D+00  0.000000D+00  0.000000D+00  0.408761D+00 -0.113861D+01
     14   0.000000D+00  0.000000D+00  0.000000D+00  0.000000D+00  0.000000D+00
     15  -0.464476D+00  0.480678D-01  0.292324D+00  0.000000D+00  0.000000D+00
     16  -0.258085D+00  0.292324D+00 -0.480678D-01  0.000000D+00  0.000000D+00
                51            52            53            54            55 
      1  -0.987459D+02 -0.987459D+02 -0.987226D+02 -0.987114D+02 -0.987114D+02
      2   0.000000D+00  0.000000D+00  0.000000D+00  0.000000D+00  0.000000D+00
      3   0.000000D+00  0.000000D+00  0.000000D+00  0.000000D+00  0.000000D+00
      4   0.000000D+00  0.000000D+00  0.000000D+00  0.000000D+00  0.000000D+00
      5   0.000000D+00  0.000000D+00  0.000000D+00  0.000000D+00  0.000000D+00
      6   0.000000D+00  0.000000D+00  0.000000D+00  0.000000D+00  0.000000D+00
      7   0.000000D+00  0.000000D+00  0.000000D+00  0.000000D+00  0.000000D+00
      8   0.000000D+00  0.000000D+00  0.000000D+00  0.000000D+00  0.000000D+00
      9   0.000000D+00  0.000000D+00  0.000000D+00  0.000000D+00  0.000000D+00
     10   0.000000D+00  0.000000D+00  0.000000D+00  0.000000D+00  0.000000D+00
     11  -0.690326D+00  0.000000D+00  0.000000D+00  0.764921D+00  0.000000D+00
     12   0.690326D+00  0.000000D+00  0.000000D+00 -0.764921D+00  0.000000D+00
     13   0.000000D+00  0.000000D+00  0.000000D+00  0.000000D+00  0.000000D+00
     14   0.000000D+00 -0.690328D+00  0.000000D+00  0.000000D+00  0.764920D+00
     15   0.000000D+00  0.000000D+00  0.000000D+00  0.000000D+00  0.000000D+00
     16   0.000000D+00  0.000000D+00  0.000000D+00  0.000000D+00  0.000000D+00
                56            57            58            59            60 
      1  -0.986332D+02 -0.985877D+02 -0.985877D+02 -0.985480D+02 -0.985480D+02
      2   0.000000D+00  0.134077D-01  0.150489D-01 -0.678560D-02  0.164248D-01
      3   0.000000D+00  0.150489D-01 -0.134077D-01  0.164248D-01  0.678560D-02
      4  -0.122364D-01  0.000000D+00  0.000000D+00  0.000000D+00  0.000000D+00
      5   0.000000D+00 -0.453476D-01 -0.508994D-01  0.140216D-01 -0.339394D-01
      6   0.000000D+00 -0.508994D-01  0.453476D-01 -0.339394D-01 -0.140216D-01
      7   0.686285D-03  0.000000D+00  0.000000D+00  0.000000D+00  0.000000D+00
      8   0.000000D+00  0.140005D+00 -0.124721D+00 -0.725937D-01 -0.299941D-01
      9   0.000000D+00 -0.124721D+00 -0.140005D+00 -0.299941D-01  0.725937D-01
     10   0.000000D+00  0.000000D+00  0.000000D+00  0.000000D+00  0.000000D+00
     11   0.585482D+00  0.000000D+00  0.000000D+00  0.000000D+00  0.000000D+00
     12   0.585482D+00  0.000000D+00  0.000000D+00  0.000000D+00  0.000000D+00
     13  -0.725506D+00  0.000000D+00  0.000000D+00  0.000000D+00  0.000000D+00
     14   0.000000D+00  0.000000D+00  0.000000D+00  0.000000D+00  0.000000D+00
     15   0.000000D+00 -0.355752D+00 -0.399384D+00 -0.340249D+00  0.823479D+00
     16   0.000000D+00 -0.399384D+00  0.355752D+00  0.823479D+00  0.340249D+00
                61            62            63            64            65 
      1  -0.985320D+02 -0.985320D+02 -0.985020D+02 -0.982662D+02 -0.982228D+02
      2  -0.117878D+00  0.160194D+00  0.000000D+00  0.000000D+00  0.000000D+00
      3   0.160194D+00  0.117878D+00  0.000000D+00  0.000000D+00  0.000000D+00
      4   0.000000D+00  0.000000D+00  0.251209D+00 -0.106469D+00  0.000000D+00
      5   0.239807D+00 -0.325895D+00  0.000000D+00  0.000000D+00  0.000000D+00
      6  -0.325895D+00 -0.239807D+00  0.000000D+00  0.000000D+00  0.000000D+00
      7   0.000000D+00  0.000000D+00 -0.480472D+00  0.277427D+00  0.000000D+00
      8   0.213811D-01  0.157404D-01  0.000000D+00  0.000000D+00  0.000000D+00
      9   0.157404D-01 -0.213811D-01  0.000000D+00  0.000000D+00  0.000000D+00
     10   0.000000D+00  0.000000D+00  0.000000D+00  0.000000D+00  0.000000D+00
     11   0.000000D+00  0.000000D+00  0.251629D+00  0.312781D+00 -0.396726D+00
     12   0.000000D+00  0.000000D+00  0.251629D+00  0.312781D+00  0.396726D+00
     13   0.000000D+00  0.000000D+00  0.783392D+00  0.110399D+01  0.000000D+00
     14   0.000000D+00  0.000000D+00  0.000000D+00  0.000000D+00  0.000000D+00
     15   0.143413D+00 -0.194821D+00  0.000000D+00  0.000000D+00  0.000000D+00
     16  -0.194821D+00 -0.143413D+00  0.000000D+00  0.000000D+00  0.000000D+00
                66            67            68            69            70 
      1  -0.982228D+02 -0.982061D+02 -0.982036D+02 -0.981701D+02 -0.981097D+02
      2   0.000000D+00  0.000000D+00  0.000000D+00  0.000000D+00  0.944527D-02
      3   0.000000D+00  0.000000D+00  0.000000D+00  0.000000D+00 -0.219633D-02
      4   0.000000D+00 -0.286658D+00  0.000000D+00 -0.145253D+00  0.000000D+00
      5   0.000000D+00  0.000000D+00  0.000000D+00  0.000000D+00  0.227922D-01
      6   0.000000D+00  0.000000D+00  0.000000D+00  0.000000D+00 -0.535673D-02
      7   0.000000D+00  0.557146D+00  0.000000D+00  0.258871D+00  0.000000D+00
      8   0.000000D+00  0.000000D+00  0.000000D+00  0.000000D+00  0.556818D-01
      9   0.000000D+00  0.000000D+00  0.000000D+00  0.000000D+00  0.238424D+00
     10   0.000000D+00  0.000000D+00  0.000000D+00  0.000000D+00  0.000000D+00
     11   0.000000D+00  0.956954D-01  0.000000D+00  0.107135D+01  0.000000D+00
     12   0.000000D+00  0.956954D-01  0.000000D+00  0.107135D+01  0.000000D+00
     13   0.000000D+00 -0.130733D+01  0.000000D+00  0.185741D+00  0.000000D+00
     14   0.396726D+00  0.000000D+00  0.000000D+00  0.000000D+00  0.000000D+00
     15   0.000000D+00  0.000000D+00  0.000000D+00  0.000000D+00  0.254458D+00
     16   0.000000D+00  0.000000D+00  0.000000D+00  0.000000D+00 -0.593451D-01
                71            72            73            74            75 
      1  -0.981097D+02 -0.980603D+02 -0.980603D+02 -0.979514D+02 -0.979514D+02
      2   0.219633D-02  0.203484D+00 -0.254479D+00 -0.323285D+00  0.157112D+00
      3   0.944527D-02 -0.254479D+00 -0.203484D+00 -0.157112D+00 -0.323285D+00
      4   0.000000D+00  0.000000D+00  0.000000D+00  0.000000D+00  0.000000D+00
      5   0.535673D-02 -0.424646D+00  0.531066D+00  0.824744D+00 -0.400816D+00
      6   0.227922D-01  0.531066D+00  0.424646D+00  0.400816D+00  0.824744D+00
      7   0.000000D+00  0.000000D+00  0.000000D+00  0.000000D+00  0.000000D+00
      8  -0.238424D+00  0.167617D+00  0.134028D+00 -0.264530D-01 -0.544000D-01
      9   0.556818D-01  0.134028D+00 -0.167617D+00  0.544000D-01 -0.264530D-01
     10   0.000000D+00  0.000000D+00  0.000000D+00  0.000000D+00  0.000000D+00
     11   0.000000D+00  0.000000D+00  0.000000D+00  0.000000D+00  0.000000D+00
     12   0.000000D+00  0.000000D+00  0.000000D+00  0.000000D+00  0.000000D+00
     13   0.000000D+00  0.000000D+00  0.000000D+00  0.000000D+00  0.000000D+00
     14   0.000000D+00  0.000000D+00  0.000000D+00  0.000000D+00  0.000000D+00
     15   0.593451D-01  0.649294D+00 -0.812048D+00 -0.990965D-01  0.482021D-01
     16   0.254458D+00 -0.812048D+00 -0.649294D+00 -0.482021D-01 -0.990965D-01
                76            77            78            79            80 
      1  -0.979320D+02 -0.976955D+02 -0.976892D+02 -0.976892D+02 -0.975279D+02
      2   0.000000D+00  0.000000D+00 -0.888957D-01 -0.581959D-01  0.000000D+00
      3   0.000000D+00  0.000000D+00  0.581959D-01 -0.888957D-01  0.000000D+00
      4   0.108813D+00 -0.210822D+00  0.000000D+00  0.000000D+00  0.987176D-01
      5   0.000000D+00  0.000000D+00  0.178010D+00  0.116532D+00  0.000000D+00
      6   0.000000D+00  0.000000D+00 -0.116532D+00  0.178010D+00  0.000000D+00
      7  -0.255063D+00  0.589385D+00  0.000000D+00  0.000000D+00 -0.254010D+00
      8   0.000000D+00  0.000000D+00  0.600920D-01 -0.917653D-01  0.000000D+00
      9   0.000000D+00  0.000000D+00  0.917653D-01  0.600920D-01  0.000000D+00
     10   0.000000D+00  0.000000D+00  0.000000D+00  0.000000D+00  0.000000D+00
     11  -0.572684D+00  0.917184D+00  0.000000D+00  0.000000D+00  0.226346D+00
     12  -0.572684D+00  0.917184D+00  0.000000D+00  0.000000D+00  0.226346D+00
     13   0.491954D+00  0.120771D+01  0.000000D+00  0.000000D+00 -0.443438D+00
     14   0.000000D+00  0.000000D+00  0.000000D+00  0.000000D+00  0.000000D+00
     15   0.000000D+00  0.000000D+00  0.507172D-01  0.333017D-01  0.000000D+00
     16   0.000000D+00  0.000000D+00 -0.333017D-01  0.507172D-01  0.000000D+00
                81            82            83            84            85 
      1  -0.974569D+02 -0.974569D+02 -0.972528D+02 -0.969113D+02 -0.968048D+02
      2  -0.202724D-01 -0.273078D-01  0.000000D+00  0.000000D+00  0.000000D+00
      3  -0.273078D-01  0.202724D-01  0.000000D+00  0.000000D+00  0.000000D+00
      4   0.000000D+00  0.000000D+00 -0.135125D+00  0.950921D-01  0.000000D+00
      5   0.163522D-01  0.220979D-01  0.000000D+00  0.000000D+00 -0.106854D-05
      6   0.220979D-01 -0.163522D-01  0.000000D+00  0.000000D+00  0.104488D-05
      7   0.000000D+00  0.000000D+00  0.410928D+00 -0.371720D+00  0.000000D+00
      8   0.167129D+00 -0.124180D+00  0.000000D+00  0.000000D+00  0.000000D+00
      9  -0.124180D+00 -0.167129D+00  0.000000D+00  0.000000D+00  0.000000D+00
     10   0.000000D+00  0.000000D+00  0.000000D+00  0.000000D+00  0.000000D+00
     11   0.000000D+00  0.000000D+00 -0.120915D+01 -0.103764D+00  0.000000D+00
     12   0.000000D+00  0.000000D+00 -0.120915D+01 -0.103764D+00  0.000000D+00
     13   0.000000D+00  0.000000D+00 -0.896280D-01  0.398078D+00  0.000000D+00
     14   0.000000D+00  0.000000D+00  0.000000D+00  0.000000D+00  0.000000D+00
     15  -0.393266D+00 -0.529090D+00  0.000000D+00  0.000000D+00  0.000000D+00
     16  -0.529090D+00  0.393266D+00  0.000000D+00  0.000000D+00  0.000000D+00
                86            87            88            89            90 
      1  -0.968048D+02 -0.966411D+02 -0.966411D+02 -0.966152D+02 -0.966152D+02
      2   0.000000D+00  0.000000D+00  0.000000D+00  0.276313D+00  0.156120D+00
      3   0.000000D+00  0.000000D+00  0.000000D+00  0.156120D+00 -0.276313D+00
      4   0.000000D+00  0.000000D+00  0.000000D+00  0.000000D+00  0.000000D+00
      5  -0.104488D-05  0.000000D+00  0.000000D+00 -0.900736D+00 -0.508929D+00
      6  -0.106854D-05  0.000000D+00  0.000000D+00 -0.508929D+00  0.900736D+00
      7   0.000000D+00  0.000000D+00  0.000000D+00  0.000000D+00  0.000000D+00
      8   0.000000D+00  0.000000D+00  0.000000D+00  0.646696D-01 -0.114464D+00
      9   0.000000D+00  0.000000D+00  0.000000D+00 -0.114464D+00 -0.646696D-01
     10   0.000000D+00  0.000000D+00  0.000000D+00  0.000000D+00  0.000000D+00
     11   0.000000D+00  0.000000D+00 -0.127594D+00  0.000000D+00  0.000000D+00
     12   0.000000D+00  0.000000D+00  0.127594D+00  0.000000D+00  0.000000D+00
     13   0.000000D+00  0.000000D+00  0.000000D+00  0.000000D+00  0.000000D+00
     14   0.000000D+00 -0.127595D+00  0.000000D+00  0.000000D+00  0.000000D+00
     15   0.000000D+00  0.000000D+00  0.000000D+00  0.127698D+00  0.721085D-01
     16   0.000000D+00  0.000000D+00  0.000000D+00  0.721085D-01 -0.127698D+00
                91            92            93            94            95 
      1  -0.966011D+02 -0.966011D+02 -0.965833D+02 -0.963945D+02 -0.962937D+02
      2   0.000000D+00  0.000000D+00  0.000000D+00  0.000000D+00 -0.535088D-01
      3   0.000000D+00  0.000000D+00  0.000000D+00  0.000000D+00  0.500822D+00
      4   0.000000D+00  0.000000D+00  0.000000D+00  0.459243D+00  0.000000D+00
      5   0.000000D+00  0.000000D+00  0.000000D+00  0.000000D+00  0.190729D+00
      6   0.000000D+00  0.000000D+00  0.000000D+00  0.000000D+00 -0.178520D+01
      7   0.000000D+00  0.000000D+00  0.000000D+00 -0.162509D+01  0.000000D+00
      8   0.000000D+00  0.000000D+00  0.000000D+00  0.000000D+00  0.287458D+00
      9   0.000000D+00  0.000000D+00  0.000000D+00  0.000000D+00  0.307187D-01
     10   0.000000D+00  0.000000D+00  0.000000D+00  0.000000D+00  0.000000D+00
     11   0.000000D+00 -0.179774D+00  0.000000D+00  0.903660D-01  0.000000D+00
     12   0.000000D+00  0.179774D+00  0.000000D+00  0.903660D-01  0.000000D+00
     13   0.000000D+00  0.000000D+00  0.000000D+00 -0.879357D+00  0.000000D+00
     14   0.179774D+00  0.000000D+00  0.000000D+00  0.000000D+00  0.000000D+00
     15   0.000000D+00  0.000000D+00  0.000000D+00  0.000000D+00  0.803020D-01
     16   0.000000D+00  0.000000D+00  0.000000D+00  0.000000D+00 -0.751898D+00
                96            97            98            99           100 
      1  -0.962937D+02 -0.959594D+02 -0.959594D+02 -0.957875D+02 -0.957875D+02
      2   0.500822D+00  0.000000D+00  0.000000D+00  0.132359D-01  0.552747D-01
      3   0.535088D-01  0.000000D+00  0.000000D+00  0.552747D-01 -0.132359D-01
      4   0.000000D+00  0.000000D+00  0.000000D+00  0.000000D+00  0.000000D+00
      5  -0.178520D+01  0.000000D+00  0.000000D+00 -0.531751D-01 -0.222095D+00
      6  -0.190729D+00  0.000000D+00  0.000000D+00 -0.222095D+00  0.531751D-01
      7   0.000000D+00  0.000000D+00  0.000000D+00  0.000000D+00  0.000000D+00
      8   0.307187D-01  0.000000D+00  0.000000D+00  0.139231D-01 -0.332692D-02
      9  -0.287458D+00  0.000000D+00  0.000000D+00 -0.332692D-02 -0.139231D-01
     10   0.000000D+00  0.000000D+00  0.000000D+00  0.000000D+00  0.000000D+00
     11   0.000000D+00  0.000000D+00  0.826153D+00  0.000000D+00  0.000000D+00
     12   0.000000D+00  0.000000D+00 -0.826153D+00  0.000000D+00  0.000000D+00
     13   0.000000D+00  0.000000D+00  0.000000D+00  0.000000D+00  0.000000D+00
     14   0.000000D+00  0.826153D+00  0.000000D+00  0.000000D+00  0.000000D+00
     15  -0.751898D+00  0.000000D+00  0.000000D+00  0.128887D+00  0.537443D+00
     16  -0.803020D-01  0.000000D+00  0.000000D+00  0.537443D+00 -0.128887D+00
               101           102           103           104 
      1  -0.956297D+02 -0.956297D+02 -0.954594D+02 -0.948838D+02
      2  -0.178975D+00  0.621383D-01  0.000000D+00  0.000000D+00
      3  -0.621383D-01 -0.178975D+00  0.000000D+00  0.000000D+00
      4   0.000000D+00  0.000000D+00  0.272816D+00 -0.935703D-02
      5   0.786319D+00 -0.273014D+00  0.000000D+00  0.000000D+00
      6   0.273014D+00  0.786319D+00  0.000000D+00  0.000000D+00
      7   0.000000D+00  0.000000D+00 -0.123131D+01  0.140841D-01
      8  -0.335699D-01 -0.967468D-01  0.000000D+00  0.000000D+00
      9   0.967468D-01 -0.335699D-01  0.000000D+00  0.000000D+00
     10   0.000000D+00  0.000000D+00  0.000000D+00  0.000000D+00
     11   0.000000D+00  0.000000D+00  0.195375D+00 -0.221553D+00
     12   0.000000D+00  0.000000D+00  0.195375D+00 -0.221553D+00
     13   0.000000D+00  0.000000D+00 -0.108938D+01  0.383966D+00
     14   0.000000D+00  0.000000D+00  0.000000D+00  0.000000D+00
     15   0.377293D+00 -0.130830D+00  0.000000D+00  0.000000D+00
     16   0.130830D+00  0.377293D+00  0.000000D+00  0.000000D+00
 Unable to Open any file for archive entry.
 1\1\GINC-HEL25\SP\RTPSSTPSS TD-FC\Gen\F1H1\SABYASACHI\21-Mar-2022\0\\#
 P TD(Nstates=10000) tpsstpss/Gen SCF(maxcycles=100) Int(Grid=ultrafine
 )\\xGDB7_00001_tier4.com\\0,1\F,0,0.,0.,0.091801\H,0,0.,0.,-0.826212\\
 Version=EM64L-G16RevC.01\State=1-SG\HF=-100.3775581\RMSD=5.791e-09\PG=
 C*V [C*(H1F1)]\\@
 The archive entry for this job was punched.


 BUT 'GLORY' DOESN'T MEAN 'A NICE KNOCK DOWN ARGUMENT', ALICE OBJECTED.
 WHEN I USE A WORD, HUMPTY DUMPTY SAID, IN A RATHER SCORNFUL TONE,
 IT MEANS JUST WHAT I CHOOSE IT TO MEAN....
 NEITHER MORE NOR LESS....
 THE QUESTION IS, SAID ALICE,
 WHETHER YOU CAN MAKE WORDS MEAN SO MANY DIFFERENT THINGS...
 THE QUESTION IS, SAID HUMPTY DUMPTY,
 WHICH IS TO BE MASTER....
 THAT IS ALL.....

 ALICE THROUGH THE LOOKING GLASS
 Job cpu time:       0 days  0 hours  0 minutes 15.4 seconds.
 Elapsed time:       0 days  0 hours  0 minutes  2.2 seconds.
 File lengths (MBytes):  RWF=      8 Int=      0 D2E=      0 Chk=      4 Scr=      1
 Normal termination of Gaussian 16 at Mon Mar 21 20:14:49 2022.
