 Entering Gaussian System, Link 0=g16
 Input=000033.com
 Output=000033.log
 Initial command:
 /home/sabyasachi/g16/l1.exe "/scratch/sabyasachi/PBS_7976563.helios/Gau-160812.inp" -scrdir="/scratch/sabyasachi/PBS_7976563.helios/"
 Entering Link 1 = /home/sabyasachi/g16/l1.exe PID=    160813.
  
 Copyright (c) 1988-2019, Gaussian, Inc.  All Rights Reserved.
  
 This is part of the Gaussian(R) 16 program.  It is based on
 the Gaussian(R) 09 system (copyright 2009, Gaussian, Inc.),
 the Gaussian(R) 03 system (copyright 2003, Gaussian, Inc.),
 the Gaussian(R) 98 system (copyright 1998, Gaussian, Inc.),
 the Gaussian(R) 94 system (copyright 1995, Gaussian, Inc.),
 the Gaussian 92(TM) system (copyright 1992, Gaussian, Inc.),
 the Gaussian 90(TM) system (copyright 1990, Gaussian, Inc.),
 the Gaussian 88(TM) system (copyright 1988, Gaussian, Inc.),
 the Gaussian 86(TM) system (copyright 1986, Carnegie Mellon
 University), and the Gaussian 82(TM) system (copyright 1983,
 Carnegie Mellon University). Gaussian is a federally registered
 trademark of Gaussian, Inc.
  
 This software contains proprietary and confidential information,
 including trade secrets, belonging to Gaussian, Inc.
  
 This software is provided under written license and may be
 used, copied, transmitted, or stored only in accord with that
 written license.
  
 The following legend is applicable only to US Government
 contracts under FAR:
  
                    RESTRICTED RIGHTS LEGEND
  
 Use, reproduction and disclosure by the US Government is
 subject to restrictions as set forth in subparagraphs (a)
 and (c) of the Commercial Computer Software - Restricted
 Rights clause in FAR 52.227-19.
  
 Gaussian, Inc.
 340 Quinnipiac St., Bldg. 40, Wallingford CT 06492
  
  
 ---------------------------------------------------------------
 Warning -- This program may not be used in any manner that
 competes with the business of Gaussian, Inc. or will provide
 assistance to any competitor of Gaussian, Inc.  The licensee
 of this program is prohibited from giving any competitor of
 Gaussian, Inc. access to this program.  By using this program,
 the user acknowledges that Gaussian, Inc. is engaged in the
 business of creating and licensing software in the field of
 computational chemistry and represents and warrants to the
 licensee that it is not a competitor of Gaussian, Inc. and that
 it will not use this program in any manner prohibited above.
 ---------------------------------------------------------------
  

 Cite this work as:
 Gaussian 16, Revision C.01,
 M. J. Frisch, G. W. Trucks, H. B. Schlegel, G. E. Scuseria, 
 M. A. Robb, J. R. Cheeseman, G. Scalmani, V. Barone, 
 G. A. Petersson, H. Nakatsuji, X. Li, M. Caricato, A. V. Marenich, 
 J. Bloino, B. G. Janesko, R. Gomperts, B. Mennucci, H. P. Hratchian, 
 J. V. Ortiz, A. F. Izmaylov, J. L. Sonnenberg, D. Williams-Young, 
 F. Ding, F. Lipparini, F. Egidi, J. Goings, B. Peng, A. Petrone, 
 T. Henderson, D. Ranasinghe, V. G. Zakrzewski, J. Gao, N. Rega, 
 G. Zheng, W. Liang, M. Hada, M. Ehara, K. Toyota, R. Fukuda, 
 J. Hasegawa, M. Ishida, T. Nakajima, Y. Honda, O. Kitao, H. Nakai, 
 T. Vreven, K. Throssell, J. A. Montgomery, Jr., J. E. Peralta, 
 F. Ogliaro, M. J. Bearpark, J. J. Heyd, E. N. Brothers, K. N. Kudin, 
 V. N. Staroverov, T. A. Keith, R. Kobayashi, J. Normand, 
 K. Raghavachari, A. P. Rendell, J. C. Burant, S. S. Iyengar, 
 J. Tomasi, M. Cossi, J. M. Millam, M. Klene, C. Adamo, R. Cammi, 
 J. W. Ochterski, R. L. Martin, K. Morokuma, O. Farkas, 
 J. B. Foresman, and D. J. Fox, Gaussian, Inc., Wallingford CT, 2019.
 
 ******************************************
 Gaussian 16:  EM64L-G16RevC.01  3-Jul-2019
                21-Mar-2022 
 ******************************************
 %mem=64gb
 %nproc=8
 Will use up to    8 processors via shared memory.
 ----------------------------------------------------------------------
 #P TD(Nstates=10000) tpsstpss/Gen SCF(maxcycles=100) Int(Grid=ultrafin
 e)
 ----------------------------------------------------------------------
 1/38=1,172=1/1;
 2/12=2,17=6,18=5,40=1/2;
 3/5=7,11=9,25=1,30=1,74=2523,75=-5/1,2,3,8;
 4//1;
 5/5=2,7=100,38=5/2;
 8/6=1,10=1,108=10000/1;
 9/41=10000,42=1,70=2/14;
 6/7=2,8=2,9=2,10=2/1;
 99/5=1,9=1/99;
 Leave Link    1 at Mon Mar 21 20:24:02 2022, MaxMem=  8589934592 cpu:               0.4 elap:               0.1
 (Enter /home/sabyasachi/g16/l101.exe)
 ---------------------
 xGDB7_00001_tier4.com
 ---------------------
 Symbolic Z-matrix:
 Charge =  0 Multiplicity = 1
 6                     0.        0.72955  -0.36736 
 6                     0.       -0.72955  -0.36736 
 8                     0.        0.        0.84503 
 1                    -0.91895   1.26424  -0.58798 
 1                     0.91895   1.26424  -0.58798 
 1                     0.91895  -1.26424  -0.58798 
 1                    -0.91895  -1.26424  -0.58798 
 
 ITRead=  0  0  0  0  0  0  0
 MicOpt= -1 -1 -1 -1 -1 -1 -1
 NAtoms=      7 NQM=        7 NQMF=       0 NMMI=      0 NMMIF=      0
                NMic=       0 NMicF=      0.
                    Isotopes and Nuclear Properties:
 (Nuclear quadrupole moments (NQMom) in fm**2, nuclear magnetic moments (NMagM)
  in nuclear magnetons)

  Atom         1           2           3           4           5           6           7
 IAtWgt=          12          12          16           1           1           1           1
 AtmWgt=  12.0000000  12.0000000  15.9949146   1.0078250   1.0078250   1.0078250   1.0078250
 NucSpn=           0           0           0           1           1           1           1
 AtZEff=  -0.0000000  -0.0000000  -0.0000000  -0.0000000  -0.0000000  -0.0000000  -0.0000000
 NQMom=    0.0000000   0.0000000   0.0000000   0.0000000   0.0000000   0.0000000   0.0000000
 NMagM=    0.0000000   0.0000000   0.0000000   2.7928460   2.7928460   2.7928460   2.7928460
 AtZNuc=   6.0000000   6.0000000   8.0000000   1.0000000   1.0000000   1.0000000   1.0000000
 Leave Link  101 at Mon Mar 21 20:24:02 2022, MaxMem=  8589934592 cpu:               0.6 elap:               0.1
 (Enter /home/sabyasachi/g16/l202.exe)
                          Input orientation:                          
 ---------------------------------------------------------------------
 Center     Atomic      Atomic             Coordinates (Angstroms)
 Number     Number       Type             X           Y           Z
 ---------------------------------------------------------------------
      1          6           0        0.000000    0.729549   -0.367364
      2          6           0        0.000000   -0.729549   -0.367364
      3          8           0        0.000000    0.000000    0.845033
      4          1           0       -0.918945    1.264243   -0.587975
      5          1           0        0.918945    1.264243   -0.587975
      6          1           0        0.918945   -1.264243   -0.587975
      7          1           0       -0.918945   -1.264243   -0.587975
 ---------------------------------------------------------------------
                    Distance matrix (angstroms):
                    1          2          3          4          5
     1  C    0.000000
     2  C    1.459098   0.000000
     3  O    1.414973   1.414973   0.000000
     4  H    1.085830   2.206431   2.120444   0.000000
     5  H    1.085830   2.206431   2.120444   1.837890   0.000000
     6  H    2.206431   1.085830   2.120444   3.125873   2.528486
     7  H    2.206431   1.085830   2.120444   2.528486   3.125873
                    6          7
     6  H    0.000000
     7  H    1.837890   0.000000
 Stoichiometry    C2H4O
 Framework group  C2V[C2(O),SGV(C2),X(H4)]
 Deg. of freedom     5
 Full point group                 C2V     NOp   4
 Largest Abelian subgroup         C2V     NOp   4
 Largest concise Abelian subgroup C2V     NOp   4
                         Standard orientation:                         
 ---------------------------------------------------------------------
 Center     Atomic      Atomic             Coordinates (Angstroms)
 Number     Number       Type             X           Y           Z
 ---------------------------------------------------------------------
      1          6           0        0.000000    0.729549   -0.367364
      2          6           0       -0.000000   -0.729549   -0.367364
      3          8           0       -0.000000   -0.000000    0.845033
      4          1           0       -0.918945    1.264243   -0.587975
      5          1           0        0.918945    1.264243   -0.587975
      6          1           0        0.918945   -1.264243   -0.587975
      7          1           0       -0.918945   -1.264243   -0.587975
 ---------------------------------------------------------------------
 Rotational constants (GHZ):          26.1375833          22.3408058          14.3785431
 Leave Link  202 at Mon Mar 21 20:24:02 2022, MaxMem=  8589934592 cpu:               0.1 elap:               0.0
 (Enter /home/sabyasachi/g16/l301.exe)
 General basis read from cards:  (5D, 7F)
 Centers:       4      5      6      7
 S 3 1.00
     Exponent=  1.3010701000D+01 Coefficients=  1.9682158000D-02
     Exponent=  1.9622572000D+00 Coefficients=  1.3796524000D-01
     Exponent=  4.4453796000D-01 Coefficients=  4.7831935000D-01
 S 1 1.00
     Exponent=  1.2194962000D-01 Coefficients=  1.0000000000D+00
 P 1 1.00
     Exponent=  8.0000000000D-01 Coefficients=  1.0000000000D+00
 P 1 1.00
     Exponent=  1.1704099050D-01 Coefficients=  1.0000000000D+00
 ****
 Centers:       1      2
 S 5 1.00
     Exponent=  1.2384016938D+03 Coefficients=  5.4568832082D-03
     Exponent=  1.8629004992D+02 Coefficients=  4.0638409211D-02
     Exponent=  4.2251176346D+01 Coefficients=  1.8025593888D-01
     Exponent=  1.1676557932D+01 Coefficients=  4.6315121755D-01
     Exponent=  3.5930506482D+00 Coefficients=  4.4087173314D-01
 S 1 1.00
     Exponent=  4.0245147363D-01 Coefficients=  1.0000000000D+00
 S 1 1.00
     Exponent=  1.3090182668D-01 Coefficients=  1.0000000000D+00
 S 1 1.00
     Exponent=  6.7053540256D-02 Coefficients=  1.0000000000D+00
 P 3 1.00
     Exponent=  9.4680970621D+00 Coefficients=  3.8387871728D-02
     Exponent=  2.0103545142D+00 Coefficients=  2.1117025112D-01
     Exponent=  5.4771004707D-01 Coefficients=  5.1328172114D-01
 P 1 1.00
     Exponent=  1.5268613795D-01 Coefficients=  1.0000000000D+00
 D 1 1.00
     Exponent=  8.0000000000D-01 Coefficients=  1.0000000000D+00
 D 1 1.00
     Exponent=  1.1713185140D-01 Coefficients=  1.0000000000D+00
 ****
 Centers:       3
 S 5 1.00
     Exponent=  2.2661767785D+03 Coefficients= -5.3431809926D-03
     Exponent=  3.4087010191D+02 Coefficients= -3.9890039230D-02
     Exponent=  7.7363135167D+01 Coefficients= -1.7853911985D-01
     Exponent=  2.1479644940D+01 Coefficients= -4.6427684959D-01
     Exponent=  6.6589433124D+00 Coefficients= -4.4309745172D-01
 S 1 1.00
     Exponent=  8.0975975668D-01 Coefficients=  1.0000000000D+00
 S 1 1.00
     Exponent=  2.5530772234D-01 Coefficients=  1.0000000000D+00
 S 1 1.00
     Exponent=  7.6572453250D-02 Coefficients=  1.0000000000D+00
 P 3 1.00
     Exponent=  1.7721504317D+01 Coefficients=  4.3394573193D-02
     Exponent=  3.8635505440D+00 Coefficients=  2.3094120765D-01
     Exponent=  1.0480920883D+00 Coefficients=  5.1375311064D-01
 P 1 1.00
     Exponent=  2.7641544411D-01 Coefficients=  1.0000000000D+00
 P 1 1.00
     Exponent=  6.9002276350D-02 Coefficients=  1.0000000000D+00
 D 1 1.00
     Exponent=  1.2000000000D+00 Coefficients=  1.0000000000D+00
 D 1 1.00
     Exponent=  1.7992024323D-01 Coefficients=  1.0000000000D+00
 ****
 Ernie: Thresh=  0.10000D-02 Tol=  0.10000D-05 Strict=F.
 There are    37 symmetry adapted cartesian basis functions of A1  symmetry.
 There are    16 symmetry adapted cartesian basis functions of A2  symmetry.
 There are    19 symmetry adapted cartesian basis functions of B1  symmetry.
 There are    29 symmetry adapted cartesian basis functions of B2  symmetry.
 There are    33 symmetry adapted basis functions of A1  symmetry.
 There are    16 symmetry adapted basis functions of A2  symmetry.
 There are    19 symmetry adapted basis functions of B1  symmetry.
 There are    27 symmetry adapted basis functions of B2  symmetry.
    95 basis functions,   139 primitive gaussians,   101 cartesian basis functions
    12 alpha electrons       12 beta electrons
       nuclear repulsion energy        75.7300204600 Hartrees.
 IExCor= 2523 DFT=T Ex=TPSS Corr=TPSS ExCW=0 ScaHFX=  0.000000
 ScaDFX=  1.000000  1.000000  1.000000  1.000000 ScalE2=  1.000000  1.000000
 IRadAn=      5 IRanWt=     -1 IRanGd=            0 ICorTp=0 IEmpDi=  4
 NAtoms=    7 NActive=    7 NUniq=    3 SFac= 4.00D+00 NAtFMM=   60 NAOKFM=F Big=F
 Integral buffers will be    131072 words long.
 Regular integral format.
 Two-electron integral symmetry is turned on.
 Leave Link  301 at Mon Mar 21 20:24:02 2022, MaxMem=  8589934592 cpu:               0.6 elap:               0.1
 (Enter /home/sabyasachi/g16/l302.exe)
 NPDir=0 NMtPBC=     1 NCelOv=     1 NCel=       1 NClECP=     1 NCelD=      1
         NCelK=      1 NCelE2=     1 NClLst=     1 CellRange=     0.0.
 One-electron integrals computed using PRISM.
 One-electron integral symmetry used in STVInt
 NBasis=    95 RedAO= T EigKep=  1.49D-04  NBF=    33    16    19    27
 NBsUse=    95 1.00D-06 EigRej= -1.00D+00 NBFU=    33    16    19    27
 Precomputing XC quadrature grid using
 IXCGrd= 4 IRadAn=           5 IRanWt=          -1 IRanGd=           0 AccXCQ= 0.00D+00.
 Generated NRdTot=       0 NPtTot=           0 NUsed=           0 NTot=          32
 NSgBfM=   101   101   101   101   101 MxSgAt=     7 MxSgA2=     7.
 Leave Link  302 at Mon Mar 21 20:24:02 2022, MaxMem=  8589934592 cpu:               0.9 elap:               0.1
 (Enter /home/sabyasachi/g16/l303.exe)
 DipDrv:  MaxL=1.
 Leave Link  303 at Mon Mar 21 20:24:02 2022, MaxMem=  8589934592 cpu:               0.2 elap:               0.0
 (Enter /home/sabyasachi/g16/l308.exe)
 Leave Link  308 at Mon Mar 21 20:24:02 2022, MaxMem=  8589934592 cpu:               0.2 elap:               0.0
 (Enter /home/sabyasachi/g16/l401.exe)
 ExpMin= 6.71D-02 ExpMax= 2.27D+03 ExpMxC= 3.41D+02 IAcc=3 IRadAn=         5 AccDes= 0.00D+00
 Harris functional with IExCor= 1009 and IRadAn=       5 diagonalized for initial guess.
 HarFok:  IExCor= 1009 AccDes= 0.00D+00 IRadAn=         5 IDoV= 1 UseB2=F ITyADJ=14
 ICtDFT=  3500011 ScaDFX=  1.000000  1.000000  1.000000  1.000000
 FoFCou: FMM=F IPFlag=           0 FMFlag=      100000 FMFlg1=           0
         NFxFlg=           0 DoJE=T BraDBF=F KetDBF=T FulRan=T
         wScrn=  0.000000 ICntrl=       500 IOpCl=  0 I1Cent=   200000004 NGrid=           0
         NMat0=    1 NMatS0=      1 NMatT0=    0 NMatD0=    1 NMtDS0=    0 NMtDT0=    0
 Petite list used in FoFCou.
 Harris En= -153.543068439885    
 JPrj=0 DoOrth=F DoCkMO=F.
 Initial guess orbital symmetries:
       Occupied  (A1) (A1) (B2) (A1) (A1) (B2) (B1) (A1) (B2) (A2)
                 (A1) (B1)
       Virtual   (B2) (A1) (A1) (B2) (B1) (A1) (A2) (A1) (B2) (B1)
                 (B2) (B1) (A1) (A1) (B2) (A2) (B1) (A1) (B2) (B1)
                 (A1) (B2) (A2) (A1) (A2) (B2) (A1) (B1) (A2) (B2)
                 (A1) (B1) (B2) (B2) (A1) (B1) (B2) (A1) (A2) (A1)
                 (A2) (A1) (B1) (B2) (A2) (B2) (A1) (B1) (B2) (A1)
                 (B2) (A2) (B1) (A1) (B1) (A2) (A1) (B2) (A1) (B1)
                 (B1) (B2) (A2) (A1) (B2) (A1) (A2) (A1) (B1) (B2)
                 (A1) (B2) (A2) (B2) (B1) (A1) (A1) (A2) (B2) (B1)
                 (A2) (A1) (B2)
 The electronic state of the initial guess is 1-A1.
 Leave Link  401 at Mon Mar 21 20:24:02 2022, MaxMem=  8589934592 cpu:               1.5 elap:               0.2
 (Enter /home/sabyasachi/g16/l502.exe)
 Keep J ints in memory in symmetry-blocked form, NReq=17830952.
 FoFCou: FMM=F IPFlag=           0 FMFlag=           0 FMFlg1=           0
         NFxFlg=           0 DoJE=F BraDBF=F KetDBF=F FulRan=T
         wScrn=  0.000000 ICntrl=       600 IOpCl=  0 I1Cent=           0 NGrid=           0
         NMat0=    1 NMatS0=   4560 NMatT0=    0 NMatD0=    1 NMtDS0=    0 NMtDT0=    0
 Petite list used in FoFCou.
 Closed shell SCF:
 Using DIIS extrapolation, IDIIS=  1040.
 NGot=  8589934592 LenX=  8587281350 LenY=  8587270708
 Requested convergence on RMS density matrix=1.00D-08 within 100 cycles.
 Requested convergence on MAX density matrix=1.00D-06.
 Requested convergence on             energy=1.00D-06.
 No special actions if energy rises.
 Integral accuracy reduced to 1.0D-05 until final iterations.

 Cycle   1  Pass 0  IDiag  1:
 E= -153.672661974184    
 DIIS: error= 2.71D-02 at cycle   1 NSaved=   1.
 NSaved= 1 IEnMin= 1 EnMin= -153.672661974184     IErMin= 1 ErrMin= 2.71D-02
 ErrMax= 2.71D-02  0.00D+00 EMaxC= 1.00D-01 BMatC= 3.77D-02 BMatP= 3.77D-02
 IDIUse=3 WtCom= 7.29D-01 WtEn= 2.71D-01
 Coeff-Com:  0.100D+01
 Coeff-En:   0.100D+01
 Coeff:      0.100D+01
 Gap=     0.239 Goal=   None    Shift=    0.000
 GapD=    0.239 DampG=1.000 DampE=0.500 DampFc=0.5000 IDamp=-1.
 Damping current iteration by 5.00D-01
 RMSDP=4.98D-03 MaxDP=8.53D-02              OVMax= 1.31D-01

 Cycle   2  Pass 0  IDiag  1:
 E= -153.688088028196     Delta-E=       -0.015426054013 Rises=F Damp=T
 DIIS: error= 8.63D-03 at cycle   2 NSaved=   2.
 NSaved= 2 IEnMin= 2 EnMin= -153.688088028196     IErMin= 2 ErrMin= 8.63D-03
 ErrMax= 8.63D-03  0.00D+00 EMaxC= 1.00D-01 BMatC= 5.05D-03 BMatP= 3.77D-02
 IDIUse=3 WtCom= 9.14D-01 WtEn= 8.63D-02
 Coeff-Com:  0.154D+00 0.846D+00
 Coeff-En:   0.235D+00 0.765D+00
 Coeff:      0.161D+00 0.839D+00
 Gap=     0.265 Goal=   None    Shift=    0.000
 RMSDP=1.77D-03 MaxDP=2.14D-02 DE=-1.54D-02 OVMax= 8.81D-02

 Cycle   3  Pass 0  IDiag  1:
 E= -153.711400527554     Delta-E=       -0.023312499357 Rises=F Damp=F
 DIIS: error= 7.20D-03 at cycle   3 NSaved=   3.
 NSaved= 3 IEnMin= 3 EnMin= -153.711400527554     IErMin= 3 ErrMin= 7.20D-03
 ErrMax= 7.20D-03  0.00D+00 EMaxC= 1.00D-01 BMatC= 3.87D-03 BMatP= 5.05D-03
 IDIUse=3 WtCom= 9.28D-01 WtEn= 7.20D-02
 Coeff-Com:  0.230D-01 0.455D+00 0.522D+00
 Coeff-En:   0.000D+00 0.000D+00 0.100D+01
 Coeff:      0.213D-01 0.422D+00 0.556D+00
 Gap=     0.249 Goal=   None    Shift=    0.000
 RMSDP=7.99D-04 MaxDP=1.92D-02 DE=-2.33D-02 OVMax= 2.86D-02

 Cycle   4  Pass 0  IDiag  1:
 E= -153.713006167175     Delta-E=       -0.001605639621 Rises=F Damp=F
 DIIS: error= 4.47D-03 at cycle   4 NSaved=   4.
 NSaved= 4 IEnMin= 4 EnMin= -153.713006167175     IErMin= 4 ErrMin= 4.47D-03
 ErrMax= 4.47D-03  0.00D+00 EMaxC= 1.00D-01 BMatC= 1.80D-03 BMatP= 3.87D-03
 IDIUse=3 WtCom= 9.55D-01 WtEn= 4.47D-02
 Coeff-Com: -0.552D-02 0.132D+00 0.401D+00 0.472D+00
 Coeff-En:   0.000D+00 0.000D+00 0.356D+00 0.644D+00
 Coeff:     -0.527D-02 0.126D+00 0.399D+00 0.480D+00
 Gap=     0.255 Goal=   None    Shift=    0.000
 RMSDP=3.60D-04 MaxDP=8.31D-03 DE=-1.61D-03 OVMax= 1.24D-02

 Cycle   5  Pass 0  IDiag  1:
 E= -153.714410861895     Delta-E=       -0.001404694720 Rises=F Damp=F
 DIIS: error= 3.71D-04 at cycle   5 NSaved=   5.
 NSaved= 5 IEnMin= 5 EnMin= -153.714410861895     IErMin= 5 ErrMin= 3.71D-04
 ErrMax= 3.71D-04  0.00D+00 EMaxC= 1.00D-01 BMatC= 1.44D-05 BMatP= 1.80D-03
 IDIUse=3 WtCom= 9.96D-01 WtEn= 3.71D-03
 Coeff-Com: -0.342D-02 0.106D-01 0.939D-01 0.160D+00 0.738D+00
 Coeff-En:   0.000D+00 0.000D+00 0.000D+00 0.000D+00 0.100D+01
 Coeff:     -0.341D-02 0.106D-01 0.935D-01 0.160D+00 0.739D+00
 Gap=     0.255 Goal=   None    Shift=    0.000
 RMSDP=5.23D-05 MaxDP=6.40D-04 DE=-1.40D-03 OVMax= 7.75D-04

 Cycle   6  Pass 0  IDiag  1:
 E= -153.714421793380     Delta-E=       -0.000010931485 Rises=F Damp=F
 DIIS: error= 1.07D-05 at cycle   6 NSaved=   6.
 NSaved= 6 IEnMin= 6 EnMin= -153.714421793380     IErMin= 6 ErrMin= 1.07D-05
 ErrMax= 1.07D-05  0.00D+00 EMaxC= 1.00D-01 BMatC= 8.48D-09 BMatP= 1.44D-05
 IDIUse=1 WtCom= 1.00D+00 WtEn= 0.00D+00
 Coeff-Com: -0.444D-03 0.841D-03 0.738D-02 0.141D-01 0.746D-01 0.904D+00
 Coeff:     -0.444D-03 0.841D-03 0.738D-02 0.141D-01 0.746D-01 0.904D+00
 Gap=     0.255 Goal=   None    Shift=    0.000
 RMSDP=2.21D-06 MaxDP=2.03D-05 DE=-1.09D-05 OVMax= 3.50D-05

 Initial convergence to 1.0D-05 achieved.  Increase integral accuracy.
 Cycle   7  Pass 1  IDiag  1:
 E= -153.714429300286     Delta-E=       -0.000007506906 Rises=F Damp=F
 DIIS: error= 4.38D-06 at cycle   1 NSaved=   1.
 NSaved= 1 IEnMin= 1 EnMin= -153.714429300286     IErMin= 1 ErrMin= 4.38D-06
 ErrMax= 4.38D-06  0.00D+00 EMaxC= 1.00D-01 BMatC= 1.31D-09 BMatP= 1.31D-09
 IDIUse=1 WtCom= 1.00D+00 WtEn= 0.00D+00
 Coeff-Com:  0.100D+01
 Coeff:      0.100D+01
 Gap=     0.255 Goal=   None    Shift=    0.000
 RMSDP=2.21D-06 MaxDP=2.03D-05 DE=-7.51D-06 OVMax= 2.18D-05

 Cycle   8  Pass 1  IDiag  1:
 E= -153.714429302237     Delta-E=       -0.000000001951 Rises=F Damp=F
 DIIS: error= 2.73D-06 at cycle   2 NSaved=   2.
 NSaved= 2 IEnMin= 2 EnMin= -153.714429302237     IErMin= 2 ErrMin= 2.73D-06
 ErrMax= 2.73D-06  0.00D+00 EMaxC= 1.00D-01 BMatC= 4.41D-10 BMatP= 1.31D-09
 IDIUse=1 WtCom= 1.00D+00 WtEn= 0.00D+00
 Coeff-Com:  0.310D+00 0.690D+00
 Coeff:      0.310D+00 0.690D+00
 Gap=     0.255 Goal=   None    Shift=    0.000
 RMSDP=3.64D-07 MaxDP=8.26D-06 DE=-1.95D-09 OVMax= 1.35D-05

 Cycle   9  Pass 1  IDiag  1:
 E= -153.714429302106     Delta-E=        0.000000000132 Rises=F Damp=F
 DIIS: error= 3.20D-06 at cycle   3 NSaved=   3.
 NSaved= 3 IEnMin= 2 EnMin= -153.714429302237     IErMin= 2 ErrMin= 2.73D-06
 ErrMax= 3.20D-06  0.00D+00 EMaxC= 1.00D-01 BMatC= 6.87D-10 BMatP= 4.41D-10
 IDIUse=1 WtCom= 1.00D+00 WtEn= 0.00D+00
 Coeff-Com:  0.490D-01 0.541D+00 0.410D+00
 Coeff:      0.490D-01 0.541D+00 0.410D+00
 Gap=     0.255 Goal=   None    Shift=    0.000
 RMSDP=2.15D-07 MaxDP=5.38D-06 DE= 1.32D-10 OVMax= 7.27D-06

 Cycle  10  Pass 1  IDiag  1:
 E= -153.714429302630     Delta-E=       -0.000000000524 Rises=F Damp=F
 DIIS: error= 2.88D-07 at cycle   4 NSaved=   4.
 NSaved= 4 IEnMin= 4 EnMin= -153.714429302630     IErMin= 4 ErrMin= 2.88D-07
 ErrMax= 2.88D-07  0.00D+00 EMaxC= 1.00D-01 BMatC= 6.86D-12 BMatP= 4.41D-10
 IDIUse=1 WtCom= 1.00D+00 WtEn= 0.00D+00
 Coeff-Com: -0.288D-02 0.196D+00 0.163D+00 0.643D+00
 Coeff:     -0.288D-02 0.196D+00 0.163D+00 0.643D+00
 Gap=     0.255 Goal=   None    Shift=    0.000
 RMSDP=3.36D-08 MaxDP=6.03D-07 DE=-5.24D-10 OVMax= 7.69D-07

 Cycle  11  Pass 1  IDiag  1:
 E= -153.714429302640     Delta-E=       -0.000000000010 Rises=F Damp=F
 DIIS: error= 9.68D-08 at cycle   5 NSaved=   5.
 NSaved= 5 IEnMin= 5 EnMin= -153.714429302640     IErMin= 5 ErrMin= 9.68D-08
 ErrMax= 9.68D-08  0.00D+00 EMaxC= 1.00D-01 BMatC= 5.91D-13 BMatP= 6.86D-12
 IDIUse=1 WtCom= 1.00D+00 WtEn= 0.00D+00
 Coeff-Com: -0.263D-02 0.848D-01 0.714D-01 0.337D+00 0.509D+00
 Coeff:     -0.263D-02 0.848D-01 0.714D-01 0.337D+00 0.509D+00
 Gap=     0.255 Goal=   None    Shift=    0.000
 RMSDP=8.19D-09 MaxDP=1.81D-07 DE=-9.69D-12 OVMax= 1.92D-07

 SCF Done:  E(RTPSS-TPSS) =  -153.714429303     A.U. after   11 cycles
            NFock= 11  Conv=0.82D-08     -V/T= 2.0091
 KE= 1.523227817276D+02 PE=-5.100605048260D+02 EE= 1.282932733358D+02
 Leave Link  502 at Mon Mar 21 20:24:04 2022, MaxMem=  8589934592 cpu:               9.3 elap:               1.2
 (Enter /home/sabyasachi/g16/l801.exe)
 DoSCS=F DFT=T ScalE2(SS,OS)=  1.000000  1.000000
 ExpMin= 6.71D-02 ExpMax= 2.27D+03 ExpMxC= 3.41D+02 IAcc=3 IRadAn=         5 AccDes= 0.00D+00
 HarFok:  IExCor=  205 AccDes= 0.00D+00 IRadAn=         5 IDoV=-2 UseB2=F ITyADJ=14
 ICtDFT= 12500011 ScaDFX=  1.000000  1.000000  1.000000  1.000000
 Largest valence mixing into a core orbital is  8.49D-05
 Largest core mixing into a valence orbital is  2.71D-05
 Range of M.O.s used for correlation:     4    95
 NBasis=    95 NAE=    12 NBE=    12 NFC=     3 NFV=     0
 NROrb=     92 NOA=     9 NOB=     9 NVA=    83 NVB=    83

 **** Warning!!: The largest alpha MO coefficient is  0.29639173D+02

 Leave Link  801 at Mon Mar 21 20:24:04 2022, MaxMem=  8589934592 cpu:               0.5 elap:               0.1
 (Enter /home/sabyasachi/g16/l914.exe)
 RHF ground state
 Keep J ints in memory in symmetry-blocked form, NReq=638136964.
 FoFCou: FMM=F IPFlag=           0 FMFlag=           0 FMFlg1=           0
         NFxFlg=           0 DoJE=F BraDBF=F KetDBF=F FulRan=T
         wScrn=  0.000000 ICntrl=       600 IOpCl=  0 I1Cent=           0 NGrid=           0
         NMat0=    1 NMatS0=   4560 NMatT0=    0 NMatD0=    1 NMtDS0=    0 NMtDT0=    0
 Petite list used in FoFCou.
 MDV=  8589934592 DFT=T DoStab=F Mixed=F DoRPA=T DoScal=T NonHer=F
 Making orbital integer symmetry assigments:
 Orbital symmetries:
       Occupied  (A1) (A1) (B2) (A1) (A1) (B2) (B1) (A1) (B2) (A2)
                 (A1) (B1)
       Virtual   (A1) (B2) (A1) (B1) (B2) (A1) (A2) (A1) (B2) (B1)
                 (B2) (B1) (A1) (A2) (A1) (B2) (B1) (A1) (B2) (B1)
                 (A1) (A2) (B2) (A1) (B2) (A2) (A1) (B2) (B1) (A2)
                 (A1) (B1) (B2) (B2) (A1) (B2) (B1) (A2) (A1) (A1)
                 (A2) (A1) (B1) (B2) (A2) (B2) (A1) (B1) (B2) (A1)
                 (B2) (A2) (B1) (A1) (B1) (A2) (A1) (B2) (A1) (B1)
                 (B1) (B2) (A1) (A2) (B2) (A1) (A2) (B1) (A1) (B2)
                 (A1) (B2) (A2) (B2) (B1) (A1) (A1) (A2) (B2) (B1)
                 (A2) (A1) (B2)
   747 initial guesses have been made.
 Convergence on wavefunction:    0.001000000000000
 Davidson Disk Diagonalization:  ConvIn= 1.00D-03 SkipCon=T Conv= 1.00D-03.
 Max sub-space:  2988 roots to seek:  1494 dimension of matrix:         1494
 *** WARNING: Number of orthogonal guesses is          747
 Iteration     1 Dimension   747 NMult     0 NNew    747
 CISAX will form   747 AO SS matrices at one time.
 NMat=   747 NSing=   747 JSym2X=-1.
 New state     11 was old state     12
 New state     12 was old state     13
 New state     13 was old state     11
 New state     14 was old state     15
 New state     15 was old state     14
 New state     16 was old state     17
 New state     17 was old state     16
 New state     19 was old state     20
 New state     20 was old state     19
 New state     22 was old state     24
 New state     23 was old state     25
 New state     24 was old state     23
 New state     25 was old state     22
 New state     31 was old state     32
 New state     32 was old state     33
 New state     33 was old state     34
 New state     34 was old state     35
 New state     35 was old state     36
 New state     36 was old state     38
 New state     38 was old state     31
 New state     39 was old state     40
 New state     40 was old state     41
 New state     41 was old state     42
 New state     42 was old state     39
 New state     43 was old state     46
 New state     44 was old state     47
 New state     45 was old state     43
 New state     46 was old state     48
 New state     47 was old state     45
 New state     48 was old state     44
 New state     50 was old state     51
 New state     51 was old state     50
 New state     52 was old state     53
 New state     53 was old state     54
 New state     54 was old state     55
 New state     55 was old state     52
 New state     56 was old state     57
 New state     57 was old state     56
 New state     59 was old state     60
 New state     60 was old state     64
 New state     61 was old state     66
 New state     62 was old state     59
 New state     63 was old state     67
 New state     64 was old state     65
 New state     65 was old state     68
 New state     66 was old state     63
 New state     67 was old state     69
 New state     68 was old state     61
 New state     69 was old state     71
 New state     71 was old state     62
 New state     75 was old state     77
 New state     76 was old state     75
 New state     77 was old state     76
 New state     78 was old state     79
 New state     79 was old state     78
 New state     80 was old state     82
 New state     81 was old state     80
 New state     82 was old state     81
 New state     86 was old state     87
 New state     87 was old state     88
 New state     88 was old state     89
 New state     89 was old state     91
 New state     91 was old state     92
 New state     92 was old state     94
 New state     94 was old state     95
 New state     95 was old state     98
 New state     96 was old state     99
 New state     98 was old state    104
 New state     99 was old state    102
 New state    101 was old state    106
 New state    102 was old state    103
 New state    103 was old state    101
 New state    104 was old state    105
 New state    105 was old state    115
 New state    106 was old state    108
 New state    107 was old state    109
 New state    108 was old state    107
 New state    109 was old state    113
 New state    110 was old state    111
 New state    111 was old state    114
 New state    112 was old state    116
 New state    113 was old state    118
 New state    114 was old state    117
 New state    115 was old state    112
 New state    116 was old state    121
 New state    117 was old state    120
 New state    118 was old state    119
 New state    119 was old state    123
 New state    120 was old state    122
 New state    121 was old state    141
 New state    122 was old state    126
 New state    123 was old state    110
 New state    124 was old state    125
 New state    125 was old state    128
 New state    126 was old state    124
 New state    128 was old state    130
 New state    129 was old state    131
 New state    130 was old state    132
 New state    131 was old state    133
 New state    132 was old state    129
 New state    133 was old state    136
 New state    134 was old state    135
 New state    135 was old state    134
 New state    136 was old state    138
 New state    138 was old state    146
 New state    141 was old state    142
 New state    142 was old state    144
 New state    143 was old state    153
 New state    144 was old state    147
 New state    146 was old state    148
 New state    147 was old state    150
 New state    148 was old state    156
 New state    149 was old state    151
 New state    150 was old state    143
 New state    151 was old state    152
 New state    152 was old state    159
 New state    153 was old state    174
 New state    154 was old state    157
 New state    155 was old state    158
 New state    156 was old state    154
 New state    157 was old state    155
 New state    158 was old state    160
 New state    159 was old state    164
 New state    160 was old state    149
 New state    161 was old state    162
 New state    162 was old state    163
 New state    163 was old state    166
 New state    164 was old state    168
 New state    165 was old state    167
 New state    166 was old state    161
 New state    167 was old state    170
 New state    168 was old state    169
 New state    169 was old state    172
 New state    170 was old state    173
 New state    171 was old state    178
 New state    172 was old state    175
 New state    173 was old state    165
 New state    174 was old state    179
 New state    175 was old state    176
 New state    176 was old state    177
 New state    177 was old state    184
 New state    178 was old state    171
 New state    179 was old state    180
 New state    180 was old state    183
 New state    181 was old state    182
 New state    182 was old state    181
 New state    183 was old state    187
 New state    184 was old state    186
 New state    186 was old state    189
 New state    187 was old state    191
 New state    189 was old state    201
 New state    190 was old state    195
 New state    191 was old state    190
 New state    193 was old state    194
 New state    194 was old state    193
 New state    195 was old state    203
 New state    196 was old state    197
 New state    197 was old state    200
 New state    199 was old state    196
 New state    200 was old state    199
 New state    201 was old state    202
 New state    202 was old state    205
 New state    203 was old state    204
 New state    204 was old state    209
 New state    205 was old state    208
 New state    207 was old state    214
 New state    208 was old state    210
 New state    209 was old state    207
 New state    210 was old state    222
 New state    211 was old state    212
 New state    212 was old state    213
 New state    213 was old state    215
 New state    214 was old state    211
 New state    215 was old state    216
 New state    216 was old state    218
 New state    217 was old state    219
 New state    218 was old state    217
 New state    219 was old state    220
 New state    220 was old state    221
 New state    221 was old state    223
 New state    222 was old state    224
 New state    223 was old state    226
 New state    224 was old state    225
 New state    225 was old state    228
 New state    226 was old state    227
 New state    227 was old state    231
 New state    228 was old state    229
 New state    229 was old state    235
 New state    230 was old state    236
 New state    231 was old state    234
 New state    233 was old state    239
 New state    234 was old state    233
 New state    235 was old state    230
 New state    236 was old state    242
 New state    238 was old state    240
 New state    239 was old state    241
 New state    240 was old state    243
 New state    241 was old state    244
 New state    242 was old state    251
 New state    243 was old state    246
 New state    244 was old state    245
 New state    245 was old state    248
 New state    246 was old state    249
 New state    248 was old state    250
 New state    249 was old state    253
 New state    250 was old state    252
 New state    251 was old state    256
 New state    252 was old state    238
 New state    253 was old state    254
 New state    254 was old state    260
 New state    255 was old state    264
 New state    256 was old state    258
 New state    258 was old state    259
 New state    259 was old state    262
 New state    260 was old state    261
 New state    261 was old state    263
 New state    262 was old state    255
 New state    263 was old state    265
 New state    264 was old state    272
 New state    265 was old state    268
 New state    266 was old state    269
 New state    267 was old state    270
 New state    268 was old state    266
 New state    269 was old state    267
 New state    270 was old state    271
 New state    271 was old state    274
 New state    272 was old state    273
 New state    273 was old state    276
 New state    274 was old state    280
 New state    275 was old state    279
 New state    276 was old state    277
 New state    277 was old state    282
 New state    279 was old state    289
 New state    280 was old state    281
 New state    281 was old state    283
 New state    282 was old state    275
 New state    283 was old state    285
 New state    284 was old state    286
 New state    285 was old state    284
 New state    286 was old state    288
 New state    287 was old state    306
 New state    288 was old state    287
 New state    289 was old state    290
 New state    290 was old state    291
 New state    291 was old state    292
 New state    292 was old state    293
 New state    293 was old state    295
 New state    294 was old state    296
 New state    295 was old state    300
 New state    296 was old state    294
 New state    298 was old state    299
 New state    299 was old state    311
 New state    300 was old state    302
 New state    301 was old state    303
 New state    302 was old state    301
 New state    303 was old state    298
 New state    304 was old state    307
 New state    305 was old state    304
 New state    306 was old state    308
 New state    307 was old state    305
 New state    308 was old state    310
 New state    310 was old state    324
 New state    311 was old state    312
 New state    312 was old state    314
 New state    314 was old state    315
 New state    315 was old state    316
 New state    316 was old state    319
 New state    317 was old state    318
 New state    318 was old state    320
 New state    319 was old state    317
 New state    320 was old state    321
 New state    321 was old state    327
 New state    323 was old state    325
 New state    324 was old state    323
 New state    325 was old state    331
 New state    327 was old state    341
 New state    328 was old state    329
 New state    329 was old state    328
 New state    331 was old state    332
 New state    332 was old state    334
 New state    334 was old state    335
 New state    335 was old state    339
 New state    339 was old state    340
 New state    340 was old state    345
 New state    341 was old state    343
 New state    343 was old state    344
 New state    344 was old state    347
 New state    345 was old state    355
 New state    347 was old state    352
 New state    351 was old state    353
 New state    352 was old state    351
 New state    353 was old state    354
 New state    354 was old state    358
 New state    355 was old state    360
 New state    358 was old state    361
 New state    360 was old state    362
 New state    361 was old state    363
 New state    362 was old state    364
 New state    363 was old state    369
 New state    364 was old state    366
 New state    366 was old state    367
 New state    367 was old state    368
 New state    368 was old state    372
 New state    369 was old state    371
 New state    371 was old state    377
 New state    372 was old state    380
 New state    375 was old state    385
 New state    377 was old state    379
 New state    379 was old state    375
 New state    380 was old state    382
 New state    382 was old state    384
 New state    383 was old state    387
 New state    384 was old state    383
 New state    385 was old state    386
 New state    386 was old state    390
 New state    387 was old state    389
 New state    389 was old state    391
 New state    390 was old state    392
 New state    391 was old state    393
 New state    392 was old state    394
 New state    393 was old state    406
 New state    394 was old state    395
 New state    395 was old state    396
 New state    396 was old state    398
 New state    397 was old state    400
 New state    398 was old state    397
 New state    400 was old state    401
 New state    401 was old state    402
 New state    402 was old state    403
 New state    403 was old state    404
 New state    404 was old state    414
 New state    405 was old state    417
 New state    406 was old state    405
 New state    410 was old state    412
 New state    411 was old state    410
 New state    412 was old state    411
 New state    414 was old state    416
 New state    415 was old state    418
 New state    416 was old state    415
 New state    417 was old state    419
 New state    418 was old state    423
 New state    419 was old state    420
 New state    420 was old state    421
 New state    421 was old state    422
 New state    422 was old state    424
 New state    423 was old state    425
 New state    424 was old state    427
 New state    425 was old state    429
 New state    427 was old state    428
 New state    428 was old state    430
 New state    429 was old state    434
 New state    430 was old state    432
 New state    432 was old state    433
 New state    433 was old state    450
 New state    434 was old state    446
 New state    439 was old state    440
 New state    440 was old state    439
 New state    443 was old state    445
 New state    445 was old state    443
 New state    446 was old state    448
 New state    448 was old state    449
 New state    449 was old state    453
 New state    450 was old state    451
 New state    451 was old state    456
 New state    453 was old state    454
 New state    454 was old state    459
 New state    456 was old state    460
 New state    457 was old state    458
 New state    458 was old state    457
 New state    459 was old state    461
 No map to state    460
 New state    461 was old state    462
 New state    462 was old state    463
 New state    463 was old state    464
 New state    464 was old state    469
 New state    469 was old state    470
 New state    470 was old state    475
 New state    471 was old state    474
 New state    472 was old state    471
 New state    474 was old state    472
 New state    475 was old state    477
 New state    476 was old state    479
 New state    477 was old state    476
 New state    478 was old state    480
 New state    479 was old state    481
 New state    480 was old state    482
 New state    481 was old state    486
 New state    482 was old state    484
 New state    483 was old state    478
 New state    484 was old state    483
 New state    485 was old state    494
 New state    486 was old state    485
 New state    488 was old state    489
 New state    489 was old state    488
 New state    490 was old state    492
 New state    492 was old state    495
 New state    494 was old state    490
 New state    495 was old state    498
 New state    496 was old state    499
 New state    498 was old state    501
 New state    499 was old state    500
 New state    500 was old state    502
 New state    501 was old state    504
 New state    502 was old state    503
 New state    503 was old state    506
 New state    504 was old state    496
 New state    506 was old state    508
 New state    507 was old state    509
 New state    508 was old state    507
 New state    509 was old state    510
 New state    510 was old state    512
 New state    511 was old state    514
 New state    512 was old state    513
 New state    513 was old state    515
 New state    514 was old state    511
 New state    515 was old state    517
 New state    517 was old state    518
 New state    518 was old state    519
 New state    519 was old state    522
 New state    520 was old state    521
 New state    521 was old state    520
 New state    522 was old state    526
 New state    524 was old state    525
 New state    525 was old state    524
 New state    526 was old state    527
 New state    527 was old state    528
 New state    528 was old state    529
 New state    529 was old state    530
 New state    530 was old state    540
 New state    532 was old state    534
 New state    533 was old state    532
 New state    534 was old state    533
 New state    536 was old state    537
 New state    537 was old state    538
 New state    538 was old state    536
 New state    540 was old state    543
 New state    543 was old state    544
 New state    544 was old state    551
 New state    546 was old state    547
 New state    547 was old state    546
 New state    550 was old state    553
 New state    551 was old state    550
 New state    552 was old state    557
 New state    553 was old state    552
 New state    554 was old state    555
 New state    555 was old state    554
 New state    557 was old state    558
 New state    558 was old state    559
 New state    559 was old state    564
 New state    560 was old state    563
 New state    563 was old state    560
 New state    564 was old state    565
 New state    565 was old state    566
 New state    566 was old state    568
 New state    567 was old state    569
 New state    568 was old state    570
 New state    569 was old state    567
 New state    570 was old state    579
 New state    572 was old state    573
 New state    573 was old state    572
 New state    575 was old state    576
 New state    576 was old state    577
 New state    577 was old state    578
 New state    578 was old state    580
 New state    579 was old state    581
 New state    580 was old state    575
 New state    581 was old state    583
 New state    583 was old state    595
 New state    587 was old state    590
 New state    589 was old state    591
 New state    590 was old state    587
 New state    591 was old state    589
 New state    593 was old state    594
 New state    594 was old state    593
 New state    595 was old state    596
 New state    596 was old state    598
 New state    598 was old state    599
 New state    599 was old state    600
 New state    600 was old state    604
 New state    601 was old state    602
 New state    602 was old state    601
 New state    604 was old state    607
 New state    607 was old state    610
 New state    608 was old state    612
 New state    609 was old state    608
 New state    610 was old state    609
 No map to state    612
 New state    617 was old state    620
 New state    618 was old state    619
 New state    619 was old state    618
 New state    620 was old state    621
 New state    621 was old state    617
 New state    630 was old state    631
 New state    631 was old state    630
 New state    634 was old state    635
 New state    635 was old state    634
 New state    638 was old state    640
 New state    640 was old state    641
 New state    641 was old state    638
 New state    647 was old state    648
 New state    648 was old state    647
 New state    649 was old state    651
 New state    650 was old state    649
 New state    651 was old state    650
 New state    654 was old state    655
 New state    655 was old state    656
 New state    656 was old state    654
 New state    661 was old state    664
 New state    662 was old state    661
 New state    663 was old state    662
 New state    664 was old state    665
 New state    665 was old state    663
 New state    666 was old state    667
 New state    667 was old state    666
 New state    669 was old state    671
 New state    670 was old state    669
 New state    671 was old state    673
 New state    673 was old state    670
 New state    678 was old state    681
 New state    679 was old state    680
 New state    680 was old state    682
 New state    681 was old state    684
 New state    682 was old state    686
 New state    683 was old state    679
 New state    684 was old state    678
 New state    686 was old state    690
 New state    687 was old state    688
 New state    688 was old state    689
 New state    689 was old state    687
 New state    690 was old state    691
 New state    691 was old state    692
 New state    692 was old state    694
 New state    694 was old state    683
 New state    697 was old state    698
 New state    698 was old state    697
 New state    700 was old state    701
 New state    701 was old state    700
 New state    704 was old state    705
 New state    705 was old state    707
 New state    707 was old state    704
 New state    711 was old state    712
 New state    712 was old state    711
 New state    714 was old state    715
 New state    715 was old state    716
 New state    716 was old state    717
 New state    717 was old state    719
 New state    718 was old state    720
 New state    719 was old state    718
 New state    720 was old state    721
 New state    721 was old state    722
 New state    722 was old state    714
 New state    723 was old state    726
 New state    724 was old state    723
 New state    725 was old state    724
 New state    726 was old state    725
 New state    727 was old state    728
 New state    728 was old state    729
 New state    729 was old state    730
 New state    730 was old state    727
 New state    731 was old state    732
 New state    732 was old state    733
 New state    733 was old state    734
 New state    734 was old state    731
 New state    736 was old state    737
 New state    737 was old state    736
 New state    738 was old state    739
 New state    739 was old state    738
 New state    741 was old state    742
 New state    742 was old state    741
 New state    743 was old state    744
 New state    744 was old state    743
 Excitation Energies [eV] at current iteration:
 Root      1 :     6.937951702609270
 Root      2 :     7.457600902883021
 Root      3 :     7.685506814432376
 Root      4 :     8.040771337202036
 Root      5 :     8.245798796896736
 Root      6 :     8.297667637798709
 Root      7 :     8.852655621995268
 Root      8 :     9.006264756153762
 Root      9 :     9.188838259876837
 Root     10 :     9.350878249850650
 Root     11 :     9.897128044921319
 Root     12 :    10.111319304396660
 Root     13 :    10.183565535300620
 Root     14 :    10.313810697065630
 Root     15 :    10.321252467731940
 Root     16 :    10.502683150533680
 Root     17 :    10.505127338416500
 Root     18 :    10.691139757512160
 Root     19 :    10.777558578549990
 Root     20 :    10.876696601850020
 Root     21 :    11.089284549580790
 Root     22 :    11.177719007912070
 Root     23 :    11.203420454397110
 Root     24 :    11.292103123760580
 Root     25 :    11.341660949014420
 Root     26 :    11.417073805937650
 Root     27 :    11.461129318081270
 Root     28 :    11.561687342209330
 Root     29 :    11.750250675914850
 Root     30 :    11.920530584622120
 Root     31 :    11.948482588394010
 Root     32 :    12.163848986593540
 Root     33 :    12.422437272739240
 Root     34 :    12.506842409318710
 Root     35 :    12.572606219393400
 Root     36 :    12.770813254139640
 Root     37 :    12.791128686311370
 Root     38 :    12.859170930439980
 Root     39 :    13.076047286993720
 Root     40 :    13.210390887130150
 Root     41 :    13.308230177864010
 Root     42 :    13.353916293700150
 Root     43 :    13.442968309896830
 Root     44 :    13.447966667924920
 Root     45 :    13.489400053533310
 Root     46 :    13.496275885680690
 Root     47 :    13.516816789087130
 Root     48 :    13.583890401368210
 Root     49 :    13.744360701456070
 Root     50 :    13.821639919897470
 Root     51 :    13.826753565919620
 Root     52 :    13.888500014269230
 Root     53 :    13.965154944112550
 Root     54 :    14.018141044972840
 Root     55 :    14.104600168458580
 Root     56 :    14.135804705304640
 Root     57 :    14.174966216851100
 Root     58 :    14.196874966147030
 Root     59 :    14.378016563416000
 Root     60 :    14.570338634981530
 Root     61 :    14.672263097307530
 Root     62 :    14.673312931365120
 Root     63 :    14.732185870027700
 Root     64 :    14.738552761602810
 Root     65 :    14.784570484643830
 Root     66 :    14.801863516064430
 Root     67 :    14.987738848687420
 Root     68 :    15.022259577782610
 Root     69 :    15.150024458903670
 Root     70 :    15.258732805363950
 Root     71 :    15.330121294189550
 Root     72 :    15.346616290858460
 Root     73 :    15.386171612379150
 Root     74 :    15.567219654794580
 Root     75 :    15.645958623687880
 Root     76 :    15.797030885157160
 Root     77 :    15.944642358152990
 Root     78 :    15.968415501689170
 Root     79 :    15.987694676724710
 Root     80 :    16.012566976306450
 Root     81 :    16.153945849636480
 Root     82 :    16.175971046004230
 Root     83 :    16.336994162065970
 Root     84 :    16.350958563014700
 Root     85 :    16.386079516491430
 Root     86 :    16.430067035576370
 Root     87 :    16.544066723569940
 Root     88 :    16.579755459938540
 Root     89 :    16.651001904182010
 Root     90 :    16.687395975331530
 Root     91 :    16.827755882363920
 Root     92 :    16.829408313951040
 Root     93 :    16.847698821750090
 Root     94 :    16.921568187111450
 Root     95 :    16.950121411766080
 Root     96 :    16.985449966942790
 Root     97 :    17.080077740667300
 Root     98 :    17.115305348976910
 Root     99 :    17.133832573613400
 Root    100 :    17.219250376792370
 Root    101 :    17.221397322866530
 Root    102 :    17.251536143703280
 Root    103 :    17.256310393464730
 Root    104 :    17.291836236045170
 Root    105 :    17.370181169305330
 Root    106 :    17.396656260829370
 Root    107 :    17.548098459455570
 Root    108 :    17.567785572611500
 Root    109 :    17.615586001368380
 Root    110 :    17.615846084197600
 Root    111 :    17.745070179544240
 Root    112 :    17.834977031566580
 Root    113 :    17.898910644036250
 Root    114 :    17.908669533220020
 Root    115 :    17.915957467607130
 Root    116 :    18.012403508348080
 Root    117 :    18.115528138337670
 Root    118 :    18.221046271560790
 Root    119 :    18.256981428633750
 Root    120 :    18.282790156450340
 Root    121 :    18.417737139002630
 Root    122 :    18.425174378935870
 Root    123 :    18.470244568857860
 Root    124 :    18.498882617623880
 Root    125 :    18.570953410420760
 Root    126 :    18.577287326216180
 Root    127 :    18.660353515536800
 Root    128 :    18.669590299601650
 Root    129 :    18.721024179283220
 Root    130 :    18.756984971969800
 Root    131 :    18.768871274890850
 Root    132 :    18.776826471677940
 Root    133 :    18.831553704602640
 Root    134 :    18.858513041188780
 Root    135 :    18.881832749581290
 Root    136 :    19.106628445503370
 Root    137 :    19.116257388622320
 Root    138 :    19.160419353678970
 Root    139 :    19.189677274759150
 Root    140 :    19.280279651247370
 Root    141 :    19.471667573159830
 Root    142 :    19.511568914630160
 Root    143 :    19.623004661624250
 Root    144 :    19.628506759713070
 Root    145 :    19.647531008430560
 Root    146 :    19.721149202135170
 Root    147 :    19.792153452538600
 Root    148 :    19.836131467982340
 Root    149 :    19.836375909780280
 Root    150 :    19.852651771747470
 Root    151 :    19.972130760214050
 Root    152 :    20.025183752282670
 Root    153 :    20.059401358599810
 Root    154 :    20.060676002266420
 Root    155 :    20.100576935230390
 Root    156 :    20.124295765306930
 Root    157 :    20.141218319209980
 Root    158 :    20.302215459614810
 Root    159 :    20.318586202162900
 Root    160 :    20.337413373133490
 Root    161 :    20.372347890183240
 Root    162 :    20.386737396650560
 Root    163 :    20.476680958627950
 Root    164 :    20.483382738011890
 Root    165 :    20.516276447834160
 Root    166 :    20.546548180544380
 Root    167 :    20.581641002460640
 Root    168 :    20.619254240480130
 Root    169 :    20.648756534516390
 Root    170 :    20.726281508472510
 Root    171 :    20.795736380844280
 Root    172 :    20.845419343200820
 Root    173 :    20.899906454653460
 Root    174 :    20.984816256109670
 Root    175 :    21.012738368322360
 Root    176 :    21.046338944116930
 Root    177 :    21.083440901939090
 Root    178 :    21.119732331180770
 Root    179 :    21.150686885596610
 Root    180 :    21.209227014628600
 Root    181 :    21.225110979687420
 Root    182 :    21.350759712813200
 Root    183 :    21.430372264836460
 Root    184 :    21.622660675463590
 Root    185 :    21.641961735760170
 Root    186 :    21.806208607894020
 Root    187 :    21.812064490575450
 Root    188 :    21.921020072526170
 Root    189 :    22.056138689182300
 Root    190 :    22.080872934585930
 Root    191 :    22.093372782268880
 Root    192 :    22.167045844543020
 Root    193 :    22.173303012722460
 Root    194 :    22.181037625618770
 Root    195 :    22.275074214545910
 Root    196 :    22.362641351961590
 Root    197 :    22.426021519239770
 Root    198 :    22.484910429121570
 Root    199 :    22.491583277994700
 Root    200 :    22.607831725354370
 Root    201 :    22.612057892033640
 Root    202 :    22.658336119063130
 Root    203 :    22.676109691411000
 Root    204 :    22.756710490512650
 Root    205 :    22.834690387819970
 Root    206 :    22.878107531956300
 Root    207 :    22.963135287904630
 Root    208 :    22.975654861252710
 Root    209 :    23.056874526829310
 Root    210 :    23.066455756489560
 Root    211 :    23.105752055658330
 Root    212 :    23.208746654853280
 Root    213 :    23.222128404681010
 Root    214 :    23.230116337418260
 Root    215 :    23.395002955298920
 Root    216 :    23.478599260213000
 Root    217 :    23.539836758421010
 Root    218 :    23.563499005544860
 Root    219 :    23.626461169923360
 Root    220 :    23.760040522938470
 Root    221 :    23.805854058458640
 Root    222 :    23.924124588256270
 Root    223 :    23.954002644698770
 Root    224 :    24.039394286952120
 Root    225 :    24.111749675088900
 Root    226 :    24.248452256080310
 Root    227 :    24.312917554872420
 Root    228 :    24.388112642572370
 Root    229 :    24.402875830805000
 Root    230 :    24.465923635166060
 Root    231 :    24.500786319029560
 Root    232 :    24.505489663222590
 Root    233 :    24.557842055816690
 Root    234 :    24.604248358725090
 Root    235 :    24.702794666778440
 Root    236 :    24.758778679265930
 Root    237 :    24.781678351349140
 Root    238 :    24.940480010000090
 Root    239 :    25.057381167085730
 Root    240 :    25.161483989896740
 Root    241 :    25.174434935262620
 Root    242 :    25.254581480659440
 Root    243 :    25.334601960908420
 Root    244 :    25.378385151156690
 Root    245 :    25.389372121649720
 Root    246 :    25.439742794361690
 Root    247 :    25.497525732482750
 Root    248 :    25.692636768411650
 Root    249 :    25.752809381739840
 Root    250 :    25.783533121693690
 Root    251 :    25.872296526364760
 Root    252 :    25.882080102608520
 Root    253 :    26.036415586067990
 Root    254 :    26.051050983254760
 Root    255 :    26.145735454129640
 Root    256 :    26.208874480601850
 Root    257 :    26.272536391337900
 Root    258 :    26.379988961500140
 Root    259 :    26.388722643301410
 Root    260 :    26.432796976641270
 Root    261 :    26.477485952638310
 Root    262 :    26.538311855229270
 Root    263 :    26.603530269176720
 Root    264 :    26.652598447864110
 Root    265 :    26.763221351622050
 Root    266 :    26.911623408345210
 Root    267 :    26.929160573373760
 Root    268 :    26.978690311497620
 Root    269 :    27.038938668054870
 Root    270 :    27.145161108007580
 Root    271 :    27.225853734928490
 Root    272 :    27.340600289763960
 Root    273 :    27.425206368448940
 Root    274 :    27.487884372283080
 Root    275 :    27.663013210904140
 Root    276 :    27.663558288126690
 Root    277 :    27.674624031563220
 Root    278 :    27.778240169465700
 Root    279 :    27.846804091477480
 Root    280 :    27.971546115981030
 Root    281 :    28.164123151210330
 Root    282 :    28.282158150146280
 Root    283 :    28.377771662314960
 Root    284 :    28.378356301357970
 Root    285 :    28.411808246806550
 Root    286 :    28.570856962279130
 Root    287 :    28.596420724672480
 Root    288 :    28.683751477763430
 Root    289 :    28.773558968694970
 Root    290 :    28.857091551505580
 Root    291 :    28.922000947534810
 Root    292 :    28.934437323405210
 Root    293 :    29.066895441490140
 Root    294 :    29.114943211971500
 Root    295 :    29.180678915400990
 Root    296 :    29.182265766283410
 Root    297 :    29.214635326354040
 Root    298 :    29.243577037652790
 Root    299 :    29.384974941291650
 Root    300 :    29.425381924970250
 Root    301 :    29.523086506553410
 Root    302 :    29.533457818171860
 Root    303 :    29.591719456821600
 Root    304 :    29.787651164067280
 Root    305 :    29.791206927859820
 Root    306 :    29.803442243650880
 Root    307 :    29.819270821751100
 Root    308 :    29.977036014027800
 Root    309 :    30.015285280099430
 Root    310 :    30.125566151796830
 Root    311 :    30.142693791265710
 Root    312 :    30.211633387621900
 Root    313 :    30.347779631426210
 Root    314 :    30.532446432050990
 Root    315 :    30.825776299743710
 Root    316 :    30.939117216504600
 Root    317 :    30.954373620694970
 Root    318 :    30.976749712478650
 Root    319 :    31.004750785971240
 Root    320 :    31.089679500330120
 Root    321 :    31.210455491982080
 Root    322 :    31.298926384304490
 Root    323 :    31.457513275594240
 Root    324 :    31.555692034874340
 Root    325 :    31.567895726830460
 Root    326 :    31.849236582700150
 Root    327 :    32.041782514689030
 Root    328 :    32.090501853020590
 Root    329 :    32.213039143885360
 Root    330 :    32.213916511551360
 Root    331 :    32.332401013470160
 Root    332 :    32.452564816558780
 Root    333 :    32.505977251616760
 Root    334 :    32.549923180865600
 Root    335 :    32.563818099292400
 Root    336 :    32.617494568803610
 Root    337 :    32.784597671718240
 Root    338 :    32.789980332198650
 Root    339 :    32.906826091015820
 Root    340 :    33.092368981537330
 Root    341 :    33.210768481575250
 Root    342 :    33.331691042539080
 Root    343 :    33.445741582731220
 Root    344 :    33.540683733615200
 Root    345 :    33.554992517267090
 Root    346 :    33.570088875478760
 Root    347 :    33.745719031315200
 Root    348 :    33.822113718728080
 Root    349 :    34.016356127221950
 Root    350 :    34.051107891496170
 Root    351 :    34.126037543671200
 Root    352 :    34.142446124965860
 Root    353 :    34.310743301819420
 Root    354 :    34.450432676850080
 Root    355 :    34.482449595146280
 Root    356 :    34.491880860771850
 Root    357 :    34.548097282497660
 Root    358 :    34.872857455773850
 Root    359 :    34.957492574102270
 Root    360 :    34.958091260605160
 Root    361 :    35.170268958234200
 Root    362 :    35.225349995429150
 Root    363 :    35.257225735388060
 Root    364 :    35.331292042080650
 Root    365 :    35.419196878504000
 Root    366 :    35.549017314078050
 Root    367 :    35.627399512989310
 Root    368 :    35.738821964696830
 Root    369 :    35.786188970419780
 Root    370 :    35.786266268197440
 Root    371 :    35.809539292994420
 Root    372 :    35.811618817243530
 Root    373 :    35.886489376996540
 Root    374 :    36.210676508369020
 Root    375 :    36.397857613927660
 Root    376 :    36.456271195358120
 Root    377 :    36.608235337459270
 Root    378 :    36.612490637518560
 Root    379 :    36.808597577818450
 Root    380 :    36.996696007417020
 Root    381 :    37.027025678979580
 Root    382 :    37.075347348605440
 Root    383 :    37.151122058590670
 Root    384 :    37.259140955373880
 Root    385 :    37.409580548605060
 Root    386 :    37.533958243199360
 Root    387 :    37.745706342435580
 Root    388 :    37.759847747739880
 Root    389 :    37.799037381781330
 Root    390 :    37.853306325780490
 Root    391 :    38.066288004014500
 Root    392 :    38.091736808764850
 Root    393 :    38.171593843883580
 Root    394 :    38.394189347730900
 Root    395 :    38.461885057389490
 Root    396 :    38.526018750946130
 Root    397 :    38.558015770899320
 Root    398 :    38.576769524689510
 Root    399 :    38.649821754530940
 Root    400 :    38.987258809892180
 Root    401 :    39.250506911729670
 Root    402 :    39.282787063261620
 Root    403 :    39.411303495404300
 Root    404 :    39.416360458977640
 Root    405 :    39.422913138321840
 Root    406 :    39.581488447086570
 Root    407 :    39.712369251083840
 Root    408 :    39.765756644392800
 Root    409 :    39.864801439767960
 Root    410 :    39.873157499767070
 Root    411 :    39.931648644668120
 Root    412 :    39.934983848467400
 Root    413 :    40.180616793445740
 Root    414 :    40.427097498574810
 Root    415 :    40.470323157282010
 Root    416 :    40.477509156351520
 Root    417 :    40.917381330089820
 Root    418 :    40.937423675620440
 Root    419 :    40.977687202053250
 Root    420 :    41.274388543295850
 Root    421 :    41.452438525423150
 Root    422 :    41.744982184215160
 Root    423 :    41.797295830578470
 Root    424 :    41.911875714220020
 Root    425 :    41.935160722013050
 Root    426 :    41.944546831417310
 Root    427 :    42.079300594700040
 Root    428 :    42.298204466248800
 Root    429 :    42.372701124590220
 Root    430 :    42.428012127846750
 Root    431 :    42.562975069224410
 Root    432 :    42.830255080679340
 Root    433 :    43.570235242432840
 Root    434 :    43.718309474173810
 Root    435 :    43.737342818293940
 Root    436 :    44.158927335005790
 Root    437 :    44.332500052217970
 Root    438 :    44.467080677472230
 Root    439 :    44.543928241312780
 Root    440 :    44.637635602083110
 Root    441 :    44.695085318043560
 Root    442 :    44.870859047686590
 Root    443 :    45.127247348076910
 Root    444 :    45.200153730294710
 Root    445 :    45.570173927478290
 Root    446 :    45.642873971107970
 Root    447 :    45.651360270171100
 Root    448 :    45.889064962625210
 Root    449 :    46.068075006267400
 Root    450 :    46.482071340407320
 Root    451 :    46.582821750475100
 Root    452 :    46.643122680316910
 Root    453 :    46.917095461848980
 Root    454 :    47.217098794638830
 Root    455 :    47.451607029850650
 Root    456 :    47.863659739451330
 Root    457 :    48.235689910833680
 Root    458 :    48.274479364993080
 Root    459 :    48.298395171431540
 Root    460 :    48.309708072525770
 Root    461 :    48.434526969398630
 Root    462 :    48.690504273438840
 Root    463 :    48.767230667663300
 Root    464 :    48.957377170110840
 Root    465 :    49.092224738796520
 Root    466 :    49.249777743167710
 Root    467 :    49.530296778144470
 Root    468 :    49.563394229837680
 Root    469 :    50.061632571917820
 Root    470 :    50.541888022998550
 Root    471 :    50.592870676398520
 Root    472 :    50.638672446867370
 Root    473 :    50.777105891760660
 Root    474 :    50.865262814395220
 Root    475 :    51.369610470443740
 Root    476 :    51.410598953883910
 Root    477 :    51.513537672249300
 Root    478 :    51.578057199155510
 Root    479 :    51.747989782192850
 Root    480 :    51.811427450406190
 Root    481 :    51.940673140979690
 Root    482 :    52.038991242767270
 Root    483 :    52.040407503539360
 Root    484 :    52.074980370033100
 Root    485 :    52.166374046380240
 Root    486 :    52.185415698983260
 Root    487 :    52.432784332831910
 Root    488 :    53.189226261620630
 Root    489 :    53.313785622410390
 Root    490 :    53.851273110486550
 Root    491 :    53.894763905296430
 Root    492 :    53.895384443810030
 Root    493 :    53.912698856497820
 Root    494 :    53.966212968826960
 Root    495 :    54.109458248751860
 Root    496 :    54.550684742259400
 Root    497 :    54.573294577042630
 Root    498 :    54.791020485182330
 Root    499 :    54.887647179763130
 Root    500 :    55.067544913547740
 Root    501 :    55.246368736958540
 Root    502 :    55.271707434450340
 Root    503 :    55.353357608520170
 Root    504 :    55.441986976847420
 Root    505 :    55.602938281607680
 Root    506 :    56.259568868100370
 Root    507 :    56.398942448790860
 Root    508 :    56.421163726917650
 Root    509 :    56.914874024180970
 Root    510 :    57.098674804039790
 Root    511 :    57.187085887849780
 Root    512 :    57.228489865295940
 Root    513 :    57.276062419348310
 Root    514 :    57.432665608217650
 Root    515 :    57.569280881494930
 Root    516 :    57.578067959068260
 Root    517 :    57.759926405862000
 Root    518 :    57.840599220168290
 Root    519 :    57.952952200101000
 Root    520 :    58.088047429049380
 Root    521 :    58.123860026250060
 Root    522 :    58.148285244033190
 Root    523 :    58.685149337512690
 Root    524 :    58.728982465312820
 Root    525 :    58.740441917035480
 Root    526 :    59.087465487948440
 Root    527 :    59.211520946519600
 Root    528 :    59.261595718428940
 Root    529 :    59.451636360897540
 Root    530 :    59.491376875618840
 Root    531 :    59.554768999762710
 Root    532 :    59.592190174533650
 Root    533 :    59.710935911068500
 Root    534 :    59.781526171690910
 Root    535 :    59.852455698248200
 Root    536 :    60.319470449494970
 Root    537 :    60.447324748288020
 Root    538 :    60.700172590766240
 Root    539 :    60.824602725721150
 Root    540 :    60.986699306184770
 Root    541 :    61.028018555404980
 Root    542 :    61.209456427830160
 Root    543 :    61.471796968021340
 Root    544 :    61.569987518529500
 Root    545 :    61.584651753046830
 Root    546 :    61.947371176234870
 Root    547 :    62.122391377095060
 Root    548 :    62.315868063615690
 Root    549 :    62.795079641806590
 Root    550 :    62.855124548601320
 Root    551 :    62.907794115156670
 Root    552 :    63.169467665361720
 Root    553 :    63.276894223291550
 Root    554 :    63.501678125423700
 Root    555 :    63.569474017748680
 Root    556 :    63.668714277923060
 Root    557 :    63.690730142681010
 Root    558 :    63.817118073469900
 Root    559 :    63.949815402137450
 Root    560 :    64.350445713403090
 Root    561 :    64.371691408198520
 Root    562 :    64.384757817007380
 Root    563 :    64.409284184974170
 Root    564 :    64.888674476663990
 Root    565 :    65.086666350722920
 Root    566 :    65.425209271107790
 Root    567 :    65.445220106491530
 Root    568 :    65.509661353870800
 Root    569 :    65.544805511006290
 Root    570 :    65.546369331206630
 Root    571 :    65.739976420301330
 Root    572 :    66.105801407912340
 Root    573 :    66.146824327841410
 Root    574 :    66.625129853149830
 Root    575 :    66.708110625136940
 Root    576 :    66.739666472663440
 Root    577 :    66.803967957001760
 Root    578 :    66.978646367403170
 Root    579 :    67.371474146051530
 Root    580 :    67.383131164664110
 Root    581 :    67.417248444459770
 Root    582 :    67.434832230801920
 Root    583 :    67.714252566963180
 Root    584 :    67.771362600342460
 Root    585 :    68.025572845282740
 Root    586 :    68.133571833206870
 Root    587 :    68.287124103695960
 Root    588 :    68.395627805519750
 Root    589 :    68.401963437695120
 Root    590 :    68.468193548542980
 Root    591 :    68.504324913252390
 Root    592 :    68.766395270977160
 Root    593 :    68.923162571176060
 Root    594 :    68.982625367723780
 Root    595 :    69.288091766088750
 Root    596 :    69.308814443566060
 Root    597 :    69.316626921012560
 Root    598 :    69.949339879113410
 Root    599 :    69.959764617807200
 Root    600 :    70.160681204026640
 Root    601 :    70.732885616439870
 Root    602 :    70.751729987858840
 Root    603 :    71.025640167568600
 Root    604 :    71.214123332658330
 Root    605 :    71.215915653529510
 Root    606 :    71.465668188634380
 Root    607 :    71.755803289469140
 Root    608 :    71.883484710412420
 Root    609 :    71.926948064298230
 Root    610 :    71.990440490776650
 Root    611 :    72.281687550174440
 Root    612 :    72.632405393655230
 Root    613 :    73.076297889298800
 Root    614 :    73.521210183141090
 Root    615 :    73.740414663708830
 Root    616 :    73.786054221269180
 Root    617 :    74.411368494334580
 Root    618 :    74.508770578354200
 Root    619 :    74.562740370776150
 Root    620 :    74.637385718401290
 Root    621 :    74.656479920675000
 Root    622 :    74.808198123536540
 Root    623 :    74.997338094684610
 Root    624 :    75.020465874031600
 Root    625 :    75.131113763720530
 Root    626 :    75.555970733678620
 Root    627 :    75.858160857179930
 Root    628 :    75.877810934346900
 Root    629 :    76.015022715041140
 Root    630 :    76.533718557108230
 Root    631 :    76.805730867194030
 Root    632 :    76.980427694393840
 Root    633 :    77.079003853694050
 Root    634 :    77.345464312044650
 Root    635 :    77.654541069880850
 Root    636 :    78.658235452813140
 Root    637 :    78.805973341571630
 Root    638 :    79.046949688822910
 Root    639 :    79.110171670501100
 Root    640 :    79.516419923997530
 Root    641 :    79.811788644812820
 Root    642 :    80.030108373027010
 Root    643 :    80.286041517311570
 Root    644 :    80.743781229335610
 Root    645 :    81.297572347156940
 Root    646 :    81.358412258753790
 Root    647 :    82.555942915476220
 Root    648 :    82.570971614694590
 Root    649 :    82.944522309045870
 Root    650 :    83.081725244218230
 Root    651 :    83.411555825323920
 Root    652 :    83.489592443317700
 Root    653 :    83.831810197261310
 Root    654 :    83.995276809802460
 Root    655 :    84.155197398325160
 Root    656 :    84.375307986520810
 Root    657 :    84.910576834711150
 Root    658 :    85.462894511647590
 Root    659 :    85.469726599690380
 Root    660 :    85.679192442643130
 Root    661 :    86.206241666337650
 Root    662 :    86.305009469703450
 Root    663 :    86.516408370843240
 Root    664 :    86.570830371434300
 Root    665 :    86.756484562777420
 Root    666 :    86.858880220047310
 Root    667 :    87.113294092470840
 Root    668 :    87.117706949642950
 Root    669 :    87.634157626666750
 Root    670 :    87.689713174458330
 Root    671 :    88.526976241661840
 Root    672 :    88.550476319621010
 Root    673 :    88.716329750005980
 Root    674 :    89.139299498760590
 Root    675 :    89.206049857428750
 Root    676 :    89.674209687063300
 Root    677 :    89.906308151173500
 Root    678 :    90.445726454049110
 Root    679 :    90.474220115992610
 Root    680 :    90.705273391971700
 Root    681 :    90.710374948231210
 Root    682 :    91.172068262889810
 Root    683 :    91.261132429985320
 Root    684 :    91.464389940104510
 Root    685 :    91.695757349595450
 Root    686 :    92.001622938727270
 Root    687 :    92.060775709267400
 Root    688 :    92.078080376940090
 Root    689 :    92.372065342806560
 Root    690 :    92.572867591103030
 Root    691 :    92.917725225106740
 Root    692 :    93.182019356143390
 Root    693 :    93.253427855211110
 Root    694 :    93.413983144901680
 Root    695 :    93.450421863952640
 Root    696 :    93.619348960486120
 Root    697 :    93.789886183013410
 Root    698 :    94.156707741470300
 Root    699 :    94.450957662718240
 Root    700 :    94.645114858671220
 Root    701 :    94.697446715709670
 Root    702 :    94.745094879830560
 Root    703 :    95.364886783049570
 Root    704 :    95.683825789482970
 Root    705 :    95.913178022893770
 Root    706 :    96.154456714924480
 Root    707 :    96.203391486428740
 Root    708 :    96.765745521638010
 Root    709 :    96.919837663563700
 Root    710 :    97.005638548725020
 Root    711 :    97.448075984459730
 Root    712 :    97.958843564252670
 Root    713 :    98.020566664894590
 Root    714 :    98.984476742822150
 Root    715 :    99.745226528169520
 Root    716 :    99.853084813920760
 Root    717 :   100.142899520037300
 Root    718 :   100.508057986035600
 Root    719 :   100.656987810677500
 Root    720 :   100.867700632160400
 Root    721 :   100.880962962114400
 Root    722 :   101.652438322348200
 Root    723 :   102.041728855895100
 Root    724 :   102.079617899424600
 Root    725 :   102.523584697081300
 Root    726 :   103.169235159481400
 Root    727 :   103.800918059896900
 Root    728 :   104.238979849251300
 Root    729 :   104.250689327038500
 Root    730 :   104.298299918482600
 Root    731 :   104.785700984587400
 Root    732 :   105.578260720580400
 Root    733 :   105.683422873194300
 Root    734 :   106.500998706638400
 Root    735 :   107.402083735370200
 Root    736 :   107.541004169721400
 Root    737 :   107.788769809734600
 Root    738 :   108.394031003158100
 Root    739 :   108.894841306240800
 Root    740 :   109.627699478195000
 Root    741 :   110.726910064025800
 Root    742 :   110.818375924283500
 Root    743 :   111.699238496619400
 Root    744 :   111.934985892330300
 Root    745 :   115.656620153778000
 Root    746 :   120.450925904609600
 Root    747 :   122.442651141257000
 Convergence achieved for final wavefunctions.
 ***********************************************************************
 Excited states from <AA,BB:AA,BB> singles matrix:
 ***********************************************************************
 
 1PDM for each excited state written to RWF  633
 Ground to excited state transition densities written to RWF  633
 Ground to excited state transition electric dipole moments (Au):
       state          X           Y           Z        Dip. S.      Osc.
         1         0.3888     -0.0000     -0.0000      0.1512      0.0257
         2        -0.0000      0.0000      0.0000      0.0000      0.0000
         3        -0.2343     -0.0000      0.0000      0.0549      0.0103
         4         0.0000      0.0000     -0.4442      0.1973      0.0389
         5         0.0000     -0.0000     -0.0000      0.0000      0.0000
         6        -0.0000     -0.0000      0.1512      0.0229      0.0046
         7         0.0000      0.4571     -0.0000      0.2089      0.0453
         8         0.0000     -0.0000     -0.5106      0.2607      0.0575
         9         0.2297     -0.0000      0.0000      0.0528      0.0119
        10         0.2084      0.0000     -0.0000      0.0434      0.0099
        11         0.0000      0.5117     -0.0000      0.2618      0.0635
        12         0.0000     -0.0000     -0.0000      0.0000      0.0000
        13        -0.0000     -0.6782      0.0000      0.4600      0.1148
        14        -0.0000      0.0000     -0.0000      0.0000      0.0000
        15         0.1074      0.0000     -0.0000      0.0115      0.0029
        16        -0.0000      0.0000      0.1431      0.0205      0.0053
        17         0.0000      0.2708      0.0000      0.0733      0.0189
        18        -0.5623      0.0000     -0.0000      0.3162      0.0828
        19         0.0000     -0.0000      0.0000      0.0000      0.0000
        20         0.0000      0.0000      0.0052      0.0000      0.0000
        21        -0.0000      0.0000     -0.2573      0.0662      0.0180
        22        -0.0000      0.0000      0.0000      0.0000      0.0000
        23        -0.0000      0.0000     -0.0000      0.0000      0.0000
        24        -0.0000     -0.6076     -0.0000      0.3692      0.1021
        25        -0.0000     -0.6048     -0.0000      0.3658      0.1016
        26        -0.1214     -0.0000      0.0000      0.0147      0.0041
        27         0.0000      0.0000     -0.1372      0.0188      0.0053
        28        -0.0000      0.0000     -0.0000      0.0000      0.0000
        29        -0.0000      0.0000      0.1124      0.0126      0.0036
        30         0.0000      0.4439      0.0000      0.1970      0.0575
        31        -0.0329     -0.0000     -0.0000      0.0011      0.0003
        32        -0.1383      0.0000     -0.0000      0.0191      0.0057
        33         0.0000     -0.0000      0.0000      0.0000      0.0000
        34        -0.0000      0.2331     -0.0000      0.0543      0.0166
        35         0.0000      0.0000     -0.1347      0.0181      0.0056
        36         0.0000     -0.1205     -0.0000      0.0145      0.0045
        37        -0.2662     -0.0000      0.0000      0.0709      0.0222
        38        -0.0000     -0.0000      0.1784      0.0318      0.0100
        39         0.0000      0.2465     -0.0000      0.0608      0.0195
        40        -0.0000     -0.7337      0.0000      0.5383      0.1742
        41        -0.0387      0.0000     -0.0000      0.0015      0.0005
        42         0.0000      0.0000      0.2637      0.0695      0.0227
        43         0.0012      0.0000     -0.0000      0.0000      0.0000
        44         0.0000     -0.0000     -0.0000      0.0000      0.0000
        45        -0.0000      0.0000     -0.3099      0.0960      0.0317
        46        -0.3654     -0.0000      0.0000      0.1335      0.0441
        47         0.4212     -0.0000     -0.0000      0.1774      0.0587
        48        -0.0000     -0.0000      0.7320      0.5358      0.1783
        49        -0.5393     -0.0000      0.0000      0.2908      0.0979
        50        -0.0000      0.0000     -0.0000      0.0000      0.0000
        51         0.0000      0.2054      0.0000      0.0422      0.0143
[...]
      7   0.000000D+00  0.126910D+00  0.000000D+00  0.706649D-01 -0.786048D-01
      8   0.000000D+00  0.000000D+00  0.000000D+00  0.000000D+00  0.000000D+00
      9   0.000000D+00  0.000000D+00 -0.236195D+00  0.000000D+00  0.000000D+00
     10  -0.648137D-01  0.000000D+00  0.000000D+00  0.000000D+00  0.000000D+00
     11   0.000000D+00 -0.677034D-01  0.000000D+00  0.746580D-01  0.263599D+00
     12   0.000000D+00 -0.620102D+00  0.000000D+00  0.329027D+00  0.383446D+00
     13   0.000000D+00  0.506079D+00  0.000000D+00  0.122497D+00 -0.310692D+00
     14  -0.590885D-01  0.000000D+00  0.000000D+00  0.000000D+00  0.000000D+00
     15   0.000000D+00  0.000000D+00 -0.257503D+00  0.000000D+00  0.000000D+00
     16   0.000000D+00  0.000000D+00  0.000000D+00  0.000000D+00  0.000000D+00
               681           682           683           684           685 
      1  -0.150381D+03 -0.150364D+03 -0.150361D+03 -0.150353D+03 -0.150345D+03
      2   0.000000D+00  0.132874D+00  0.000000D+00  0.000000D+00  0.000000D+00
      3   0.439439D-01  0.000000D+00  0.000000D+00 -0.288627D+00  0.310652D-01
      4   0.000000D+00  0.000000D+00 -0.160946D+00  0.000000D+00  0.000000D+00
      5   0.000000D+00 -0.367131D+00  0.000000D+00  0.000000D+00  0.000000D+00
      6  -0.103350D+00  0.000000D+00  0.000000D+00  0.840988D+00 -0.429450D-01
      7   0.000000D+00  0.000000D+00  0.483839D+00  0.000000D+00  0.000000D+00
      8   0.868912D+00  0.000000D+00  0.000000D+00 -0.989986D+00 -0.312191D+00
      9   0.000000D+00 -0.326376D+00  0.000000D+00  0.000000D+00  0.000000D+00
     10   0.000000D+00  0.000000D+00  0.000000D+00  0.000000D+00  0.000000D+00
     11   0.000000D+00  0.000000D+00 -0.100257D+00  0.000000D+00  0.000000D+00
     12   0.000000D+00  0.000000D+00  0.437037D+00  0.000000D+00  0.000000D+00
     13   0.000000D+00  0.000000D+00  0.221310D+01  0.000000D+00  0.000000D+00
     14   0.000000D+00  0.000000D+00  0.000000D+00  0.000000D+00  0.000000D+00
     15   0.000000D+00  0.696470D-01  0.000000D+00  0.000000D+00  0.000000D+00
     16  -0.410292D+00  0.000000D+00  0.000000D+00  0.135089D+01  0.595861D-02
               686           687           688           689           690 
      1  -0.150333D+03 -0.150331D+03 -0.150331D+03 -0.150320D+03 -0.150312D+03
      2  -0.157015D+00  0.000000D+00  0.000000D+00  0.000000D+00  0.884697D-01
      3   0.000000D+00  0.000000D+00  0.000000D+00  0.000000D+00  0.000000D+00
      4   0.000000D+00  0.719770D-01  0.000000D+00  0.395363D-01  0.000000D+00
      5   0.458011D+00  0.000000D+00  0.000000D+00  0.000000D+00 -0.235269D+00
      6   0.000000D+00  0.000000D+00  0.000000D+00  0.000000D+00  0.000000D+00
      7   0.000000D+00 -0.233843D+00  0.000000D+00 -0.140377D+00  0.000000D+00
      8   0.000000D+00  0.000000D+00  0.000000D+00  0.000000D+00  0.000000D+00
      9   0.291237D+00  0.000000D+00  0.000000D+00  0.000000D+00 -0.585567D+00
     10   0.000000D+00  0.000000D+00  0.251753D+00  0.000000D+00  0.000000D+00
     11   0.000000D+00 -0.170482D+00  0.000000D+00  0.469892D+00  0.000000D+00
     12   0.000000D+00  0.165017D+00  0.000000D+00 -0.503343D+00  0.000000D+00
     13   0.000000D+00 -0.110705D+01  0.000000D+00 -0.567360D+00  0.000000D+00
     14   0.000000D+00  0.000000D+00  0.555052D-02  0.000000D+00  0.000000D+00
     15   0.364357D+00  0.000000D+00  0.000000D+00  0.000000D+00 -0.686572D+00
     16   0.000000D+00  0.000000D+00  0.000000D+00  0.000000D+00  0.000000D+00
               691           692           693           694           695 
      1  -0.150300D+03 -0.150290D+03 -0.150287D+03 -0.150282D+03 -0.150280D+03
      2   0.000000D+00  0.256679D-01  0.000000D+00 -0.258395D+00  0.000000D+00
      3   0.000000D+00  0.000000D+00  0.000000D+00  0.000000D+00  0.354325D-02
      4   0.000000D+00  0.000000D+00 -0.456436D-01  0.000000D+00  0.000000D+00
      5   0.000000D+00 -0.965733D-01  0.000000D+00  0.730998D+00  0.000000D+00
      6   0.000000D+00  0.000000D+00  0.000000D+00  0.000000D+00 -0.357387D-01
      7   0.000000D+00  0.000000D+00  0.141807D+00  0.000000D+00  0.000000D+00
      8   0.000000D+00  0.000000D+00  0.000000D+00  0.000000D+00  0.262453D-01
      9   0.000000D+00 -0.733729D+00  0.000000D+00  0.555210D+00  0.000000D+00
     10  -0.327277D-01  0.000000D+00  0.000000D+00  0.000000D+00  0.000000D+00
     11   0.000000D+00  0.000000D+00  0.117722D+00  0.000000D+00  0.000000D+00
     12   0.000000D+00  0.000000D+00 -0.151744D+00  0.000000D+00  0.000000D+00
     13   0.000000D+00  0.000000D+00  0.865610D+00  0.000000D+00  0.000000D+00
     14  -0.103461D+00  0.000000D+00  0.000000D+00  0.000000D+00  0.000000D+00
     15   0.000000D+00 -0.678326D+00  0.000000D+00  0.870501D+00  0.000000D+00
     16   0.000000D+00  0.000000D+00  0.000000D+00  0.000000D+00  0.235697D+00
               696           697           698           699           700 
      1  -0.150274D+03 -0.150268D+03 -0.150254D+03 -0.150243D+03 -0.150236D+03
      2   0.000000D+00  0.000000D+00  0.000000D+00  0.000000D+00  0.000000D+00
      3   0.729952D-01  0.000000D+00  0.129739D+00  0.377527D-01  0.000000D+00
      4   0.000000D+00  0.000000D+00  0.000000D+00  0.000000D+00  0.000000D+00
      5   0.000000D+00  0.000000D+00  0.000000D+00  0.000000D+00  0.000000D+00
      6  -0.197056D+00  0.000000D+00 -0.378605D+00 -0.127680D+00  0.000000D+00
      7   0.000000D+00  0.000000D+00  0.000000D+00  0.000000D+00  0.000000D+00
      8  -0.578008D-01  0.000000D+00  0.512203D+00  0.123158D+00  0.000000D+00
      9   0.000000D+00  0.000000D+00  0.000000D+00  0.000000D+00  0.000000D+00
     10   0.000000D+00 -0.225867D+00  0.000000D+00  0.000000D+00  0.898934D-01
     11   0.000000D+00  0.000000D+00  0.000000D+00  0.000000D+00  0.000000D+00
     12   0.000000D+00  0.000000D+00  0.000000D+00  0.000000D+00  0.000000D+00
     13   0.000000D+00  0.000000D+00  0.000000D+00  0.000000D+00  0.000000D+00
     14   0.000000D+00  0.205978D+00  0.000000D+00  0.000000D+00 -0.112016D+00
     15   0.000000D+00  0.000000D+00  0.000000D+00  0.000000D+00  0.000000D+00
     16  -0.216641D-02  0.000000D+00 -0.437639D+00 -0.337940D+00  0.000000D+00
               701           702           703           704           705 
      1  -0.150234D+03 -0.150233D+03 -0.150210D+03 -0.150198D+03 -0.150190D+03
      2   0.000000D+00  0.000000D+00  0.000000D+00  0.000000D+00  0.000000D+00
      3   0.000000D+00 -0.162471D+00 -0.433111D-01  0.000000D+00  0.000000D+00
      4  -0.272640D-01  0.000000D+00  0.000000D+00  0.000000D+00  0.000000D+00
      5   0.000000D+00  0.000000D+00  0.000000D+00  0.000000D+00  0.000000D+00
      6   0.000000D+00  0.494857D+00  0.112631D+00  0.000000D+00  0.000000D+00
      7   0.898027D-01  0.000000D+00  0.000000D+00  0.000000D+00  0.000000D+00
      8   0.000000D+00 -0.582935D+00 -0.479408D+00  0.000000D+00  0.000000D+00
      9   0.000000D+00  0.000000D+00  0.000000D+00  0.000000D+00  0.000000D+00
     10   0.000000D+00  0.000000D+00  0.000000D+00  0.151969D+00 -0.365280D+00
     11   0.105043D+00  0.000000D+00  0.000000D+00  0.000000D+00  0.000000D+00
     12  -0.299217D+00  0.000000D+00  0.000000D+00  0.000000D+00  0.000000D+00
     13   0.633546D+00  0.000000D+00  0.000000D+00  0.000000D+00  0.000000D+00
     14   0.000000D+00  0.000000D+00  0.000000D+00 -0.125926D+00  0.571134D+00
     15   0.000000D+00  0.000000D+00  0.000000D+00  0.000000D+00  0.000000D+00
     16   0.000000D+00  0.101859D+01  0.373102D+00  0.000000D+00  0.000000D+00
               706           707           708           709           710 
      1  -0.150181D+03 -0.150179D+03 -0.150158D+03 -0.150153D+03 -0.150150D+03
      2  -0.253480D-01  0.000000D+00  0.000000D+00  0.104538D+00  0.000000D+00
      3   0.000000D+00 -0.166011D+00  0.000000D+00  0.000000D+00  0.000000D+00
      4   0.000000D+00  0.000000D+00 -0.486542D-01  0.000000D+00 -0.863414D-01
      5   0.696089D-01  0.000000D+00  0.000000D+00 -0.284429D+00  0.000000D+00
      6   0.000000D+00  0.506260D+00  0.000000D+00  0.000000D+00  0.000000D+00
      7   0.000000D+00  0.000000D+00  0.183832D+00  0.000000D+00  0.276745D+00
      8   0.000000D+00 -0.105450D+01  0.000000D+00  0.000000D+00  0.000000D+00
      9   0.534169D+00  0.000000D+00  0.000000D+00 -0.365013D+00  0.000000D+00
     10   0.000000D+00  0.000000D+00  0.000000D+00  0.000000D+00  0.000000D+00
     11   0.000000D+00  0.000000D+00 -0.317384D+00  0.000000D+00  0.287725D+00
     12   0.000000D+00  0.000000D+00  0.256699D-01  0.000000D+00 -0.455167D+00
     13   0.000000D+00  0.000000D+00  0.445449D+00  0.000000D+00 -0.607238D-01
     14   0.000000D+00  0.000000D+00  0.000000D+00  0.000000D+00  0.000000D+00
     15   0.684613D+00  0.000000D+00  0.000000D+00 -0.475366D+00  0.000000D+00
     16   0.000000D+00  0.123137D+01  0.000000D+00  0.000000D+00  0.000000D+00
               711           712           713           714           715 
      1  -0.150133D+03 -0.150115D+03 -0.150112D+03 -0.150077D+03 -0.150049D+03
      2   0.000000D+00  0.000000D+00  0.180752D-01  0.000000D+00  0.000000D+00
      3   0.000000D+00  0.000000D+00  0.000000D+00  0.000000D+00  0.000000D+00
      4   0.623721D-02  0.000000D+00  0.000000D+00  0.628073D-02  0.000000D+00
      5   0.000000D+00  0.000000D+00 -0.917641D-01  0.000000D+00  0.000000D+00
      6   0.000000D+00  0.000000D+00  0.000000D+00  0.000000D+00  0.000000D+00
      7  -0.344029D-01  0.000000D+00  0.000000D+00 -0.932094D-02  0.000000D+00
      8   0.000000D+00  0.000000D+00  0.000000D+00  0.000000D+00  0.000000D+00
      9   0.000000D+00  0.000000D+00  0.186119D+00  0.000000D+00  0.000000D+00
     10   0.000000D+00 -0.136495D+00  0.000000D+00  0.000000D+00 -0.102634D-03
     11  -0.208152D-01  0.000000D+00  0.000000D+00  0.701869D-01  0.000000D+00
     12   0.616675D+00  0.000000D+00  0.000000D+00 -0.852360D+00  0.000000D+00
     13   0.430668D+00  0.000000D+00  0.000000D+00 -0.248324D-01  0.000000D+00
     14   0.000000D+00 -0.200456D+00  0.000000D+00  0.000000D+00 -0.885126D-01
     15   0.000000D+00  0.000000D+00  0.336926D+00  0.000000D+00  0.000000D+00
     16   0.000000D+00  0.000000D+00  0.000000D+00  0.000000D+00  0.000000D+00
               716           717           718           719           720 
      1  -0.150045D+03 -0.150034D+03 -0.150021D+03 -0.150015D+03 -0.150008D+03
      2   0.000000D+00  0.000000D+00  0.237966D+00  0.000000D+00  0.000000D+00
      3  -0.255381D-01  0.000000D+00  0.000000D+00  0.000000D+00  0.000000D+00
      4   0.000000D+00  0.000000D+00  0.000000D+00 -0.104415D+00  0.000000D+00
      5   0.000000D+00  0.000000D+00 -0.746525D+00  0.000000D+00  0.000000D+00
      6   0.414197D-01  0.000000D+00  0.000000D+00  0.000000D+00  0.000000D+00
      7   0.000000D+00  0.000000D+00  0.000000D+00  0.365632D+00  0.000000D+00
      8   0.805164D-01  0.000000D+00  0.000000D+00  0.000000D+00  0.000000D+00
      9   0.000000D+00  0.000000D+00 -0.977539D+00  0.000000D+00  0.000000D+00
     10   0.000000D+00 -0.469272D+00  0.000000D+00  0.000000D+00 -0.138020D-01
     11   0.000000D+00  0.000000D+00  0.000000D+00 -0.165795D+00  0.000000D+00
     12   0.000000D+00  0.000000D+00  0.000000D+00 -0.319928D+00  0.000000D+00
     13   0.000000D+00  0.000000D+00  0.000000D+00  0.205695D+01  0.000000D+00
     14   0.000000D+00  0.576945D+00  0.000000D+00  0.000000D+00 -0.191285D+00
     15   0.000000D+00  0.000000D+00 -0.109108D+01  0.000000D+00  0.000000D+00
     16  -0.116406D+00  0.000000D+00  0.000000D+00  0.000000D+00  0.000000D+00
               721           722           723           724           725 
      1  -0.150007D+03 -0.149979D+03 -0.149964D+03 -0.149963D+03 -0.149947D+03
      2   0.000000D+00 -0.273000D+00  0.000000D+00  0.000000D+00  0.000000D+00
      3  -0.936634D-01  0.000000D+00 -0.980984D-01  0.000000D+00  0.327917D-01
      4   0.000000D+00  0.000000D+00  0.000000D+00  0.000000D+00  0.000000D+00
      5   0.000000D+00  0.869532D+00  0.000000D+00  0.000000D+00  0.000000D+00
      6   0.326168D+00  0.000000D+00  0.330806D+00  0.000000D+00 -0.112445D+00
      7   0.000000D+00  0.000000D+00  0.000000D+00  0.000000D+00  0.000000D+00
      8  -0.379810D-01  0.000000D+00 -0.370299D+00  0.000000D+00 -0.290616D-01
      9   0.000000D+00  0.139876D+01  0.000000D+00  0.000000D+00  0.000000D+00
     10   0.000000D+00  0.000000D+00  0.000000D+00 -0.161750D+00  0.000000D+00
     11   0.000000D+00  0.000000D+00  0.000000D+00  0.000000D+00  0.000000D+00
     12   0.000000D+00  0.000000D+00  0.000000D+00  0.000000D+00  0.000000D+00
     13   0.000000D+00  0.000000D+00  0.000000D+00  0.000000D+00  0.000000D+00
     14   0.000000D+00  0.000000D+00  0.000000D+00  0.184523D+00  0.000000D+00
     15   0.000000D+00  0.189159D+01  0.000000D+00  0.000000D+00  0.000000D+00
     16  -0.452916D-01  0.000000D+00  0.887606D-01  0.000000D+00  0.871895D-01
               726           727           728           729           730 
      1  -0.149923D+03 -0.149900D+03 -0.149884D+03 -0.149883D+03 -0.149882D+03
      2   0.000000D+00 -0.186481D-01 -0.205441D-01  0.000000D+00  0.160562D+00
      3  -0.224727D+00  0.000000D+00  0.000000D+00  0.000000D+00  0.000000D+00
      4   0.000000D+00  0.000000D+00  0.000000D+00  0.242260D-01  0.000000D+00
      5   0.000000D+00  0.834636D-01  0.544004D-01  0.000000D+00 -0.499125D+00
      6   0.744856D+00  0.000000D+00  0.000000D+00  0.000000D+00  0.000000D+00
      7   0.000000D+00  0.000000D+00  0.000000D+00 -0.823888D-01  0.000000D+00
      8  -0.826679D+00  0.000000D+00  0.000000D+00  0.000000D+00  0.000000D+00
      9   0.000000D+00  0.336796D+00  0.202738D+00  0.000000D+00 -0.891193D-01
     10   0.000000D+00  0.000000D+00  0.000000D+00  0.000000D+00  0.000000D+00
     11   0.000000D+00  0.000000D+00  0.000000D+00 -0.145252D+00  0.000000D+00
     12   0.000000D+00  0.000000D+00  0.000000D+00  0.143490D+00  0.000000D+00
     13   0.000000D+00  0.000000D+00  0.000000D+00 -0.121353D+00  0.000000D+00
     14   0.000000D+00  0.000000D+00  0.000000D+00  0.000000D+00  0.000000D+00
     15   0.000000D+00  0.408304D+00  0.340335D+00  0.000000D+00  0.141838D+00
     16   0.106159D+01  0.000000D+00  0.000000D+00  0.000000D+00  0.000000D+00
               731           732           733           734           735 
      1  -0.149864D+03 -0.149834D+03 -0.149831D+03 -0.149801D+03 -0.149767D+03
      2   0.000000D+00  0.000000D+00  0.135763D+00  0.000000D+00  0.000000D+00
      3   0.000000D+00  0.000000D+00  0.000000D+00  0.000000D+00 -0.176678D+00
      4   0.000000D+00 -0.661404D-01  0.000000D+00 -0.317016D+00  0.000000D+00
      5   0.000000D+00  0.000000D+00 -0.441288D+00  0.000000D+00  0.000000D+00
      6   0.000000D+00  0.000000D+00  0.000000D+00  0.000000D+00  0.624179D+00
      7   0.000000D+00  0.235159D+00  0.000000D+00  0.111486D+01  0.000000D+00
      8   0.000000D+00  0.000000D+00  0.000000D+00  0.000000D+00 -0.115582D+01
      9   0.000000D+00  0.000000D+00 -0.827174D+00  0.000000D+00  0.000000D+00
     10  -0.225605D+00  0.000000D+00  0.000000D+00  0.000000D+00  0.000000D+00
     11   0.000000D+00  0.208769D+00  0.000000D+00 -0.105304D+00  0.000000D+00
     12   0.000000D+00 -0.380917D+00  0.000000D+00 -0.129233D+00  0.000000D+00
     13   0.000000D+00  0.782357D+00  0.000000D+00  0.277986D+01  0.000000D+00
     14   0.342615D+00  0.000000D+00  0.000000D+00  0.000000D+00  0.000000D+00
     15   0.000000D+00  0.000000D+00 -0.110784D+01  0.000000D+00  0.000000D+00
     16   0.000000D+00  0.000000D+00  0.000000D+00  0.000000D+00  0.116812D+01
               736           737           738           739           740 
      1  -0.149762D+03 -0.149753D+03 -0.149731D+03 -0.149713D+03 -0.149686D+03
      2   0.000000D+00  0.000000D+00  0.000000D+00  0.000000D+00  0.000000D+00
      3   0.000000D+00  0.000000D+00  0.771434D-01  0.000000D+00  0.000000D+00
      4   0.000000D+00 -0.102687D+00  0.000000D+00  0.000000D+00 -0.306480D-01
      5   0.000000D+00  0.000000D+00  0.000000D+00  0.000000D+00  0.000000D+00
      6   0.000000D+00  0.000000D+00 -0.239928D+00  0.000000D+00  0.000000D+00
      7   0.000000D+00  0.348787D+00  0.000000D+00  0.000000D+00  0.119377D+00
      8   0.000000D+00  0.000000D+00  0.553285D+00  0.000000D+00  0.000000D+00
      9   0.000000D+00  0.000000D+00  0.000000D+00  0.000000D+00  0.000000D+00
     10   0.160796D+00  0.000000D+00  0.000000D+00  0.104306D+00  0.000000D+00
     11   0.000000D+00 -0.301204D+00  0.000000D+00  0.000000D+00 -0.181123D+00
     12   0.000000D+00  0.140651D+00  0.000000D+00  0.000000D+00  0.336464D+00
     13   0.000000D+00  0.822760D+00  0.000000D+00  0.000000D+00  0.115950D+01
     14  -0.170938D+00  0.000000D+00  0.000000D+00 -0.505673D+00  0.000000D+00
     15   0.000000D+00  0.000000D+00  0.000000D+00  0.000000D+00  0.000000D+00
     16   0.000000D+00  0.000000D+00  0.125864D+00  0.000000D+00  0.000000D+00
               741           742           743           744           745 
      1  -0.149645D+03 -0.149642D+03 -0.149610D+03 -0.149601D+03 -0.149464D+03
      2   0.000000D+00  0.000000D+00  0.000000D+00  0.512391D-01  0.000000D+00
      3   0.710454D-01  0.000000D+00 -0.266370D-01  0.000000D+00  0.000000D+00
      4   0.000000D+00 -0.562955D-01  0.000000D+00  0.000000D+00  0.000000D+00
      5   0.000000D+00  0.000000D+00  0.000000D+00 -0.187102D+00  0.000000D+00
      6  -0.232179D+00  0.000000D+00  0.860658D-01  0.000000D+00  0.000000D+00
      7   0.000000D+00  0.302967D+00  0.000000D+00  0.000000D+00  0.000000D+00
      8   0.158696D+00  0.000000D+00 -0.117915D+00  0.000000D+00  0.000000D+00
      9   0.000000D+00  0.000000D+00  0.000000D+00 -0.567522D+00  0.000000D+00
     10   0.000000D+00  0.000000D+00  0.000000D+00  0.000000D+00  0.315821D+00
     11   0.000000D+00 -0.901513D-01  0.000000D+00  0.000000D+00  0.000000D+00
     12   0.000000D+00 -0.394844D-02  0.000000D+00  0.000000D+00  0.000000D+00
     13   0.000000D+00  0.209625D+01  0.000000D+00  0.000000D+00  0.000000D+00
     14   0.000000D+00  0.000000D+00  0.000000D+00  0.000000D+00 -0.227140D+00
     15   0.000000D+00  0.000000D+00  0.000000D+00 -0.386250D+00  0.000000D+00
     16  -0.212469D+00  0.000000D+00  0.889032D+00  0.000000D+00  0.000000D+00
               746           747 
      1  -0.149288D+03 -0.149215D+03
      2   0.000000D+00  0.000000D+00
      3   0.000000D+00  0.458342D-01
      4   0.350298D-01  0.000000D+00
      5   0.000000D+00  0.000000D+00
      6   0.000000D+00 -0.221268D+00
      7  -0.217142D+00  0.000000D+00
      8   0.000000D+00  0.345311D+00
      9   0.000000D+00  0.000000D+00
     10   0.000000D+00  0.000000D+00
     11  -0.126756D+00  0.000000D+00
     12  -0.561362D-01  0.000000D+00
     13  -0.707831D+00  0.000000D+00
     14   0.000000D+00  0.000000D+00
     15   0.000000D+00  0.000000D+00
     16   0.000000D+00 -0.209416D+00
 Unable to Open any file for archive entry.
 1\1\GINC-HEL24\SP\RTPSSTPSS TD-FC\Gen\C2H4O1\SABYASACHI\21-Mar-2022\0\
 \#P TD(Nstates=10000) tpsstpss/Gen SCF(maxcycles=100) Int(Grid=ultrafi
 ne)\\xGDB7_00001_tier4.com\\0,1\C,0,0.,0.729549,-0.367364\C,0,0.,-0.72
 9549,-0.367364\O,0,0.,0.,0.845033\H,0,-0.918945,1.264243,-0.587975\H,0
 ,0.918945,1.264243,-0.587975\H,0,0.918945,-1.264243,-0.587975\H,0,-0.9
 18945,-1.264243,-0.587975\\Version=EM64L-G16RevC.01\State=1-A1\HF=-153
 .7144293\RMSD=8.193e-09\PG=C02V [C2(O1),SGV(C2),X(H4)]\\@
 The archive entry for this job was punched.


 Human beings, who are almost unique in having the
 ability to learn from the experience of others, are
 also remarkable for their apparent disinclination to do so.
                               -- Douglas Adams,
                                Last Chance to See
 Job cpu time:       0 days  0 hours  5 minutes 53.2 seconds.
 Elapsed time:       0 days  0 hours  0 minutes 44.4 seconds.
 File lengths (MBytes):  RWF=    280 Int=      0 D2E=      0 Chk=    165 Scr=      1
 Normal termination of Gaussian 16 at Mon Mar 21 20:24:46 2022.
