 Entering Gaussian System, Link 0=g16
 Input=000018.com
 Output=000018.log
 Initial command:
 /home/sabyasachi/g16/l1.exe "/scratch/sabyasachi/PBS_7976548.helios/Gau-148432.inp" -scrdir="/scratch/sabyasachi/PBS_7976548.helios/"
 Entering Link 1 = /home/sabyasachi/g16/l1.exe PID=    148433.
  
 Copyright (c) 1988-2019, Gaussian, Inc.  All Rights Reserved.
  
 This is part of the Gaussian(R) 16 program.  It is based on
 the Gaussian(R) 09 system (copyright 2009, Gaussian, Inc.),
 the Gaussian(R) 03 system (copyright 2003, Gaussian, Inc.),
 the Gaussian(R) 98 system (copyright 1998, Gaussian, Inc.),
 the Gaussian(R) 94 system (copyright 1995, Gaussian, Inc.),
 the Gaussian 92(TM) system (copyright 1992, Gaussian, Inc.),
 the Gaussian 90(TM) system (copyright 1990, Gaussian, Inc.),
 the Gaussian 88(TM) system (copyright 1988, Gaussian, Inc.),
 the Gaussian 86(TM) system (copyright 1986, Carnegie Mellon
 University), and the Gaussian 82(TM) system (copyright 1983,
 Carnegie Mellon University). Gaussian is a federally registered
 trademark of Gaussian, Inc.
  
 This software contains proprietary and confidential information,
 including trade secrets, belonging to Gaussian, Inc.
  
 This software is provided under written license and may be
 used, copied, transmitted, or stored only in accord with that
 written license.
  
 The following legend is applicable only to US Government
 contracts under FAR:
  
                    RESTRICTED RIGHTS LEGEND
  
 Use, reproduction and disclosure by the US Government is
 subject to restrictions as set forth in subparagraphs (a)
 and (c) of the Commercial Computer Software - Restricted
 Rights clause in FAR 52.227-19.
  
 Gaussian, Inc.
 340 Quinnipiac St., Bldg. 40, Wallingford CT 06492
  
  
 ---------------------------------------------------------------
 Warning -- This program may not be used in any manner that
 competes with the business of Gaussian, Inc. or will provide
 assistance to any competitor of Gaussian, Inc.  The licensee
 of this program is prohibited from giving any competitor of
 Gaussian, Inc. access to this program.  By using this program,
 the user acknowledges that Gaussian, Inc. is engaged in the
 business of creating and licensing software in the field of
 computational chemistry and represents and warrants to the
 licensee that it is not a competitor of Gaussian, Inc. and that
 it will not use this program in any manner prohibited above.
 ---------------------------------------------------------------
  

 Cite this work as:
 Gaussian 16, Revision C.01,
 M. J. Frisch, G. W. Trucks, H. B. Schlegel, G. E. Scuseria, 
 M. A. Robb, J. R. Cheeseman, G. Scalmani, V. Barone, 
 G. A. Petersson, H. Nakatsuji, X. Li, M. Caricato, A. V. Marenich, 
 J. Bloino, B. G. Janesko, R. Gomperts, B. Mennucci, H. P. Hratchian, 
 J. V. Ortiz, A. F. Izmaylov, J. L. Sonnenberg, D. Williams-Young, 
 F. Ding, F. Lipparini, F. Egidi, J. Goings, B. Peng, A. Petrone, 
 T. Henderson, D. Ranasinghe, V. G. Zakrzewski, J. Gao, N. Rega, 
 G. Zheng, W. Liang, M. Hada, M. Ehara, K. Toyota, R. Fukuda, 
 J. Hasegawa, M. Ishida, T. Nakajima, Y. Honda, O. Kitao, H. Nakai, 
 T. Vreven, K. Throssell, J. A. Montgomery, Jr., J. E. Peralta, 
 F. Ogliaro, M. J. Bearpark, J. J. Heyd, E. N. Brothers, K. N. Kudin, 
 V. N. Staroverov, T. A. Keith, R. Kobayashi, J. Normand, 
 K. Raghavachari, A. P. Rendell, J. C. Burant, S. S. Iyengar, 
 J. Tomasi, M. Cossi, J. M. Millam, M. Klene, C. Adamo, R. Cammi, 
 J. W. Ochterski, R. L. Martin, K. Morokuma, O. Farkas, 
 J. B. Foresman, and D. J. Fox, Gaussian, Inc., Wallingford CT, 2019.
 
 ******************************************
 Gaussian 16:  EM64L-G16RevC.01  3-Jul-2019
                21-Mar-2022 
 ******************************************
 %mem=64gb
 %nproc=8
 Will use up to    8 processors via shared memory.
 ----------------------------------------------------------------------
 #P TD(Nstates=10000) tpsstpss/Gen SCF(maxcycles=100) Int(Grid=ultrafin
 e)
 ----------------------------------------------------------------------
 1/38=1,172=1/1;
 2/12=2,17=6,18=5,40=1/2;
 3/5=7,11=9,25=1,30=1,74=2523,75=-5/1,2,3,8;
 4//1;
 5/5=2,7=100,38=5/2;
 8/6=1,10=1,108=10000/1;
 9/41=10000,42=1,70=2/14;
 6/7=2,8=2,9=2,10=2/1;
 99/5=1,9=1/99;
 Leave Link    1 at Mon Mar 21 20:12:44 2022, MaxMem=  8589934592 cpu:               0.4 elap:               0.1
 (Enter /home/sabyasachi/g16/l101.exe)
 ---------------------
 xGDB7_00001_tier4.com
 ---------------------
 Symbolic Z-matrix:
 Charge =  0 Multiplicity = 1
 9                     0.        1.09881  -0.28912 
 6                     0.        0.        0.49994 
 9                     0.       -1.09881  -0.28912 
 1                    -0.91135   0.        1.10225 
 1                     0.91135   0.        1.10225 
 
 ITRead=  0  0  0  0  0
 MicOpt= -1 -1 -1 -1 -1
 NAtoms=      5 NQM=        5 NQMF=       0 NMMI=      0 NMMIF=      0
                NMic=       0 NMicF=      0.
                    Isotopes and Nuclear Properties:
 (Nuclear quadrupole moments (NQMom) in fm**2, nuclear magnetic moments (NMagM)
  in nuclear magnetons)

  Atom         1           2           3           4           5
 IAtWgt=          19          12          19           1           1
 AtmWgt=  18.9984033  12.0000000  18.9984033   1.0078250   1.0078250
 NucSpn=           1           0           1           1           1
 AtZEff=  -0.0000000  -0.0000000  -0.0000000  -0.0000000  -0.0000000
 NQMom=    0.0000000   0.0000000   0.0000000   0.0000000   0.0000000
 NMagM=    2.6288670   0.0000000   2.6288670   2.7928460   2.7928460
 AtZNuc=   9.0000000   6.0000000   9.0000000   1.0000000   1.0000000
 Leave Link  101 at Mon Mar 21 20:12:45 2022, MaxMem=  8589934592 cpu:               0.6 elap:               0.1
 (Enter /home/sabyasachi/g16/l202.exe)
                          Input orientation:                          
 ---------------------------------------------------------------------
 Center     Atomic      Atomic             Coordinates (Angstroms)
 Number     Number       Type             X           Y           Z
 ---------------------------------------------------------------------
      1          9           0        0.000000    1.098813   -0.289120
      2          6           0        0.000000    0.000000    0.499944
      3          9           0        0.000000   -1.098813   -0.289120
      4          1           0       -0.911346    0.000000    1.102246
      5          1           0        0.911346    0.000000    1.102246
 ---------------------------------------------------------------------
                    Distance matrix (angstroms):
                    1          2          3          4          5
     1  F    0.000000
     2  C    1.352779   0.000000
     3  F    2.197626   1.352779   0.000000
     4  H    1.993449   1.092392   1.993449   0.000000
     5  H    1.993449   1.092392   1.993449   1.822692   0.000000
 Stoichiometry    CH2F2
 Framework group  C2V[C2(C),SGV(F2),SGV'(H2)]
 Deg. of freedom     4
 Full point group                 C2V     NOp   4
 Largest Abelian subgroup         C2V     NOp   4
 Largest concise Abelian subgroup C2V     NOp   4
                         Standard orientation:                         
 ---------------------------------------------------------------------
 Center     Atomic      Atomic             Coordinates (Angstroms)
 Number     Number       Type             X           Y           Z
 ---------------------------------------------------------------------
      1          9           0        0.000000    1.098813   -0.289120
      2          6           0       -0.000000   -0.000000    0.499944
      3          9           0       -0.000000   -1.098813   -0.289120
      4          1           0       -0.911346    0.000000    1.102246
      5          1           0        0.911346   -0.000000    1.102246
 ---------------------------------------------------------------------
 Rotational constants (GHZ):          49.7833800          10.6281321           9.2978450
 Leave Link  202 at Mon Mar 21 20:12:45 2022, MaxMem=  8589934592 cpu:               0.1 elap:               0.0
 (Enter /home/sabyasachi/g16/l301.exe)
 General basis read from cards:  (5D, 7F)
 Centers:       4      5
 S 3 1.00
     Exponent=  1.3010701000D+01 Coefficients=  1.9682158000D-02
     Exponent=  1.9622572000D+00 Coefficients=  1.3796524000D-01
     Exponent=  4.4453796000D-01 Coefficients=  4.7831935000D-01
 S 1 1.00
     Exponent=  1.2194962000D-01 Coefficients=  1.0000000000D+00
 P 1 1.00
     Exponent=  8.0000000000D-01 Coefficients=  1.0000000000D+00
 P 1 1.00
     Exponent=  1.1704099050D-01 Coefficients=  1.0000000000D+00
 ****
 Centers:       2
 S 5 1.00
     Exponent=  1.2384016938D+03 Coefficients=  5.4568832082D-03
     Exponent=  1.8629004992D+02 Coefficients=  4.0638409211D-02
     Exponent=  4.2251176346D+01 Coefficients=  1.8025593888D-01
     Exponent=  1.1676557932D+01 Coefficients=  4.6315121755D-01
     Exponent=  3.5930506482D+00 Coefficients=  4.4087173314D-01
 S 1 1.00
     Exponent=  4.0245147363D-01 Coefficients=  1.0000000000D+00
 S 1 1.00
     Exponent=  1.3090182668D-01 Coefficients=  1.0000000000D+00
 S 1 1.00
     Exponent=  6.7053540256D-02 Coefficients=  1.0000000000D+00
 P 3 1.00
     Exponent=  9.4680970621D+00 Coefficients=  3.8387871728D-02
     Exponent=  2.0103545142D+00 Coefficients=  2.1117025112D-01
     Exponent=  5.4771004707D-01 Coefficients=  5.1328172114D-01
 P 1 1.00
     Exponent=  1.5268613795D-01 Coefficients=  1.0000000000D+00
 D 1 1.00
     Exponent=  8.0000000000D-01 Coefficients=  1.0000000000D+00
 D 1 1.00
     Exponent=  1.1713185140D-01 Coefficients=  1.0000000000D+00
 ****
 Centers:       1      3
 S 5 1.00
     Exponent=  2.8948325990D+03 Coefficients= -5.3408255515D-03
     Exponent=  4.3541939120D+02 Coefficients= -3.9904258866D-02
     Exponent=  9.8843328866D+01 Coefficients= -1.7912768038D-01
     Exponent=  2.7485198001D+01 Coefficients= -4.6758090825D-01
     Exponent=  8.5405498171D+00 Coefficients= -4.4653131020D-01
 S 1 1.00
     Exponent=  1.0654578038D+00 Coefficients=  1.0000000000D+00
 S 1 1.00
     Exponent=  3.3247346748D-01 Coefficients=  1.0000000000D+00
 S 1 1.00
     Exponent=  9.8097752264D-02 Coefficients=  1.0000000000D+00
 P 3 1.00
     Exponent=  2.2696633924D+01 Coefficients= -4.5212874436D-02
     Exponent=  4.9872339257D+00 Coefficients= -2.3754317067D-01
     Exponent=  1.3491613954D+00 Coefficients= -5.1287353587D-01
 P 1 1.00
     Exponent=  3.4829881977D-01 Coefficients=  1.0000000000D+00
 P 1 1.00
     Exponent=  8.3372148304D-02 Coefficients=  1.0000000000D+00
 D 1 1.00
     Exponent=  1.4000000000D+00 Coefficients=  1.0000000000D+00
 D 1 1.00
     Exponent=  2.2301361948D-01 Coefficients=  1.0000000000D+00
 ****
 Ernie: Thresh=  0.10000D-02 Tol=  0.10000D-05 Strict=F.
 There are    36 symmetry adapted cartesian basis functions of A1  symmetry.
 There are    11 symmetry adapted cartesian basis functions of A2  symmetry.
 There are    17 symmetry adapted cartesian basis functions of B1  symmetry.
 There are    24 symmetry adapted cartesian basis functions of B2  symmetry.
 There are    32 symmetry adapted basis functions of A1  symmetry.
 There are    11 symmetry adapted basis functions of A2  symmetry.
 There are    17 symmetry adapted basis functions of B1  symmetry.
 There are    22 symmetry adapted basis functions of B2  symmetry.
    82 basis functions,   122 primitive gaussians,    88 cartesian basis functions
    13 alpha electrons       13 beta electrons
       nuclear repulsion energy        77.4114556534 Hartrees.
 IExCor= 2523 DFT=T Ex=TPSS Corr=TPSS ExCW=0 ScaHFX=  0.000000
 ScaDFX=  1.000000  1.000000  1.000000  1.000000 ScalE2=  1.000000  1.000000
 IRadAn=      5 IRanWt=     -1 IRanGd=            0 ICorTp=0 IEmpDi=  4
 NAtoms=    5 NActive=    5 NUniq=    3 SFac= 2.78D+00 NAtFMM=   60 NAOKFM=F Big=F
 Integral buffers will be    131072 words long.
 Regular integral format.
 Two-electron integral symmetry is turned on.
 Leave Link  301 at Mon Mar 21 20:12:45 2022, MaxMem=  8589934592 cpu:               0.6 elap:               0.1
 (Enter /home/sabyasachi/g16/l302.exe)
 NPDir=0 NMtPBC=     1 NCelOv=     1 NCel=       1 NClECP=     1 NCelD=      1
         NCelK=      1 NCelE2=     1 NClLst=     1 CellRange=     0.0.
 One-electron integrals computed using PRISM.
 One-electron integral symmetry used in STVInt
 NBasis=    82 RedAO= T EigKep=  6.29D-04  NBF=    32    11    17    22
 NBsUse=    82 1.00D-06 EigRej= -1.00D+00 NBFU=    32    11    17    22
 Precomputing XC quadrature grid using
 IXCGrd= 4 IRadAn=           5 IRanWt=          -1 IRanGd=           0 AccXCQ= 0.00D+00.
 Generated NRdTot=       0 NPtTot=           0 NUsed=           0 NTot=          32
 NSgBfM=    88    88    88    88    88 MxSgAt=     5 MxSgA2=     5.
 Leave Link  302 at Mon Mar 21 20:12:45 2022, MaxMem=  8589934592 cpu:               0.9 elap:               0.1
 (Enter /home/sabyasachi/g16/l303.exe)
 DipDrv:  MaxL=1.
 Leave Link  303 at Mon Mar 21 20:12:45 2022, MaxMem=  8589934592 cpu:               0.2 elap:               0.0
 (Enter /home/sabyasachi/g16/l308.exe)
 Leave Link  308 at Mon Mar 21 20:12:45 2022, MaxMem=  8589934592 cpu:               0.2 elap:               0.0
 (Enter /home/sabyasachi/g16/l401.exe)
 ExpMin= 6.71D-02 ExpMax= 2.89D+03 ExpMxC= 4.35D+02 IAcc=3 IRadAn=         5 AccDes= 0.00D+00
 Harris functional with IExCor= 1009 and IRadAn=       5 diagonalized for initial guess.
 HarFok:  IExCor= 1009 AccDes= 0.00D+00 IRadAn=         5 IDoV= 1 UseB2=F ITyADJ=14
 ICtDFT=  3500011 ScaDFX=  1.000000  1.000000  1.000000  1.000000
 FoFCou: FMM=F IPFlag=           0 FMFlag=      100000 FMFlg1=           0
         NFxFlg=           0 DoJE=T BraDBF=F KetDBF=T FulRan=T
         wScrn=  0.000000 ICntrl=       500 IOpCl=  0 I1Cent=   200000004 NGrid=           0
         NMat0=    1 NMatS0=      1 NMatT0=    0 NMatD0=    1 NMtDS0=    0 NMtDT0=    0
 Petite list used in FoFCou.
 Harris En= -238.583811424753    
 JPrj=0 DoOrth=F DoCkMO=F.
 Initial guess orbital symmetries:
       Occupied  (A1) (B2) (A1) (A1) (B2) (A1) (B2) (B1) (A1) (A2)
                 (A1) (B2) (B1)
       Virtual   (A1) (B2) (A1) (B1) (A1) (B2) (B1) (A1) (A2) (B2)
                 (A1) (A1) (A2) (B1) (A1) (B2) (B1) (B1) (A1) (B2)
                 (A1) (B2) (A2) (A1) (B1) (A1) (B2) (A1) (B1) (A1)
                 (A2) (B2) (A2) (B2) (A1) (B1) (B2) (A1) (B1) (A1)
                 (A2) (A1) (B1) (B2) (A2) (B2) (A1) (B1) (A1) (B1)
                 (B2) (A1) (B2) (B2) (A1) (A2) (A1) (A1) (B1) (B2)
                 (A2) (B2) (B1) (A1) (B1) (A2) (A1) (A1) (B2)
 The electronic state of the initial guess is 1-A1.
 Leave Link  401 at Mon Mar 21 20:12:45 2022, MaxMem=  8589934592 cpu:               1.3 elap:               0.2
 (Enter /home/sabyasachi/g16/l502.exe)
 Keep J ints in memory in symmetry-blocked form, NReq=13120710.
 FoFCou: FMM=F IPFlag=           0 FMFlag=           0 FMFlg1=           0
         NFxFlg=           0 DoJE=F BraDBF=F KetDBF=F FulRan=T
         wScrn=  0.000000 ICntrl=       600 IOpCl=  0 I1Cent=           0 NGrid=           0
         NMat0=    1 NMatS0=   3403 NMatT0=    0 NMatD0=    1 NMtDS0=    0 NMtDT0=    0
 Petite list used in FoFCou.
 Closed shell SCF:
 Using DIIS extrapolation, IDIIS=  1040.
 NGot=  8589934592 LenX=  8588436934 LenY=  8588428749
 Requested convergence on RMS density matrix=1.00D-08 within 100 cycles.
 Requested convergence on MAX density matrix=1.00D-06.
 Requested convergence on             energy=1.00D-06.
 No special actions if energy rises.
 Integral accuracy reduced to 1.0D-05 until final iterations.

 Cycle   1  Pass 0  IDiag  1:
 E= -238.831462728673    
 DIIS: error= 1.31D-02 at cycle   1 NSaved=   1.
 NSaved= 1 IEnMin= 1 EnMin= -238.831462728673     IErMin= 1 ErrMin= 1.31D-02
 ErrMax= 1.31D-02  0.00D+00 EMaxC= 1.00D-01 BMatC= 1.79D-02 BMatP= 1.79D-02
 IDIUse=3 WtCom= 8.69D-01 WtEn= 1.31D-01
 Coeff-Com:  0.100D+01
 Coeff-En:   0.100D+01
 Coeff:      0.100D+01
 Gap=     0.301 Goal=   None    Shift=    0.000
 GapD=    0.301 DampG=1.000 DampE=0.500 DampFc=0.5000 IDamp=-1.
 Damping current iteration by 5.00D-01
 RMSDP=2.49D-03 MaxDP=3.47D-02              OVMax= 4.71D-02

 Cycle   2  Pass 0  IDiag  1:
 E= -238.835204196562     Delta-E=       -0.003741467889 Rises=F Damp=T
 DIIS: error= 5.80D-03 at cycle   2 NSaved=   2.
 NSaved= 2 IEnMin= 2 EnMin= -238.835204196562     IErMin= 2 ErrMin= 5.80D-03
 ErrMax= 5.80D-03  0.00D+00 EMaxC= 1.00D-01 BMatC= 2.82D-03 BMatP= 1.79D-02
 IDIUse=3 WtCom= 9.42D-01 WtEn= 5.80D-02
 Coeff-Com:  0.127D+00 0.873D+00
 Coeff-En:   0.241D+00 0.759D+00
 Coeff:      0.134D+00 0.866D+00
 Gap=     0.324 Goal=   None    Shift=    0.000
 RMSDP=1.11D-03 MaxDP=1.45D-02 DE=-3.74D-03 OVMax= 3.40D-02

 Cycle   3  Pass 0  IDiag  1:
 E= -238.841274291480     Delta-E=       -0.006070094918 Rises=F Damp=F
 DIIS: error= 3.71D-03 at cycle   3 NSaved=   3.
 NSaved= 3 IEnMin= 3 EnMin= -238.841274291480     IErMin= 3 ErrMin= 3.71D-03
 ErrMax= 3.71D-03  0.00D+00 EMaxC= 1.00D-01 BMatC= 1.46D-03 BMatP= 2.82D-03
 IDIUse=3 WtCom= 9.63D-01 WtEn= 3.71D-02
 Coeff-Com: -0.888D-01 0.418D+00 0.671D+00
 Coeff-En:   0.000D+00 0.000D+00 0.100D+01
 Coeff:     -0.855D-01 0.402D+00 0.683D+00
 Gap=     0.321 Goal=   None    Shift=    0.000
 RMSDP=3.65D-04 MaxDP=8.37D-03 DE=-6.07D-03 OVMax= 1.00D-02

 Cycle   4  Pass 0  IDiag  1:
 E= -238.842238629903     Delta-E=       -0.000964338424 Rises=F Damp=F
 DIIS: error= 7.63D-04 at cycle   4 NSaved=   4.
 NSaved= 4 IEnMin= 4 EnMin= -238.842238629903     IErMin= 4 ErrMin= 7.63D-04
 ErrMax= 7.63D-04  0.00D+00 EMaxC= 1.00D-01 BMatC= 5.70D-05 BMatP= 1.46D-03
 IDIUse=3 WtCom= 9.92D-01 WtEn= 7.63D-03
 Coeff-Com: -0.233D-01 0.927D-01 0.250D+00 0.681D+00
 Coeff-En:   0.000D+00 0.000D+00 0.000D+00 0.100D+01
 Coeff:     -0.231D-01 0.920D-01 0.248D+00 0.684D+00
 Gap=     0.320 Goal=   None    Shift=    0.000
 RMSDP=9.99D-05 MaxDP=3.32D-03 DE=-9.64D-04 OVMax= 2.25D-03

 Cycle   5  Pass 0  IDiag  1:
 E= -238.842284447755     Delta-E=       -0.000045817852 Rises=F Damp=F
 DIIS: error= 2.89D-04 at cycle   5 NSaved=   5.
 NSaved= 5 IEnMin= 5 EnMin= -238.842284447755     IErMin= 5 ErrMin= 2.89D-04
 ErrMax= 2.89D-04  0.00D+00 EMaxC= 1.00D-01 BMatC= 5.38D-06 BMatP= 5.70D-05
 IDIUse=3 WtCom= 9.97D-01 WtEn= 2.89D-03
 Coeff-Com: -0.830D-02 0.214D-01 0.880D-01 0.345D+00 0.554D+00
 Coeff-En:   0.000D+00 0.000D+00 0.000D+00 0.000D+00 0.100D+01
 Coeff:     -0.828D-02 0.214D-01 0.878D-01 0.344D+00 0.556D+00
 Gap=     0.321 Goal=   None    Shift=    0.000
 RMSDP=2.69D-05 MaxDP=7.81D-04 DE=-4.58D-05 OVMax= 5.76D-04

 Cycle   6  Pass 0  IDiag  1:
 E= -238.842289215211     Delta-E=       -0.000004767456 Rises=F Damp=F
 DIIS: error= 1.16D-05 at cycle   6 NSaved=   6.
 NSaved= 6 IEnMin= 6 EnMin= -238.842289215211     IErMin= 6 ErrMin= 1.16D-05
 ErrMax= 1.16D-05  0.00D+00 EMaxC= 1.00D-01 BMatC= 1.20D-08 BMatP= 5.38D-06
 IDIUse=1 WtCom= 1.00D+00 WtEn= 0.00D+00
 Coeff-Com: -0.165D-02 0.390D-02 0.164D-01 0.677D-01 0.129D+00 0.785D+00
 Coeff:     -0.165D-02 0.390D-02 0.164D-01 0.677D-01 0.129D+00 0.785D+00
 Gap=     0.320 Goal=   None    Shift=    0.000
 RMSDP=1.22D-06 MaxDP=1.77D-05 DE=-4.77D-06 OVMax= 2.29D-05

 Initial convergence to 1.0D-05 achieved.  Increase integral accuracy.
 Cycle   7  Pass 1  IDiag  1:
 E= -238.842307869351     Delta-E=       -0.000018654140 Rises=F Damp=F
 DIIS: error= 3.65D-06 at cycle   1 NSaved=   1.
 NSaved= 1 IEnMin= 1 EnMin= -238.842307869351     IErMin= 1 ErrMin= 3.65D-06
 ErrMax= 3.65D-06  0.00D+00 EMaxC= 1.00D-01 BMatC= 2.74D-09 BMatP= 2.74D-09
 IDIUse=1 WtCom= 1.00D+00 WtEn= 0.00D+00
 Coeff-Com:  0.100D+01
 Coeff:      0.100D+01
 Gap=     0.320 Goal=   None    Shift=    0.000
 RMSDP=1.22D-06 MaxDP=1.77D-05 DE=-1.87D-05 OVMax= 1.64D-05

 Cycle   8  Pass 1  IDiag  1:
 E= -238.842307871237     Delta-E=       -0.000000001886 Rises=F Damp=F
 DIIS: error= 2.86D-06 at cycle   2 NSaved=   2.
 NSaved= 2 IEnMin= 2 EnMin= -238.842307871237     IErMin= 2 ErrMin= 2.86D-06
 ErrMax= 2.86D-06  0.00D+00 EMaxC= 1.00D-01 BMatC= 8.71D-10 BMatP= 2.74D-09
 IDIUse=1 WtCom= 1.00D+00 WtEn= 0.00D+00
 Coeff-Com:  0.327D+00 0.673D+00
 Coeff:      0.327D+00 0.673D+00
 Gap=     0.320 Goal=   None    Shift=    0.000
 RMSDP=3.86D-07 MaxDP=7.24D-06 DE=-1.89D-09 OVMax= 8.08D-06

 Cycle   9  Pass 1  IDiag  1:
 E= -238.842307871462     Delta-E=       -0.000000000225 Rises=F Damp=F
 DIIS: error= 2.39D-06 at cycle   3 NSaved=   3.
 NSaved= 3 IEnMin= 3 EnMin= -238.842307871462     IErMin= 3 ErrMin= 2.39D-06
 ErrMax= 2.39D-06  0.00D+00 EMaxC= 1.00D-01 BMatC= 5.03D-10 BMatP= 8.71D-10
 IDIUse=1 WtCom= 1.00D+00 WtEn= 0.00D+00
 Coeff-Com:  0.741D-01 0.435D+00 0.491D+00
 Coeff:      0.741D-01 0.435D+00 0.491D+00
 Gap=     0.320 Goal=   None    Shift=    0.000
 RMSDP=1.84D-07 MaxDP=3.12D-06 DE=-2.25D-10 OVMax= 4.96D-06

 Cycle  10  Pass 1  IDiag  1:
 E= -238.842307871784     Delta-E=       -0.000000000321 Rises=F Damp=F
 DIIS: error= 2.78D-07 at cycle   4 NSaved=   4.
 NSaved= 4 IEnMin= 4 EnMin= -238.842307871784     IErMin= 4 ErrMin= 2.78D-07
 ErrMax= 2.78D-07  0.00D+00 EMaxC= 1.00D-01 BMatC= 8.89D-12 BMatP= 5.03D-10
 IDIUse=1 WtCom= 1.00D+00 WtEn= 0.00D+00
 Coeff-Com: -0.213D-02 0.100D+00 0.183D+00 0.719D+00
 Coeff:     -0.213D-02 0.100D+00 0.183D+00 0.719D+00
 Gap=     0.320 Goal=   None    Shift=    0.000
 RMSDP=3.01D-08 MaxDP=3.32D-07 DE=-3.21D-10 OVMax= 6.50D-07

 Cycle  11  Pass 1  IDiag  1:
 E= -238.842307871793     Delta-E=       -0.000000000009 Rises=F Damp=F
 DIIS: error= 4.88D-08 at cycle   5 NSaved=   5.
 NSaved= 5 IEnMin= 5 EnMin= -238.842307871793     IErMin= 5 ErrMin= 4.88D-08
 ErrMax= 4.88D-08  0.00D+00 EMaxC= 1.00D-01 BMatC= 1.84D-13 BMatP= 8.89D-12
 IDIUse=1 WtCom= 1.00D+00 WtEn= 0.00D+00
 Coeff-Com: -0.171D-02 0.395D-01 0.753D-01 0.308D+00 0.579D+00
 Coeff:     -0.171D-02 0.395D-01 0.753D-01 0.308D+00 0.579D+00
 Gap=     0.320 Goal=   None    Shift=    0.000
 RMSDP=5.78D-09 MaxDP=1.59D-07 DE=-8.98D-12 OVMax= 1.27D-07

 SCF Done:  E(RTPSS-TPSS) =  -238.842307872     A.U. after   11 cycles
            NFock= 11  Conv=0.58D-08     -V/T= 2.0068
 KE= 2.372297286608D+02 PE=-7.213721593767D+02 EE= 1.678886671907D+02
 Leave Link  502 at Mon Mar 21 20:12:46 2022, MaxMem=  8589934592 cpu:               6.6 elap:               0.8
 (Enter /home/sabyasachi/g16/l801.exe)
 DoSCS=F DFT=T ScalE2(SS,OS)=  1.000000  1.000000
 ExpMin= 6.71D-02 ExpMax= 2.89D+03 ExpMxC= 4.35D+02 IAcc=3 IRadAn=         5 AccDes= 0.00D+00
 HarFok:  IExCor=  205 AccDes= 0.00D+00 IRadAn=         5 IDoV=-2 UseB2=F ITyADJ=14
 ICtDFT= 12500011 ScaDFX=  1.000000  1.000000  1.000000  1.000000
 Largest valence mixing into a core orbital is  8.66D-05
 Largest core mixing into a valence orbital is  3.25D-05
 Range of M.O.s used for correlation:     4    82
 NBasis=    82 NAE=    13 NBE=    13 NFC=     3 NFV=     0
 NROrb=     79 NOA=    10 NOB=    10 NVA=    69 NVB=    69

 **** Warning!!: The largest alpha MO coefficient is  0.17022553D+02

 Leave Link  801 at Mon Mar 21 20:12:46 2022, MaxMem=  8589934592 cpu:               0.4 elap:               0.1
 (Enter /home/sabyasachi/g16/l914.exe)
 RHF ground state
 Keep J ints in memory in symmetry-blocked form, NReq=462844562.
 FoFCou: FMM=F IPFlag=           0 FMFlag=           0 FMFlg1=           0
         NFxFlg=           0 DoJE=F BraDBF=F KetDBF=F FulRan=T
         wScrn=  0.000000 ICntrl=       600 IOpCl=  0 I1Cent=           0 NGrid=           0
         NMat0=    1 NMatS0=   3403 NMatT0=    0 NMatD0=    1 NMtDS0=    0 NMtDT0=    0
 Petite list used in FoFCou.
 MDV=  8589934592 DFT=T DoStab=F Mixed=F DoRPA=T DoScal=T NonHer=F
 Making orbital integer symmetry assigments:
 Orbital symmetries:
       Occupied  (A1) (B2) (A1) (A1) (B2) (A1) (B1) (A1) (B2) (A2)
                 (A1) (B2) (B1)
       Virtual   (A1) (B2) (A1) (B1) (A1) (B2) (A1) (A2) (B1) (B2)
                 (A1) (A1) (A2) (B1) (B2) (A1) (B1) (B1) (A1) (B2)
                 (A1) (B2) (A2) (A1) (B1) (A1) (B2) (A1) (B1) (A2)
                 (A1) (B2) (A2) (B2) (A1) (B2) (B1) (A1) (B1) (A1)
                 (A2) (A1) (B1) (B2) (A2) (B2) (A1) (B1) (A1) (B2)
                 (B1) (A1) (B2) (A1) (B2) (A2) (A1) (A1) (B1) (B2)
                 (A2) (B2) (B1) (A1) (B1) (A2) (A1) (A1) (B2)
   690 initial guesses have been made.
 Convergence on wavefunction:    0.001000000000000
 Davidson Disk Diagonalization:  ConvIn= 1.00D-03 SkipCon=T Conv= 1.00D-03.
 Max sub-space:  2760 roots to seek:  1380 dimension of matrix:         1380
 *** WARNING: Number of orthogonal guesses is          690
 Iteration     1 Dimension   690 NMult     0 NNew    690
 CISAX will form   690 AO SS matrices at one time.
 NMat=   690 NSing=   690 JSym2X=-1.
 New state      6 was old state      7
 New state      7 was old state      6
 New state      9 was old state     10
 New state     10 was old state     12
 New state     11 was old state     13
 New state     12 was old state     11
 New state     13 was old state      9
 New state     23 was old state     24
 New state     24 was old state     25
 New state     25 was old state     23
 New state     27 was old state     28
 New state     28 was old state     27
 New state     30 was old state     31
 New state     31 was old state     30
 New state     33 was old state     35
 New state     34 was old state     37
 New state     35 was old state     33
 New state     37 was old state     34
 New state     43 was old state     46
 New state     45 was old state     43
 New state     46 was old state     48
 New state     48 was old state     45
 New state     50 was old state     51
 New state     51 was old state     53
 New state     52 was old state     50
 New state     53 was old state     52
 New state     54 was old state     56
 New state     56 was old state     54
 New state     57 was old state     58
 New state     58 was old state     57
 New state     59 was old state     61
 New state     60 was old state     59
 New state     61 was old state     60
 New state     64 was old state     65
 New state     65 was old state     64
 New state     70 was old state     72
 New state     72 was old state     73
 New state     73 was old state     74
 New state     74 was old state     78
 New state     75 was old state     76
 New state     76 was old state     77
 New state     77 was old state     79
 New state     78 was old state     75
 New state     79 was old state     81
 New state     81 was old state     83
 New state     83 was old state     70
 New state     88 was old state     89
 New state     89 was old state     88
 New state     90 was old state     92
 New state     91 was old state     93
 New state     92 was old state     90
 New state     93 was old state     91
 New state     94 was old state     96
 New state     95 was old state     97
 New state     96 was old state     98
 New state     97 was old state     95
 New state     98 was old state     99
 New state     99 was old state     94
 New state    100 was old state    101
 New state    101 was old state    102
 New state    102 was old state    103
 New state    103 was old state    100
 New state    104 was old state    107
 New state    105 was old state    106
 New state    106 was old state    104
 New state    107 was old state    110
 New state    108 was old state    109
 New state    109 was old state    105
 New state    110 was old state    111
 New state    111 was old state    113
 New state    113 was old state    114
 New state    114 was old state    108
 New state    117 was old state    119
 New state    118 was old state    117
 New state    119 was old state    118
 New state    121 was old state    122
 New state    122 was old state    121
 New state    123 was old state    124
 New state    124 was old state    123
 New state    126 was old state    127
 New state    127 was old state    126
 New state    129 was old state    130
 New state    130 was old state    129
 New state    131 was old state    132
 New state    132 was old state    133
 New state    133 was old state    134
 New state    134 was old state    131
 New state    136 was old state    139
 New state    137 was old state    141
 New state    138 was old state    144
 New state    139 was old state    142
 New state    140 was old state    137
 New state    141 was old state    143
 New state    142 was old state    138
 New state    143 was old state    147
 New state    144 was old state    140
 New state    145 was old state    146
 New state    146 was old state    136
 New state    147 was old state    145
 New state    148 was old state    149
 New state    149 was old state    150
 New state    150 was old state    148
 New state    153 was old state    155
 New state    154 was old state    157
 New state    155 was old state    158
 New state    156 was old state    154
 New state    157 was old state    159
 New state    158 was old state    160
 New state    159 was old state    161
 New state    160 was old state    162
 New state    161 was old state    153
 New state    162 was old state    163
 New state    163 was old state    165
 New state    165 was old state    166
 New state    166 was old state    167
 New state    167 was old state    169
 New state    168 was old state    171
 New state    169 was old state    172
 New state    170 was old state    173
 New state    171 was old state    181
 New state    172 was old state    175
 New state    173 was old state    174
 New state    174 was old state    176
 New state    175 was old state    177
 New state    176 was old state    170
 New state    177 was old state    178
 New state    178 was old state    168
 New state    181 was old state    182
 New state    182 was old state    184
 New state    184 was old state    188
 New state    186 was old state    189
 New state    187 was old state    186
 New state    188 was old state    190
 New state    189 was old state    187
 New state    190 was old state    196
 New state    193 was old state    195
 New state    195 was old state    197
 New state    196 was old state    198
 New state    197 was old state    193
 New state    198 was old state    199
 New state    199 was old state    200
 New state    200 was old state    201
 New state    201 was old state    204
 New state    204 was old state    205
 No map to state    205
 New state    206 was old state    207
 New state    207 was old state    208
 New state    208 was old state    210
 New state    209 was old state    206
 New state    210 was old state    209
 New state    214 was old state    215
 New state    215 was old state    216
 New state    216 was old state    214
 New state    217 was old state    221
 New state    219 was old state    217
 New state    221 was old state    219
 New state    223 was old state    225
 New state    225 was old state    230
 New state    226 was old state    223
 New state    228 was old state    229
 New state    229 was old state    228
 New state    230 was old state    232
 New state    232 was old state    233
 New state    233 was old state    235
 New state    234 was old state    236
 New state    235 was old state    234
 New state    236 was old state    238
 New state    237 was old state    240
 New state    238 was old state    239
 New state    239 was old state    237
 New state    240 was old state    242
 New state    242 was old state    245
 New state    243 was old state    244
 New state    244 was old state    246
 New state    245 was old state    248
 New state    246 was old state    243
 New state    248 was old state    249
 New state    249 was old state    253
 New state    253 was old state    257
 New state    256 was old state    258
 New state    257 was old state    256
 New state    258 was old state    259
 New state    259 was old state    263
 New state    262 was old state    265
 New state    263 was old state    270
 New state    264 was old state    266
 New state    265 was old state    268
 New state    266 was old state    264
 New state    267 was old state    275
 New state    268 was old state    267
 New state    269 was old state    273
 New state    270 was old state    271
 New state    271 was old state    272
 New state    272 was old state    274
 New state    273 was old state    278
 New state    274 was old state    276
 New state    275 was old state    277
 New state    276 was old state    262
 New state    277 was old state    269
 New state    278 was old state    280
 New state    279 was old state    286
 New state    280 was old state    283
 New state    281 was old state    282
 New state    282 was old state    279
 New state    283 was old state    285
 New state    284 was old state    281
 New state    285 was old state    287
 New state    286 was old state    284
 New state    287 was old state    289
 New state    288 was old state    291
 New state    289 was old state    288
 New state    291 was old state    292
 New state    292 was old state    303
 New state    293 was old state    294
 New state    294 was old state    296
 New state    295 was old state    297
 New state    296 was old state    293
 New state    297 was old state    295
 New state    298 was old state    299
 New state    299 was old state    300
 New state    300 was old state    302
 New state    301 was old state    298
 New state    302 was old state    301
 New state    303 was old state    306
 New state    305 was old state    307
 New state    306 was old state    310
 New state    307 was old state    308
 New state    308 was old state    305
 New state    310 was old state    312
 New state    312 was old state    314
 New state    313 was old state    316
 New state    314 was old state    313
 New state    316 was old state    317
 New state    317 was old state    323
 New state    319 was old state    320
 New state    320 was old state    319
 New state    322 was old state    324
 New state    323 was old state    325
 New state    324 was old state    327
 New state    325 was old state    330
 New state    327 was old state    322
 New state    330 was old state    333
 New state    332 was old state    336
 New state    333 was old state    332
 New state    334 was old state    338
 New state    336 was old state    334
 New state    337 was old state    341
 New state    338 was old state    340
 New state    340 was old state    337
 New state    341 was old state    342
 New state    342 was old state    344
 New state    343 was old state    345
 New state    344 was old state    343
 New state    345 was old state    346
 New state    346 was old state    348
 New state    347 was old state    349
 New state    348 was old state    347
 New state    349 was old state    350
 New state    350 was old state    352
 New state    351 was old state    353
 New state    352 was old state    355
 New state    353 was old state    351
 New state    355 was old state    356
 New state    356 was old state    357
 New state    357 was old state    358
 New state    358 was old state    368
 New state    360 was old state    361
 New state    361 was old state    360
 New state    368 was old state    369
 New state    369 was old state    371
 New state    371 was old state    374
 No map to state    374
 New state    375 was old state    376
 New state    376 was old state    375
 New state    379 was old state    380
 New state    380 was old state    379
 New state    382 was old state    383
 New state    383 was old state    384
 New state    384 was old state    385
 New state    385 was old state    388
 New state    387 was old state    382
 New state    388 was old state    387
 New state    390 was old state    393
 New state    393 was old state    390
 New state    398 was old state    401
 New state    400 was old state    402
 New state    401 was old state    400
 New state    402 was old state    403
 New state    403 was old state    405
 New state    404 was old state    398
 New state    405 was old state    406
 New state    406 was old state    407
 New state    407 was old state    409
 New state    409 was old state    414
 New state    410 was old state    411
 New state    411 was old state    412
 New state    412 was old state    410
 New state    414 was old state    416
 New state    416 was old state    420
 New state    417 was old state    418
 New state    418 was old state    419
 New state    419 was old state    421
 New state    420 was old state    422
 New state    421 was old state    424
 New state    422 was old state    423
 New state    423 was old state    425
 New state    424 was old state    426
 New state    425 was old state    430
 New state    426 was old state    428
 New state    428 was old state    432
 New state    430 was old state    431
 New state    431 was old state    433
 New state    432 was old state    442
 New state    433 was old state    435
 New state    434 was old state    417
 New state    435 was old state    434
 New state    438 was old state    439
 New state    439 was old state    440
 New state    440 was old state    438
 New state    442 was old state    443
 New state    443 was old state    447
 New state    445 was old state    446
 New state    446 was old state    445
 New state    447 was old state    452
 New state    449 was old state    450
 New state    450 was old state    451
 New state    451 was old state    454
 New state    452 was old state    453
 New state    453 was old state    455
 New state    454 was old state    449
 New state    455 was old state    459
 New state    459 was old state    461
 New state    461 was old state    462
 New state    462 was old state    466
 New state    463 was old state    464
 New state    464 was old state    465
 New state    465 was old state    463
 New state    466 was old state    468
 New state    467 was old state    473
 New state    468 was old state    469
 New state    469 was old state    470
 New state    470 was old state    471
 New state    471 was old state    472
 New state    472 was old state    474
 New state    473 was old state    475
 New state    474 was old state    476
 New state    475 was old state    480
 New state    476 was old state    479
 New state    479 was old state    481
 New state    480 was old state    482
 New state    481 was old state    483
 New state    482 was old state    484
 New state    483 was old state    487
 New state    484 was old state    489
 New state    486 was old state    490
 New state    487 was old state    488
 New state    488 was old state    486
 New state    489 was old state    491
 New state    490 was old state    492
 New state    491 was old state    497
 New state    492 was old state    496
 New state    493 was old state    495
 New state    494 was old state    493
 New state    495 was old state    494
 New state    496 was old state    505
 New state    497 was old state    503
 New state    503 was old state    504
 New state    504 was old state    506
 New state    505 was old state    507
 New state    506 was old state    520
 New state    507 was old state    508
 New state    508 was old state    511
 New state    509 was old state    512
 New state    510 was old state    513
 New state    511 was old state    514
 New state    512 was old state    510
 New state    513 was old state    509
 New state    514 was old state    538
 New state    516 was old state    518
 New state    517 was old state    516
 New state    518 was old state    517
 New state    520 was old state    521
 New state    521 was old state    524
 New state    523 was old state    527
 New state    524 was old state    526
 New state    526 was old state    528
 New state    527 was old state    523
 New state    528 was old state    530
 New state    530 was old state    531
 New state    531 was old state    532
 New state    532 was old state    536
 New state    536 was old state    540
 New state    538 was old state    539
 New state    539 was old state    541
 New state    540 was old state    542
 New state    541 was old state    545
 New state    542 was old state    544
 New state    544 was old state    548
 New state    545 was old state    546
 New state    546 was old state    547
 New state    547 was old state    573
 New state    548 was old state    571
 New state    554 was old state    557
 New state    557 was old state    554
 New state    559 was old state    560
 New state    560 was old state    559
 New state    562 was old state    563
 New state    563 was old state    562
 New state    565 was old state    566
 New state    566 was old state    565
 New state    567 was old state    572
 New state    568 was old state    567
 New state    569 was old state    570
 New state    570 was old state    568
 New state    571 was old state    569
 New state    572 was old state    574
 New state    573 was old state    575
 New state    574 was old state    576
 New state    575 was old state    577
 New state    576 was old state    578
 New state    577 was old state    583
 New state    578 was old state    581
 New state    579 was old state    582
 New state    581 was old state    579
 No map to state    582
 New state    583 was old state    584
 No map to state    584
 New state    588 was old state    589
 New state    589 was old state    588
 New state    590 was old state    594
 New state    591 was old state    590
 New state    594 was old state    591
 New state    595 was old state    598
 New state    596 was old state    600
 New state    597 was old state    596
 New state    598 was old state    599
 New state    599 was old state    604
 New state    600 was old state    601
 New state    601 was old state    597
 New state    602 was old state    603
 New state    603 was old state    602
 New state    604 was old state    608
 New state    605 was old state    612
 New state    606 was old state    611
 New state    607 was old state    609
 New state    608 was old state    613
 New state    609 was old state    610
 New state    610 was old state    615
 New state    611 was old state    626
 New state    612 was old state    614
 New state    613 was old state    616
 New state    614 was old state    618
 New state    615 was old state    620
 New state    616 was old state    619
 New state    617 was old state    621
 New state    618 was old state    623
 New state    619 was old state    624
 New state    620 was old state    622
 New state    621 was old state    617
 New state    622 was old state    625
 New state    623 was old state    627
 New state    624 was old state    628
 New state    625 was old state    632
 New state    626 was old state    631
 New state    627 was old state    630
 New state    628 was old state    634
 New state    630 was old state    633
 New state    631 was old state    644
 New state    632 was old state    636
 New state    633 was old state    637
 New state    634 was old state    649
 New state    635 was old state    640
 New state    636 was old state    639
 New state    637 was old state    635
 New state    638 was old state    645
 New state    639 was old state    646
 New state    640 was old state    641
 New state    641 was old state    642
 New state    642 was old state    643
 New state    643 was old state    638
 New state    644 was old state    663
 New state    645 was old state    647
 New state    646 was old state    657
 New state    647 was old state    650
 New state    648 was old state    652
 New state    649 was old state    651
 New state    650 was old state    648
 New state    651 was old state    656
 New state    652 was old state    655
 New state    653 was old state    654
 New state    654 was old state    662
 New state    655 was old state    659
 New state    656 was old state    658
 New state    657 was old state    653
 New state    658 was old state    660
 New state    659 was old state    669
 New state    660 was old state    665
 New state    661 was old state    664
 New state    662 was old state    661
 No map to state    663
 New state    664 was old state    667
 New state    665 was old state    668
 No map to state    666
 New state    667 was old state    666
 New state    668 was old state    672
 New state    669 was old state    670
 New state    670 was old state    681
 New state    672 was old state    674
 New state    674 was old state    675
 No map to state    675
 No map to state    681
 Excitation Energies [eV] at current iteration:
 Root      1 :     8.717436244520105
 Root      2 :     9.654685235779045
 Root      3 :    10.055496913528210
 Root      4 :    10.111902006668870
 Root      5 :    10.228109080512090
 Root      6 :    10.570062054207240
 Root      7 :    10.588545833644990
 Root      8 :    11.152017652443940
 Root      9 :    11.486894684171030
 Root     10 :    11.500431704625610
 Root     11 :    11.512609113993700
 Root     12 :    11.585281064007080
 Root     13 :    11.818096244954410
 Root     14 :    11.884271119253190
 Root     15 :    11.908523236278040
 Root     16 :    11.920587376951370
 Root     17 :    12.008027902755270
 Root     18 :    12.094356943455460
 Root     19 :    12.449703207293560
 Root     20 :    12.502893756524730
 Root     21 :    12.751216928036950
 Root     22 :    12.869348434901890
 Root     23 :    13.227688262106300
 Root     24 :    13.290222756100740
 Root     25 :    13.291355739817250
 Root     26 :    13.444832811444930
 Root     27 :    13.790494482111460
 Root     28 :    13.791536857825190
 Root     29 :    13.810860479891180
 Root     30 :    13.937792122789570
 Root     31 :    13.971308584056980
 Root     32 :    14.019851818533280
 Root     33 :    14.181540730030580
 Root     34 :    14.187195342332980
 Root     35 :    14.201965517866670
 Root     36 :    14.224041861773600
 Root     37 :    14.226995645772440
 Root     38 :    14.252545278224760
 Root     39 :    14.286710668541260
 Root     40 :    14.497428159206800
 Root     41 :    14.591254564456150
 Root     42 :    14.735291245301920
 Root     43 :    15.013580845236150
 Root     44 :    15.025528825829710
 Root     45 :    15.109279075746810
 Root     46 :    15.109475057024510
 Root     47 :    15.120832560989690
 Root     48 :    15.136273941347310
 Root     49 :    15.369421626392630
 Root     50 :    15.420233595817690
 Root     51 :    15.505264735069340
 Root     52 :    15.565351162461900
 Root     53 :    15.680974402614410
 Root     54 :    15.882374342781130
 Root     55 :    15.905830204302990
 Root     56 :    15.993544556121710
 Root     57 :    16.118164349613290
 Root     58 :    16.127207942659780
 Root     59 :    16.306685085119570
 Root     60 :    16.307724982301050
 Root     61 :    16.406279410452860
 Root     62 :    16.439727554842700
 Root     63 :    16.755933395830870
 Root     64 :    16.791886177429150
 Root     65 :    16.928177983730680
 Root     66 :    16.938236140012550
 Root     67 :    17.135556399250440
 Root     68 :    17.289165416061030
 Root     69 :    17.399809379825560
 Root     70 :    17.541345062337820
 Root     71 :    17.554437535887460
 Root     72 :    17.605932089247290
 Root     73 :    17.644063940941720
 Root     74 :    17.661535039850750
 Root     75 :    17.696995466831510
 Root     76 :    17.721122369002720
 Root     77 :    17.745435420347790
 Root     78 :    17.768280229524400
 Root     79 :    17.776150172006360
 Root     80 :    17.801899751081930
 Root     81 :    17.805594758186870
 Root     82 :    17.830777753125730
 Root     83 :    17.892778653447020
 Root     84 :    17.899822607045530
 Root     85 :    17.904829168423970
 Root     86 :    18.034504906215410
 Root     87 :    18.041289608873530
 Root     88 :    18.080035817148470
 Root     89 :    18.224631288770980
 Root     90 :    18.245585321008970
 Root     91 :    18.281193643970210
 Root     92 :    18.328910160484280
 Root     93 :    18.334945339825850
 Root     94 :    18.676741580253330
 Root     95 :    18.697650790009850
 Root     96 :    18.730249634308370
 Root     97 :    18.769605838272130
 Root     98 :    18.843918567149070
 Root     99 :    18.926530387492130
 Root    100 :    19.091515797608650
 Root    101 :    19.197758456833310
 Root    102 :    19.213831964486310
 Root    103 :    19.294826242502660
 Root    104 :    19.469879653616500
 Root    105 :    19.559744437720620
 Root    106 :    19.563177412645770
 Root    107 :    19.680903732199260
 Root    108 :    19.843469163693530
 Root    109 :    19.935417936668560
 Root    110 :    20.093956992779320
 Root    111 :    20.220828099570480
 Root    112 :    20.272484436049030
 Root    113 :    20.283948543326870
 Root    114 :    20.397894852729890
 Root    115 :    20.437441810927150
 Root    116 :    20.523624542060700
 Root    117 :    20.709317500702720
 Root    118 :    20.709875271934830
 Root    119 :    20.741233438723590
 Root    120 :    20.750881053306460
 Root    121 :    20.861327349414550
 Root    122 :    21.033707016112460
 Root    123 :    21.109266969321360
 Root    124 :    21.111883587593160
 Root    125 :    21.134311375566640
 Root    126 :    21.236017230740710
 Root    127 :    21.254093863003150
 Root    128 :    21.327169748323250
 Root    129 :    21.340113821275240
 Root    130 :    21.352632200587320
 Root    131 :    21.464459337498500
 Root    132 :    21.510400033538160
 Root    133 :    21.567426215491870
 Root    134 :    21.593222456734950
 Root    135 :    21.676837753560130
 Root    136 :    21.706360971826190
 Root    137 :    21.735020534452200
 Root    138 :    21.766011684832530
 Root    139 :    21.795370493776980
 Root    140 :    21.841359298281610
 Root    141 :    21.865163592180860
 Root    142 :    21.867146240478180
 Root    143 :    21.941637859349750
 Root    144 :    22.003194413966930
 Root    145 :    22.038807850093210
 Root    146 :    22.217667923924240
 Root    147 :    22.357623806035880
 Root    148 :    22.587247031568560
 Root    149 :    22.772262390972440
 Root    150 :    22.997602042554750
 Root    151 :    23.168231601606030
 Root    152 :    23.193755440419660
 Root    153 :    23.571984329227100
 Root    154 :    23.695183015540120
 Root    155 :    23.861372650978950
 Root    156 :    23.905913779066600
 Root    157 :    24.023711323184990
 Root    158 :    24.045066584812880
 Root    159 :    24.047174747635050
 Root    160 :    24.137895746346620
 Root    161 :    24.198915726304230
 Root    162 :    24.282020042886620
 Root    163 :    24.312033797102900
 Root    164 :    24.409775916713090
 Root    165 :    24.428773110806340
 Root    166 :    24.617512217727220
 Root    167 :    24.695681852920590
 Root    168 :    24.730012940969050
 Root    169 :    24.882715706150420
 Root    170 :    24.910507917971870
 Root    171 :    24.920892274323190
 Root    172 :    24.936414219749520
 Root    173 :    25.050217231552130
 Root    174 :    25.111499681276100
 Root    175 :    25.280360192033260
 Root    176 :    25.451039561701360
 Root    177 :    25.452487991478700
 Root    178 :    25.642460628724920
 Root    179 :    25.662887500394460
 Root    180 :    25.923836630605630
 Root    181 :    26.054725761484840
 Root    182 :    26.330566829598500
 Root    183 :    26.419788758988280
 Root    184 :    26.549065949645110
 Root    185 :    26.608938202300600
 Root    186 :    26.705876842099750
 Root    187 :    26.728088554549320
 Root    188 :    26.804604106392430
 Root    189 :    26.862764639957370
 Root    190 :    27.022819585751720
 Root    191 :    27.129810378413600
 Root    192 :    27.168464583544200
 Root    193 :    27.229862964896700
 Root    194 :    27.339814159649660
 Root    195 :    27.387757686563160
 Root    196 :    27.490356264008750
 Root    197 :    27.523774703552820
 Root    198 :    27.658098765373970
 Root    199 :    27.742191514597200
 Root    200 :    27.787275680340450
 Root    201 :    28.096993803435120
 Root    202 :    28.129471965820390
 Root    203 :    28.139857714790230
 Root    204 :    28.214405609067830
 Root    205 :    28.267164479383120
 Root    206 :    28.495455876673270
 Root    207 :    28.627155262486210
 Root    208 :    28.815877486470660
 Root    209 :    28.843135947594220
 Root    210 :    29.054790063067020
 Root    211 :    29.175855933944700
 Root    212 :    29.204522651969860
 Root    213 :    29.450882862293410
 Root    214 :    29.461548098055680
 Root    215 :    29.488408410596090
 Root    216 :    29.654332351296040
 Root    217 :    29.756747807209900
 Root    218 :    29.879588813554300
 Root    219 :    29.886983314215310
 Root    220 :    29.973008709538250
 Root    221 :    30.010652527205910
 Root    222 :    30.068247783537920
 Root    223 :    30.220835356338940
 Root    224 :    30.242065985515620
 Root    225 :    30.351578529662860
 Root    226 :    30.371513928565250
 Root    227 :    30.422410478080420
 Root    228 :    30.475685646268470
 Root    229 :    30.514327972781150
 Root    230 :    30.578980844869240
 Root    231 :    30.691330761775930
 Root    232 :    30.814238740613230
 Root    233 :    30.892220377050650
 Root    234 :    30.911494242445710
 Root    235 :    30.956162121307340
 Root    236 :    31.143613540589610
 Root    237 :    31.213074172443850
 Root    238 :    31.233207931472530
 Root    239 :    31.284108414266820
 Root    240 :    31.433682554354380
 Root    241 :    31.480789454375010
 Root    242 :    31.605854157255740
 Root    243 :    31.737321591230970
 Root    244 :    31.784997395546030
 Root    245 :    32.056848517822430
 Root    246 :    32.076941406955060
 Root    247 :    32.235157617156720
 Root    248 :    32.255434436203270
 Root    249 :    32.351226391979960
 Root    250 :    32.504785070148100
 Root    251 :    32.715115551831680
 Root    252 :    32.866603929126930
 Root    253 :    33.101516714067270
 Root    254 :    33.337278978468460
 Root    255 :    33.433336048591290
 Root    256 :    33.443882678931650
 Root    257 :    33.526526496601750
 Root    258 :    33.574342722207690
 Root    259 :    33.696890352560870
 Root    260 :    33.724708993117470
 Root    261 :    33.740853357460490
 Root    262 :    33.821893754159120
 Root    263 :    33.874839393174620
 Root    264 :    33.923696674180020
 Root    265 :    33.968565431636460
 Root    266 :    34.007310359290900
 Root    267 :    34.099240036775600
 Root    268 :    34.183531224955710
 Root    269 :    34.193472354521520
 Root    270 :    34.226793196128520
 Root    271 :    34.261943305429590
 Root    272 :    34.323755829339370
 Root    273 :    34.336276883700780
 Root    274 :    34.377078014362470
 Root    275 :    34.453224931466540
 Root    276 :    34.588915677475090
 Root    277 :    34.649166782403790
 Root    278 :    34.726966824912540
 Root    279 :    34.773414017708420
 Root    280 :    34.775367940157520
 Root    281 :    34.868230122257340
 Root    282 :    34.913665483058170
 Root    283 :    34.924060408095410
 Root    284 :    35.053070650890940
 Root    285 :    35.084261293491930
 Root    286 :    35.116830168770320
 Root    287 :    35.422178577784530
 Root    288 :    35.633511739460620
 Root    289 :    35.683088121905040
 Root    290 :    35.795775992371730
 Root    291 :    35.861145202205020
 Root    292 :    35.861167127795030
 Root    293 :    35.989969034851970
 Root    294 :    35.990713065780890
 Root    295 :    35.991639173379910
 Root    296 :    36.046258232031310
 Root    297 :    36.064720753686550
 Root    298 :    36.109338818425450
 Root    299 :    36.159930090509440
 Root    300 :    36.275344114468500
 Root    301 :    36.494795077567900
 Root    302 :    36.525860000398250
 Root    303 :    36.766388212959190
 Root    304 :    36.794823599050150
 Root    305 :    36.876589314705730
 Root    306 :    37.138995625284750
 Root    307 :    37.502915653034140
 Root    308 :    37.554659822285730
 Root    309 :    37.666325762964740
 Root    310 :    37.819781241251000
 Root    311 :    37.838232385988090
 Root    312 :    37.854701364894320
 Root    313 :    37.915428616502190
 Root    314 :    37.992158337621940
 Root    315 :    38.025648647659620
 Root    316 :    38.153742699130670
 Root    317 :    38.154579102636060
 Root    318 :    38.196534554513230
 Root    319 :    38.352359139385530
 Root    320 :    38.371591935088030
 Root    321 :    38.415026452953810
 Root    322 :    38.549416704709130
 Root    323 :    38.615637390841410
 Root    324 :    38.710942813284550
 Root    325 :    38.866407195725240
 Root    326 :    38.915148166356730
 Root    327 :    38.922743951204420
 Root    328 :    39.245752750998240
 Root    329 :    39.410275305713310
 Root    330 :    39.488182681409940
 Root    331 :    39.497534676294460
 Root    332 :    39.581956407500700
 Root    333 :    39.598996591838000
 Root    334 :    39.643048617031750
 Root    335 :    39.684999463916690
 Root    336 :    39.756126033677080
 Root    337 :    39.895766207395040
 Root    338 :    39.945811266068070
 Root    339 :    39.997849940114140
 Root    340 :    40.090453032395420
 Root    341 :    40.701701324200070
 Root    342 :    40.895614972796890
 Root    343 :    41.014690918041160
 Root    344 :    41.051348068427910
 Root    345 :    41.517902700846120
 Root    346 :    41.551403285943390
 Root    347 :    41.685507022290830
 Root    348 :    41.724831321543530
 Root    349 :    41.955395052806200
 Root    350 :    42.082443796756670
 Root    351 :    42.108932493830790
 Root    352 :    42.184227859650720
 Root    353 :    42.195131423586520
 Root    354 :    42.295742700456300
 Root    355 :    42.456011297165420
 Root    356 :    42.946725419415120
 Root    357 :    43.046274837140000
 Root    358 :    43.229324537057420
 Root    359 :    43.272711702145170
 Root    360 :    43.662073132838920
 Root    361 :    43.680856844860640
 Root    362 :    43.885076266811950
 Root    363 :    43.945208046921320
 Root    364 :    44.070172943764260
 Root    365 :    45.423325662741630
 Root    366 :    45.637539754445650
 Root    367 :    46.023329422807500
 Root    368 :    46.660192507964000
 Root    369 :    46.696344753136220
 Root    370 :    46.906810442660090
 Root    371 :    47.687015570439950
 Root    372 :    48.242590632357170
 Root    373 :    48.264576468077310
 Root    374 :    48.679408517283280
 Root    375 :    48.717581663290760
 Root    376 :    48.801693211242140
 Root    377 :    49.103251036412960
 Root    378 :    49.485745861900330
 Root    379 :    49.803720058398920
 Root    380 :    49.921669490613930
 Root    381 :    50.151841048646550
 Root    382 :    50.161376546537230
 Root    383 :    50.311140911992630
 Root    384 :    50.430556174908020
 Root    385 :    50.546434055814990
 Root    386 :    50.563418222336570
 Root    387 :    50.741976541146310
 Root    388 :    50.990342155754210
 Root    389 :    51.081483458388900
 Root    390 :    51.417511570023960
 Root    391 :    51.457580304991130
 Root    392 :    51.478209358818130
 Root    393 :    51.552806483681760
 Root    394 :    51.709617038296570
 Root    395 :    52.097173979799440
 Root    396 :    52.108480830003220
 Root    397 :    52.671875811279620
 Root    398 :    52.874061833365720
 Root    399 :    53.006287542746700
 Root    400 :    53.037793295027190
 Root    401 :    53.053777238021250
 Root    402 :    53.130166801689850
 Root    403 :    53.288153871003670
 Root    404 :    53.352451756363020
 Root    405 :    53.750758076373110
 Root    406 :    53.769433158436120
 Root    407 :    53.925729083594240
 Root    408 :    54.151684926157060
 Root    409 :    54.236878172101830
 Root    410 :    54.320514393161360
 Root    411 :    54.353639117150860
 Root    412 :    54.375862369268280
 Root    413 :    54.397220482375720
 Root    414 :    54.673671962911380
 Root    415 :    54.739909937485220
 Root    416 :    55.442680054424680
 Root    417 :    55.695947621662500
 Root    418 :    55.891618352803770
 Root    419 :    56.159622381658930
 Root    420 :    56.162709043292120
 Root    421 :    56.171851304947000
 Root    422 :    56.318556019723310
 Root    423 :    56.352505236231590
 Root    424 :    56.413664421826500
 Root    425 :    56.489939570299640
 Root    426 :    56.580805089172100
 Root    427 :    56.587401076137220
 Root    428 :    56.592147924116270
 Root    429 :    56.663954131825780
 Root    430 :    56.710029169360230
 Root    431 :    56.861587889140100
 Root    432 :    56.942954479963570
 Root    433 :    57.744945748212120
 Root    434 :    57.774801013044620
 Root    435 :    57.826189063242320
 Root    436 :    58.032831569749330
 Root    437 :    58.183725458107380
 Root    438 :    58.203720224340640
 Root    439 :    58.308932745652650
 Root    440 :    58.334395251805250
 Root    441 :    58.464878059029550
 Root    442 :    58.612891550809440
 Root    443 :    58.786487078774530
 Root    444 :    59.738170431797390
 Root    445 :    59.765722216262400
 Root    446 :    59.811248047294050
 Root    447 :    60.030373717881390
 Root    448 :    60.058554604250790
 Root    449 :    60.145675476646050
 Root    450 :    60.384690991803370
 Root    451 :    60.595422497398900
 Root    452 :    60.726983807846030
 Root    453 :    61.003347839097120
 Root    454 :    61.106434973173520
 Root    455 :    61.230148184404600
 Root    456 :    61.887261611670820
 Root    457 :    62.243254129244070
 Root    458 :    62.288689886706510
 Root    459 :    62.379087472072640
 Root    460 :    62.421965488926610
 Root    461 :    62.485146418328380
 Root    462 :    62.710472809834190
 Root    463 :    62.880246156455890
 Root    464 :    63.080974221022120
 Root    465 :    63.089122565724940
 Root    466 :    63.889529282381800
 Root    467 :    63.936096702232150
 Root    468 :    64.011024481035530
 Root    469 :    64.230429360046800
 Root    470 :    64.266667360843510
 Root    471 :    64.311968167671050
 Root    472 :    64.398141497387230
 Root    473 :    64.728037588602650
 Root    474 :    64.986523892150190
 Root    475 :    65.457188737323560
 Root    476 :    65.559264057654960
 Root    477 :    65.741607423752230
 Root    478 :    65.849502082361980
 Root    479 :    65.947583296739250
 Root    480 :    66.362156624958730
 Root    481 :    66.456274652616290
 Root    482 :    66.559803630847010
 Root    483 :    66.884374092281320
 Root    484 :    67.774560498072890
 Root    485 :    67.809075813688390
 Root    486 :    67.831265728018340
 Root    487 :    67.856477610077660
 Root    488 :    68.038697209373130
 Root    489 :    68.251356906026530
 Root    490 :    68.377898506930790
 Root    491 :    68.460290214634310
 Root    492 :    68.466885259520880
 Root    493 :    68.539755804252540
 Root    494 :    68.615090692338340
 Root    495 :    68.619686037846710
 Root    496 :    69.149083980834620
 Root    497 :    69.523979190704080
 Root    498 :    69.787446021029350
 Root    499 :    70.092629883258970
 Root    500 :    70.109037607086960
 Root    501 :    70.421354497652470
 Root    502 :    70.439880168943570
 Root    503 :    70.443439189634130
 Root    504 :    70.669365204247870
 Root    505 :    70.717008741331720
 Root    506 :    70.827350500452160
 Root    507 :    70.878724528993540
 Root    508 :    71.487425927823440
 Root    509 :    71.679408991701640
 Root    510 :    71.803044426687790
 Root    511 :    72.033469244146670
 Root    512 :    72.097741350262850
 Root    513 :    72.114416954727760
 Root    514 :    72.405008105710180
 Root    515 :    72.511420092406370
 Root    516 :    72.535705758446800
 Root    517 :    72.607121091858450
 Root    518 :    72.657515893506140
 Root    519 :    72.986780115906210
 Root    520 :    73.333005537360390
 Root    521 :    73.421458723467250
 Root    522 :    73.771062122417940
 Root    523 :    73.894793934045860
 Root    524 :    73.945712132462840
 Root    525 :    74.001796073501080
 Root    526 :    74.016218607710750
 Root    527 :    74.037379232186480
 Root    528 :    74.315621847178430
 Root    529 :    74.350621900772520
 Root    530 :    74.734214966445140
 Root    531 :    74.858598385195280
 Root    532 :    74.968698342690220
 Root    533 :    75.118683814106360
 Root    534 :    75.198774611681170
 Root    535 :    75.827163762908730
 Root    536 :    76.502143403312430
 Root    537 :    76.583886971700780
 Root    538 :    76.847988965420160
 Root    539 :    76.855140090735290
 Root    540 :    77.167500956849680
 Root    541 :    77.260092814143390
 Root    542 :    77.886994711877930
 Root    543 :    77.918483081053030
 Root    544 :    78.073490069353010
 Root    545 :    78.135913117148900
 Root    546 :    78.216063568591960
 Root    547 :    79.822315048107160
 Root    548 :    79.883510330574960
 Root    549 :    80.547497222123140
 Root    550 :    81.939795814474650
 Root    551 :    82.466071502855430
 Root    552 :    83.199081061862060
 Root    553 :    84.047272351143280
 Root    554 :    84.509177016577280
 Root    555 :    84.530573297179490
 Root    556 :    84.580459230199820
 Root    557 :    84.854027172534190
 Root    558 :    85.230893710278020
 Root    559 :    86.109406943768220
 Root    560 :    86.284165207330400
 Root    561 :    86.467651103280460
 Root    562 :    86.637996373817220
 Root    563 :    86.895518659572350
 Root    564 :    86.979005617095100
 Root    565 :    88.398407011779800
 Root    566 :    88.767652318645910
 Root    567 :    89.987198975789920
 Root    568 :    90.098966548810130
 Root    569 :    90.164215021002050
 Root    570 :    90.370206122385450
 Root    571 :    90.423268112282670
 Root    572 :    90.629136290559800
 Root    573 :    90.886714593223540
 Root    574 :    91.164908946068240
 Root    575 :    91.402577063650640
 Root    576 :    93.348763267589010
 Root    577 :    93.511298135339130
 Root    578 :    93.597536340335820
 Root    579 :    93.972275510956340
 Root    580 :    94.064674692010430
 Root    581 :    94.131917970845980
 Root    582 :    94.291477801855250
 Root    583 :    94.904797274288610
 Root    584 :    94.938791589769000
 Root    585 :    96.518028659426720
 Root    586 :    97.039560529701700
 Root    587 :    97.742938902095600
 Root    588 :    97.815542590698630
 Root    589 :    98.082346354581820
 Root    590 :    98.402252280397780
 Root    591 :    98.432541932039380
 Root    592 :    98.849644871144480
 Root    593 :    98.875521570981480
 Root    594 :    99.092120795946460
 Root    595 :    99.476587508400980
 Root    596 :    99.568482107548020
 Root    597 :    99.623397324191120
 Root    598 :    99.815659466875620
 Root    599 :   100.076642909341400
 Root    600 :   100.150549579351500
 Root    601 :   100.224794467630100
 Root    602 :   100.261587869298700
 Root    603 :   101.023650633506800
 Root    604 :   101.329938438436200
 Root    605 :   101.854277291181600
 Root    606 :   101.890562733665500
 Root    607 :   102.054217595742300
 Root    608 :   102.215905909250000
 Root    609 :   102.571639616488800
 Root    610 :   102.602729993510500
 Root    611 :   102.870733239847300
 Root    612 :   102.929079218147100
 Root    613 :   102.964341101145700
 Root    614 :   103.080504185493500
 Root    615 :   103.227248623448300
 Root    616 :   103.445127624325200
 Root    617 :   103.657462518752200
 Root    618 :   103.739183072125700
 Root    619 :   104.112859095382900
 Root    620 :   104.218983699533700
 Root    621 :   104.272480667460600
 Root    622 :   104.303476775192900
 Root    623 :   104.500462268962300
 Root    624 :   104.611437428206600
 Root    625 :   104.987893811790100
 Root    626 :   105.236245475336500
 Root    627 :   105.385855006037600
 Root    628 :   105.461157625185500
 Root    629 :   105.499868675682500
 Root    630 :   106.041961941116900
 Root    631 :   106.673900063348500
 Root    632 :   107.015186729271500
 Root    633 :   107.100579288936000
 Root    634 :   107.128105051249700
 Root    635 :   107.236590644430200
 Root    636 :   107.259265241529400
 Root    637 :   107.644967845887500
 Root    638 :   107.839531816075400
 Root    639 :   108.320261736987500
 Root    640 :   108.368750770613900
 Root    641 :   108.570944391297800
 Root    642 :   108.672242809921800
 Root    643 :   109.304122507038900
 Root    644 :   109.406031289990100
 Root    645 :   109.424943469131100
 Root    646 :   109.546669173433300
 Root    647 :   110.090990879645900
 Root    648 :   110.828598634697500
 Root    649 :   110.924845196623300
 Root    650 :   111.188479670125500
 Root    651 :   111.250647001052200
 Root    652 :   112.409267022522500
 Root    653 :   112.487490121425800
 Root    654 :   112.878874260341600
 Root    655 :   113.604804282798300
 Root    656 :   113.718944789346600
 Root    657 :   113.984226010280500
 Root    658 :   114.953917385295600
 Root    659 :   115.718110142693300
 Root    660 :   116.166368602914200
 Root    661 :   116.274441299021500
 Root    662 :   116.604115271130200
 Root    663 :   117.438337263950900
 Root    664 :   117.917240245732500
 Root    665 :   118.060147114577300
 Root    666 :   119.701710205664800
 Root    667 :   119.789813695177800
 Root    668 :   119.955686288223600
 Root    669 :   120.283864693976700
 Root    670 :   120.386695123779900
 Root    671 :   120.723339990257200
 Root    672 :   121.118375227702600
 Root    673 :   121.177004670729300
 Root    674 :   121.506478928374100
 Root    675 :   122.136416903495500
 Root    676 :   122.239509620488400
 Root    677 :   122.702275972378800
 Root    678 :   123.103629765906400
 Root    679 :   123.121716655743900
 Root    680 :   123.391909599881500
 Root    681 :   124.095921456654300
 Root    682 :   124.402708355021200
 Root    683 :   126.055215052240800
 Root    684 :   127.401780602338700
 Root    685 :   128.051644037326200
 Root    686 :   129.533926425153300
 Root    687 :   133.290389524134800
 Root    688 :   134.733202718568200
 Root    689 :   136.612701400880400
 Root    690 :   138.006488789214800
 Convergence achieved for final wavefunctions.
 ***********************************************************************
 Excited states from <AA,BB:AA,BB> singles matrix:
 ***********************************************************************
 
 1PDM for each excited state written to RWF  633
 Ground to excited state transition densities written to RWF  633
 Ground to excited state transition electric dipole moments (Au):
       state          X           Y           Z        Dip. S.      Osc.
         1        -0.3152      0.0000      0.0000      0.0993      0.0212
         2        -0.0000      0.0000      0.0000      0.0000      0.0000
         3         0.2987     -0.0000      0.0000      0.0892      0.0220
         4         0.0000      0.3688     -0.0000      0.1360      0.0337
         5        -0.0000     -0.0000     -0.4948      0.2448      0.0613
         6         0.0000      0.0000      0.0000      0.0000      0.0000
         7        -0.0000      0.0000     -0.1287      0.0166      0.0043
         8        -0.0000     -0.0000      0.2197      0.0483      0.0132
         9        -0.0000     -0.0111      0.0000      0.0001      0.0000
        10        -0.0818     -0.0000      0.0000      0.0067      0.0019
        11         0.0000     -0.0000      0.0000      0.0000      0.0000
        12         0.5173     -0.0000     -0.0000      0.2676      0.0760
        13         0.0000     -0.4862     -0.0000      0.2364      0.0684
        14         0.0000     -0.0000      0.6325      0.4000      0.1165
        15        -0.0000     -0.0000     -0.0000      0.0000      0.0000
        16        -0.3904      0.0000     -0.0000      0.1524      0.0445
        17         0.0000      0.4070     -0.0000      0.1656      0.0487
        18         0.0000     -0.0000      0.0000      0.0000      0.0000
        19         0.1985      0.0000     -0.0000      0.0394      0.0120
        20         0.0000      0.1949     -0.0000      0.0380      0.0116
        21        -0.0000     -0.0000      0.4052      0.1642      0.0513
        22        -0.0000     -0.0768      0.0000      0.0059      0.0019
        23         0.0000      0.0000      0.0000      0.0000      0.0000
        24        -0.0000      0.0000     -0.0000      0.0000      0.0000
        25        -0.0000     -0.0000      0.1920      0.0369      0.0120
        26        -0.0000      0.0000      0.1314      0.0173      0.0057
        27        -0.1883      0.0000      0.0000      0.0355      0.0120
        28         0.0000      0.4569      0.0000      0.2088      0.0705
        29        -0.0000      0.0000      0.0000      0.0000      0.0000
        30        -0.0739      0.0000      0.0000      0.0055      0.0019
        31         0.0000     -0.0130      0.0000      0.0002      0.0001
        32        -0.0000      0.0178     -0.0000      0.0003      0.0001
        33        -0.0682      0.0000     -0.0000      0.0047      0.0016
        34         0.0000      0.0000      0.0000      0.0000      0.0000
        35        -0.0000     -0.0000     -0.3287      0.1080      0.0376
        36         0.0000      0.0000     -0.0037      0.0000      0.0000
        37        -0.4112     -0.0000     -0.0000      0.1691      0.0589
        38        -0.4626      0.0000     -0.0000      0.2140      0.0747
        39         0.0000      0.0000     -0.0000      0.0000      0.0000
        40        -0.0000     -0.0000      0.0708      0.0050      0.0018
        41         0.0000      0.1171      0.0000      0.0137      0.0049
        42         0.0000     -0.0000      0.0599      0.0036      0.0013
        43        -0.0000     -0.1226     -0.0000      0.0150      0.0055
        44         0.4995      0.0000      0.0000      0.2495      0.0918
        45         0.0000      0.0000     -0.2747      0.0754      0.0279
        46         0.0533     -0.0000     -0.0000      0.0028      0.0011
        47         0.0000     -0.0000      0.0000      0.0000      0.0000
        48         0.0000     -0.6106     -0.0000      0.3728      0.1383
        49         0.0000      0.4375      0.0000      0.1914      0.0721
        50        -0.0000      0.0000     -0.0000      0.0000      0.0000
        51        -0.3760     -0.0000     -0.0000      0.1414      0.0537
        52         0.0000      0.0000      0.5566      0.3098      0.1181
        53        -0.3755     -0.0000      0.0000      0.1410      0.0542
        54         0.0000      0.5412      0.0000      0.2929      0.1140
        55        -0.0000     -0.0000     -0.0387      0.0015      0.0006
        56        -0.0000     -0.4090     -0.0000      0.1673      0.0655
        57        -0.0000      0.0000     -0.0000      0.0000      0.0000
        58        -0.0000     -0.0000      0.3639      0.1324      0.0523
        59         0.0000     -0.0000      0.0000      0.0000      0.0000
        60         0.0000     -0.0000      0.3009      0.0905      0.0362
        61         0.0000      0.4245      0.0000      0.1802      0.0724
        62         0.0789      0.0000      0.0000      0.0062      0.0025
        63        -0.0000     -0.0000      0.3058      0.0935      0.0384
        64        -0.0000      0.0000      0.0000      0.0000      0.0000
        65        -0.0000     -0.2915     -0.0000      0.0850      0.0352
        66        -0.0000      0.0000     -0.2777      0.0771      0.0320
        67         0.5135      0.0000     -0.0000      0.2637      0.1107
        68        -0.3085      0.0000      0.0000      0.0952      0.0403
        69         0.0000      0.0000     -0.0305      0.0009      0.0004
        70        -0.0000     -0.0000      0.0000      0.0000      0.0000
        71        -0.0000     -0.0327      0.0000      0.0011      0.0005
        72        -0.0000     -0.0000      0.0000      0.0000      0.0000
        73         0.0000     -0.0000      0.0000      0.0000      0.0000
        74         0.0000      0.0000     -0.1767      0.0312      0.0135
        75        -0.0601      0.0000      0.0000      0.0036      0.0016
        76         0.0000     -0.0000     -0.0000      0.0000      0.0000
        77        -0.0000     -0.0000     -0.1205      0.0145      0.0063
        78         0.0000      0.3713     -0.0000      0.1379      0.0600
        79        -0.0000     -0.0000      0.0000      0.0000      0.0000
        80         0.0000     -0.0000     -0.4021      0.1617      0.0705
        81         0.0000     -0.2559     -0.0000      0.0655      0.0286
        82         0.2418     -0.0000     -0.0000      0.0585      0.0255
        83        -0.0000     -0.0000     -0.1145      0.0131      0.0057
        84         0.2334      0.0000     -0.0000      0.0545      0.0239
        85        -0.0000      0.2967      0.0000      0.0880      0.0386
        86        -0.0000     -0.0000      0.3758      0.1413      0.0624
        87         0.1721      0.0000      0.0000      0.0296      0.0131
        88        -0.0000     -0.3798     -0.0000      0.1443      0.0639
        89        -0.0000      0.0000     -0.1285      0.0165      0.0074
        90        -0.3269     -0.0000     -0.0000      0.1069      0.0478
        91         0.0000      0.0000      0.0000      0.0000      0.0000
        92        -0.0000     -0.0846     -0.0000      0.0072      0.0032
        93         0.0000      0.0000      0.3216      0.1035      0.0465
        94        -0.0000      0.0000     -0.0000      0.0000      0.0000
        95         0.0000      0.0000      0.0000      0.0000      0.0000
        96        -0.0000      0.0000      0.4880      0.2382      0.1093
        97        -0.0000     -0.0129      0.0000      0.0002      0.0001
        98        -0.1190     -0.0000     -0.0000      0.0142      0.0065
        99        -0.0000      0.0000     -0.2272      0.0516      0.0239
       100         0.0569      0.0000      0.0000      0.0032      0.0015
       101         0.0000     -0.1126     -0.0000      0.0127      0.0060
       102         0.0000     -0.0000      0.0000      0.0000      0.0000
       103         0.0000     -0.0543      0.0000      0.0029      0.0014
       104         0.2397      0.0000     -0.0000      0.0574      0.0274
       105        -0.1115     -0.0000      0.0000      0.0124      0.0060
       106         0.0000     -0.0000      0.2417      0.0584      0.0280
       107        -0.0000     -0.0000      0.0000      0.0000      0.0000
       108        -0.1141      0.0000     -0.0000      0.0130      0.0063
       109        -0.0000     -0.5078     -0.0000      0.2579      0.1259
       110         0.0000      0.0000      0.0000      0.0000      0.0000
       111        -0.0000      0.3779      0.0000      0.1428      0.0707
       112        -0.0000      0.1191      0.0000      0.0142      0.0070
       113         0.0000      0.0000     -0.0774      0.0060      0.0030
       114         0.0000     -0.0000     -0.0624      0.0039      0.0019
       115         0.0273     -0.0000      0.0000      0.0007      0.0004
       116         0.2823      0.0000     -0.0000      0.0797      0.0401
       117         0.0000      0.0000     -0.1310      0.0172      0.0087
       118         0.0000      0.3178      0.0000      0.1010      0.0512
       119        -0.0000     -0.0000      0.4787      0.2292      0.1165
       120        -0.0000      0.0000     -0.0000      0.0000      0.0000
       121         0.0000      0.3388      0.0000      0.1148      0.0587
       122        -0.0000      0.0000     -0.2611      0.0682      0.0351
       123        -0.0000      0.0000      0.2343      0.0549      0.0284
       124         0.0000      0.2200      0.0000      0.0484      0.0250
       125        -0.1522      0.0000      0.0000      0.0232      0.0120
       126        -0.0000     -0.0000      0.0000      0.0000      0.0000
[...]
     15   0.000000D+00  0.000000D+00  0.000000D+00  0.000000D+00 -0.117183D-01
     16  -0.306302D+00  0.000000D+00  0.000000D+00  0.143371D+01  0.000000D+00
               621           622           623           624           625 
      1  -0.235010D+03 -0.235009D+03 -0.235002D+03 -0.234998D+03 -0.234984D+03
      2   0.000000D+00  0.000000D+00  0.102930D-01  0.000000D+00 -0.174079D+00
      3  -0.188106D+00  0.000000D+00  0.000000D+00  0.000000D+00  0.000000D+00
      4   0.000000D+00 -0.984693D-02  0.000000D+00  0.000000D+00  0.000000D+00
      5   0.000000D+00  0.000000D+00 -0.294410D-01  0.000000D+00  0.547751D+00
      6   0.608210D+00  0.000000D+00  0.000000D+00  0.000000D+00  0.000000D+00
      7   0.000000D+00  0.362092D-01  0.000000D+00  0.000000D+00  0.000000D+00
      8   0.280558D-01  0.000000D+00  0.000000D+00  0.000000D+00  0.000000D+00
      9   0.000000D+00  0.000000D+00  0.206056D-01  0.000000D+00 -0.206190D+00
     10   0.000000D+00  0.000000D+00  0.000000D+00  0.620670D+00  0.000000D+00
     11   0.000000D+00  0.373286D-01  0.000000D+00  0.000000D+00  0.000000D+00
     12   0.000000D+00  0.265029D+00  0.000000D+00  0.000000D+00  0.000000D+00
     13   0.000000D+00 -0.163779D+00  0.000000D+00  0.000000D+00  0.000000D+00
     14   0.000000D+00  0.000000D+00  0.000000D+00 -0.456179D+00  0.000000D+00
     15   0.000000D+00  0.000000D+00  0.927271D-01  0.000000D+00 -0.126008D+00
     16  -0.592053D+00  0.000000D+00  0.000000D+00  0.000000D+00  0.000000D+00
               626           627           628           629           630 
      1  -0.234975D+03 -0.234969D+03 -0.234967D+03 -0.234965D+03 -0.234945D+03
      2   0.000000D+00  0.180645D-02  0.000000D+00  0.000000D+00  0.000000D+00
      3   0.000000D+00  0.000000D+00  0.140608D+00  0.000000D+00  0.000000D+00
      4   0.000000D+00  0.000000D+00  0.000000D+00  0.127624D-01  0.172130D+00
      5   0.000000D+00 -0.564953D-02  0.000000D+00  0.000000D+00  0.000000D+00
      6   0.000000D+00  0.000000D+00 -0.464122D+00  0.000000D+00  0.000000D+00
      7   0.000000D+00  0.000000D+00  0.000000D+00 -0.197104D-01 -0.579078D+00
      8   0.000000D+00  0.000000D+00 -0.223523D+01  0.000000D+00  0.000000D+00
      9   0.000000D+00 -0.202460D-01  0.000000D+00  0.000000D+00  0.000000D+00
     10  -0.649464D+00  0.000000D+00  0.000000D+00  0.000000D+00  0.000000D+00
     11   0.000000D+00  0.000000D+00  0.000000D+00  0.111562D+00  0.103431D+00
     12   0.000000D+00  0.000000D+00  0.000000D+00 -0.191823D+01  0.750611D+00
     13   0.000000D+00  0.000000D+00  0.000000D+00 -0.173994D+00  0.586669D+00
     14   0.405056D+00  0.000000D+00  0.000000D+00  0.000000D+00  0.000000D+00
     15   0.000000D+00 -0.144194D+00  0.000000D+00  0.000000D+00  0.000000D+00
     16   0.000000D+00  0.000000D+00 -0.184275D+01  0.000000D+00  0.000000D+00
               631           632           633           634           635 
      1  -0.234922D+03 -0.234910D+03 -0.234906D+03 -0.234905D+03 -0.234901D+03
      2  -0.258844D+00  0.000000D+00  0.000000D+00  0.000000D+00  0.000000D+00
      3   0.000000D+00 -0.414158D-01  0.000000D+00  0.000000D+00  0.386722D-01
      4   0.000000D+00  0.000000D+00  0.000000D+00 -0.245888D+00  0.000000D+00
      5   0.869281D+00  0.000000D+00  0.000000D+00  0.000000D+00  0.000000D+00
      6   0.000000D+00  0.147787D+00  0.000000D+00  0.000000D+00 -0.127387D+00
      7   0.000000D+00  0.000000D+00  0.000000D+00  0.815152D+00  0.000000D+00
      8   0.000000D+00  0.931351D+00  0.000000D+00  0.000000D+00 -0.140910D+01
      9  -0.485914D+00  0.000000D+00  0.000000D+00  0.000000D+00  0.000000D+00
     10   0.000000D+00  0.000000D+00  0.119530D+00  0.000000D+00  0.000000D+00
     11   0.000000D+00  0.000000D+00  0.000000D+00 -0.108713D-01  0.000000D+00
     12   0.000000D+00  0.000000D+00  0.000000D+00  0.519304D+01  0.000000D+00
     13   0.000000D+00  0.000000D+00  0.000000D+00 -0.607920D+00  0.000000D+00
     14   0.000000D+00  0.000000D+00 -0.284723D+00  0.000000D+00  0.000000D+00
     15  -0.274739D+00  0.000000D+00  0.000000D+00  0.000000D+00  0.000000D+00
     16   0.000000D+00  0.827438D+00  0.000000D+00  0.000000D+00 -0.159962D+01
               636           637           638           639           640 
      1  -0.234901D+03 -0.234886D+03 -0.234879D+03 -0.234862D+03 -0.234860D+03
      2   0.000000D+00  0.000000D+00  0.000000D+00  0.000000D+00  0.338330D-01
      3   0.000000D+00  0.831065D-01  0.000000D+00 -0.265573D+00  0.000000D+00
      4   0.000000D+00  0.000000D+00  0.000000D+00  0.000000D+00  0.000000D+00
      5   0.000000D+00  0.000000D+00  0.000000D+00  0.000000D+00 -0.794660D-01
      6   0.000000D+00 -0.301026D+00  0.000000D+00  0.906997D+00  0.000000D+00
      7   0.000000D+00  0.000000D+00  0.000000D+00  0.000000D+00  0.000000D+00
      8   0.000000D+00  0.675909D+00  0.000000D+00  0.164174D+01  0.000000D+00
      9   0.000000D+00  0.000000D+00  0.000000D+00  0.000000D+00 -0.660424D-01
     10  -0.554780D+00  0.000000D+00  0.214047D+01  0.000000D+00  0.000000D+00
     11   0.000000D+00  0.000000D+00  0.000000D+00  0.000000D+00  0.000000D+00
     12   0.000000D+00  0.000000D+00  0.000000D+00  0.000000D+00  0.000000D+00
     13   0.000000D+00  0.000000D+00  0.000000D+00  0.000000D+00  0.000000D+00
     14   0.461883D+00  0.000000D+00 -0.229195D+01  0.000000D+00  0.000000D+00
     15   0.000000D+00  0.000000D+00  0.000000D+00  0.000000D+00  0.171770D+00
     16   0.000000D+00  0.120251D+01  0.000000D+00  0.586071D+00  0.000000D+00
               641           642           643           644           645 
      1  -0.234852D+03 -0.234849D+03 -0.234825D+03 -0.234822D+03 -0.234821D+03
      2   0.000000D+00  0.000000D+00  0.000000D+00  0.000000D+00 -0.199595D+00
      3   0.000000D+00  0.000000D+00  0.000000D+00 -0.322895D+00  0.000000D+00
      4  -0.171393D-01 -0.202710D-01  0.475741D+00  0.000000D+00  0.000000D+00
      5   0.000000D+00  0.000000D+00  0.000000D+00  0.000000D+00  0.680268D+00
      6   0.000000D+00  0.000000D+00  0.000000D+00  0.114454D+01  0.000000D+00
      7   0.737914D-01  0.693632D-01 -0.164790D+01  0.000000D+00  0.000000D+00
      8   0.000000D+00  0.000000D+00  0.000000D+00 -0.233237D+00  0.000000D+00
      9   0.000000D+00  0.000000D+00  0.000000D+00  0.000000D+00 -0.455159D+00
     10   0.000000D+00  0.000000D+00  0.000000D+00  0.000000D+00  0.000000D+00
     11  -0.261838D+00  0.155875D+00  0.986711D-01  0.000000D+00  0.000000D+00
     12  -0.217070D+00  0.575388D+00  0.106764D+01  0.000000D+00  0.000000D+00
     13  -0.843523D-01 -0.516716D+00  0.184790D+01  0.000000D+00  0.000000D+00
     14   0.000000D+00  0.000000D+00  0.000000D+00  0.000000D+00  0.000000D+00
     15   0.000000D+00  0.000000D+00  0.000000D+00  0.000000D+00 -0.561896D+00
     16   0.000000D+00  0.000000D+00  0.000000D+00 -0.146160D+01  0.000000D+00
               646           647           648           649           650 
      1  -0.234817D+03 -0.234797D+03 -0.234769D+03 -0.234766D+03 -0.234756D+03
      2   0.000000D+00  0.150424D+00  0.117216D-03  0.000000D+00  0.000000D+00
      3   0.000000D+00  0.000000D+00  0.000000D+00  0.000000D+00 -0.152729D+00
      4   0.000000D+00  0.000000D+00  0.000000D+00  0.000000D+00  0.000000D+00
      5   0.000000D+00 -0.496324D+00 -0.180089D-01  0.000000D+00  0.000000D+00
      6   0.000000D+00  0.000000D+00  0.000000D+00  0.000000D+00  0.538065D+00
      7   0.000000D+00  0.000000D+00  0.000000D+00  0.000000D+00  0.000000D+00
      8   0.000000D+00  0.000000D+00  0.000000D+00  0.000000D+00  0.149119D+01
      9   0.000000D+00  0.364622D+00 -0.131849D-01  0.000000D+00  0.000000D+00
     10  -0.306392D+01  0.000000D+00  0.000000D+00  0.183467D+00  0.000000D+00
     11   0.000000D+00  0.000000D+00  0.000000D+00  0.000000D+00  0.000000D+00
     12   0.000000D+00  0.000000D+00  0.000000D+00  0.000000D+00  0.000000D+00
     13   0.000000D+00  0.000000D+00  0.000000D+00  0.000000D+00  0.000000D+00
     14   0.316720D+01  0.000000D+00  0.000000D+00  0.637581D-01  0.000000D+00
     15   0.000000D+00  0.406550D+00 -0.753075D-01  0.000000D+00  0.000000D+00
     16   0.000000D+00  0.000000D+00  0.000000D+00  0.000000D+00  0.821030D+00
               651           652           653           654           655 
      1  -0.234754D+03 -0.234711D+03 -0.234708D+03 -0.234694D+03 -0.234667D+03
      2   0.000000D+00  0.000000D+00 -0.574015D-01 -0.520354D+00  0.000000D+00
      3   0.000000D+00  0.000000D+00  0.000000D+00  0.000000D+00  0.000000D+00
      4   0.130909D+00  0.000000D+00  0.000000D+00  0.000000D+00 -0.642460D-01
      5   0.000000D+00  0.000000D+00  0.230484D+00  0.185512D+01  0.000000D+00
      6   0.000000D+00  0.000000D+00  0.000000D+00  0.000000D+00  0.000000D+00
      7  -0.459476D+00  0.000000D+00  0.000000D+00  0.000000D+00  0.203197D+00
      8   0.000000D+00  0.000000D+00  0.000000D+00  0.000000D+00  0.000000D+00
      9   0.000000D+00  0.000000D+00 -0.322221D+00 -0.813128D+00  0.000000D+00
     10   0.000000D+00 -0.159816D+00  0.000000D+00  0.000000D+00  0.000000D+00
     11  -0.108427D+00  0.000000D+00  0.000000D+00  0.000000D+00 -0.477690D-01
     12  -0.276687D+01  0.000000D+00  0.000000D+00  0.000000D+00  0.462211D+01
     13   0.876486D+00  0.000000D+00  0.000000D+00  0.000000D+00 -0.303152D+00
     14   0.000000D+00  0.231325D-02  0.000000D+00  0.000000D+00  0.000000D+00
     15   0.000000D+00  0.000000D+00 -0.241547D+00 -0.111178D+01  0.000000D+00
     16   0.000000D+00  0.000000D+00  0.000000D+00  0.000000D+00  0.000000D+00
               656           657           658           659           660 
      1  -0.234663D+03 -0.234653D+03 -0.234618D+03 -0.234590D+03 -0.234573D+03
      2   0.000000D+00  0.000000D+00  0.000000D+00  0.000000D+00 -0.882875D-01
      3   0.000000D+00 -0.126714D+00  0.000000D+00  0.000000D+00  0.000000D+00
      4   0.000000D+00  0.000000D+00 -0.272068D-01  0.000000D+00  0.000000D+00
      5   0.000000D+00  0.000000D+00  0.000000D+00  0.000000D+00  0.327400D+00
      6   0.000000D+00  0.451899D+00  0.000000D+00  0.000000D+00  0.000000D+00
      7   0.000000D+00  0.000000D+00  0.521138D-01  0.000000D+00  0.000000D+00
      8   0.000000D+00  0.333232D+01  0.000000D+00  0.000000D+00  0.000000D+00
      9   0.000000D+00  0.000000D+00  0.000000D+00  0.000000D+00 -0.134916D-01
     10  -0.106368D+01  0.000000D+00  0.000000D+00  0.417700D+01  0.000000D+00
     11   0.000000D+00  0.000000D+00 -0.332629D-01  0.000000D+00  0.000000D+00
     12   0.000000D+00  0.000000D+00  0.246466D+01  0.000000D+00  0.000000D+00
     13   0.000000D+00  0.000000D+00 -0.120748D+00  0.000000D+00  0.000000D+00
     14   0.122244D+01  0.000000D+00  0.000000D+00 -0.453842D+01  0.000000D+00
     15   0.000000D+00  0.000000D+00  0.000000D+00  0.000000D+00  0.137094D-01
     16   0.000000D+00  0.284538D+01  0.000000D+00  0.000000D+00  0.000000D+00
               661           662           663           664           665 
      1  -0.234569D+03 -0.234557D+03 -0.234527D+03 -0.234509D+03 -0.234504D+03
      2   0.000000D+00  0.000000D+00  0.477850D+00  0.000000D+00  0.000000D+00
      3   0.000000D+00  0.122423D+00  0.000000D+00  0.000000D+00  0.470568D+00
      4  -0.868415D-01  0.000000D+00  0.000000D+00  0.476523D+00  0.000000D+00
      5   0.000000D+00  0.000000D+00 -0.178715D+01  0.000000D+00  0.000000D+00
      6   0.000000D+00 -0.431651D+00  0.000000D+00  0.000000D+00 -0.180607D+01
      7   0.319533D+00  0.000000D+00  0.000000D+00 -0.180082D+01  0.000000D+00
      8   0.000000D+00 -0.250802D+01  0.000000D+00  0.000000D+00 -0.130305D+01
      9   0.000000D+00  0.000000D+00  0.101282D+01  0.000000D+00  0.000000D+00
     10   0.000000D+00  0.000000D+00  0.000000D+00  0.000000D+00  0.000000D+00
     11  -0.174732D-01  0.000000D+00  0.000000D+00 -0.776036D-01  0.000000D+00
     12   0.332016D+01  0.000000D+00  0.000000D+00 -0.315225D+01  0.000000D+00
     13  -0.297003D+00  0.000000D+00  0.000000D+00  0.248175D+01  0.000000D+00
     14   0.000000D+00  0.000000D+00  0.000000D+00  0.000000D+00  0.000000D+00
     15   0.000000D+00  0.000000D+00  0.127894D+01  0.000000D+00  0.000000D+00
     16   0.000000D+00 -0.239568D+01  0.000000D+00  0.000000D+00  0.455341D+00
               666           667           668           669           670 
      1  -0.234443D+03 -0.234440D+03 -0.234434D+03 -0.234422D+03 -0.234418D+03
      2   0.000000D+00  0.000000D+00  0.000000D+00  0.830369D-02  0.000000D+00
      3   0.000000D+00  0.000000D+00  0.000000D+00  0.000000D+00  0.229805D+00
      4   0.000000D+00 -0.362911D-01  0.106554D+00  0.000000D+00  0.000000D+00
      5   0.000000D+00  0.000000D+00  0.000000D+00 -0.301111D-01  0.000000D+00
      6   0.000000D+00  0.000000D+00  0.000000D+00  0.000000D+00 -0.929536D+00
      7   0.000000D+00  0.140531D+00 -0.364282D+00  0.000000D+00  0.000000D+00
      8   0.000000D+00  0.000000D+00  0.000000D+00  0.000000D+00  0.222298D+01
      9   0.000000D+00  0.000000D+00  0.000000D+00 -0.823250D-02  0.000000D+00
     10  -0.166708D+01  0.000000D+00  0.000000D+00  0.000000D+00  0.000000D+00
     11   0.000000D+00  0.324611D+00 -0.607226D-01  0.000000D+00  0.000000D+00
     12   0.000000D+00  0.606472D+00  0.172876D+01  0.000000D+00  0.000000D+00
     13   0.000000D+00 -0.458942D-01 -0.281326D+00  0.000000D+00  0.000000D+00
     14   0.197412D+01  0.000000D+00  0.000000D+00  0.000000D+00  0.000000D+00
     15   0.000000D+00  0.000000D+00  0.000000D+00  0.461703D+00  0.000000D+00
     16   0.000000D+00  0.000000D+00  0.000000D+00  0.000000D+00  0.295933D+01
               671           672           673           674           675 
      1  -0.234406D+03 -0.234391D+03 -0.234389D+03 -0.234377D+03 -0.234354D+03
      2   0.000000D+00  0.000000D+00  0.000000D+00  0.000000D+00  0.000000D+00
      3   0.000000D+00  0.000000D+00 -0.600318D-01 -0.341970D-01  0.000000D+00
      4  -0.696102D-01  0.000000D+00  0.000000D+00  0.000000D+00  0.244905D+00
      5   0.000000D+00  0.000000D+00  0.000000D+00  0.000000D+00  0.000000D+00
      6   0.000000D+00  0.000000D+00  0.223433D+00  0.113820D+00  0.000000D+00
      7   0.255390D+00  0.000000D+00  0.000000D+00  0.000000D+00 -0.105838D+01
      8   0.000000D+00  0.000000D+00  0.651960D+00  0.451486D+00  0.000000D+00
      9   0.000000D+00  0.000000D+00  0.000000D+00  0.000000D+00  0.000000D+00
     10   0.000000D+00  0.405694D+00  0.000000D+00  0.000000D+00  0.000000D+00
     11  -0.529952D+00  0.000000D+00  0.000000D+00  0.000000D+00 -0.196132D+00
     12   0.472522D-01  0.000000D+00  0.000000D+00  0.000000D+00  0.743754D+01
     13   0.436364D+00  0.000000D+00  0.000000D+00  0.000000D+00  0.130674D+01
     14   0.000000D+00 -0.391508D+00  0.000000D+00  0.000000D+00  0.000000D+00
     15   0.000000D+00  0.000000D+00  0.000000D+00  0.000000D+00  0.000000D+00
     16   0.000000D+00  0.000000D+00  0.365546D+00  0.140135D+00  0.000000D+00
               676           677           678           679           680 
      1  -0.234350D+03 -0.234333D+03 -0.234318D+03 -0.234318D+03 -0.234308D+03
      2   0.000000D+00  0.000000D+00  0.000000D+00  0.412370D-01  0.000000D+00
      3   0.000000D+00 -0.329232D-01  0.000000D+00  0.000000D+00  0.000000D+00
      4   0.000000D+00  0.000000D+00  0.000000D+00  0.000000D+00  0.631822D-03
      5   0.000000D+00  0.000000D+00  0.000000D+00 -0.146152D+00  0.000000D+00
      6   0.000000D+00  0.126554D+00  0.000000D+00  0.000000D+00  0.000000D+00
      7   0.000000D+00  0.000000D+00  0.000000D+00  0.000000D+00 -0.740030D-03
      8   0.000000D+00  0.222788D+00  0.000000D+00  0.000000D+00  0.000000D+00
      9   0.000000D+00  0.000000D+00  0.000000D+00  0.195885D-01  0.000000D+00
     10  -0.152597D+00  0.000000D+00  0.425468D+00  0.000000D+00  0.000000D+00
     11   0.000000D+00  0.000000D+00  0.000000D+00  0.000000D+00  0.901731D+00
     12   0.000000D+00  0.000000D+00  0.000000D+00  0.000000D+00 -0.382452D+00
     13   0.000000D+00  0.000000D+00  0.000000D+00  0.000000D+00 -0.616288D+00
     14   0.560688D+00  0.000000D+00  0.230822D+00  0.000000D+00  0.000000D+00
     15   0.000000D+00  0.000000D+00  0.000000D+00 -0.697343D+00  0.000000D+00
     16   0.000000D+00  0.509941D+00  0.000000D+00  0.000000D+00  0.000000D+00
               681           682           683           684           685 
      1  -0.234282D+03 -0.234271D+03 -0.234210D+03 -0.234160D+03 -0.234136D+03
      2   0.000000D+00  0.618449D-01  0.925786D-01  0.000000D+00  0.000000D+00
      3  -0.171914D+00  0.000000D+00  0.000000D+00  0.000000D+00 -0.327050D-01
      4   0.000000D+00  0.000000D+00  0.000000D+00  0.000000D+00  0.000000D+00
      5   0.000000D+00 -0.229954D+00 -0.365523D+00  0.000000D+00  0.000000D+00
      6   0.812042D+00  0.000000D+00  0.000000D+00  0.000000D+00  0.134695D+00
      7   0.000000D+00  0.000000D+00  0.000000D+00  0.000000D+00  0.000000D+00
      8  -0.724943D+00  0.000000D+00  0.000000D+00  0.000000D+00  0.591881D+00
      9   0.000000D+00  0.122478D+00  0.200685D+00  0.000000D+00  0.000000D+00
     10   0.000000D+00  0.000000D+00  0.000000D+00  0.697314D+00  0.000000D+00
     11   0.000000D+00  0.000000D+00  0.000000D+00  0.000000D+00  0.000000D+00
     12   0.000000D+00  0.000000D+00  0.000000D+00  0.000000D+00  0.000000D+00
     13   0.000000D+00  0.000000D+00  0.000000D+00  0.000000D+00  0.000000D+00
     14   0.000000D+00  0.000000D+00  0.000000D+00 -0.299554D+00  0.000000D+00
     15   0.000000D+00  0.207000D+00 -0.257959D+00  0.000000D+00  0.000000D+00
     16  -0.254231D+01  0.000000D+00  0.000000D+00  0.000000D+00  0.208942D+00
               686           687           688           689           690 
      1  -0.234082D+03 -0.233944D+03 -0.233891D+03 -0.233822D+03 -0.233771D+03
      2   0.000000D+00  0.000000D+00  0.000000D+00  0.000000D+00  0.000000D+00
      3   0.000000D+00  0.436835D-01  0.000000D+00  0.000000D+00 -0.148239D-01
      4  -0.637129D-01  0.000000D+00 -0.470485D-02  0.274596D-01  0.000000D+00
      5   0.000000D+00  0.000000D+00  0.000000D+00  0.000000D+00  0.000000D+00
      6   0.000000D+00 -0.220082D+00  0.000000D+00  0.000000D+00  0.158624D+00
      7   0.255087D+00  0.000000D+00  0.742808D-01 -0.170143D+00  0.000000D+00
      8   0.000000D+00  0.159474D+00  0.000000D+00  0.000000D+00 -0.175989D+00
      9   0.000000D+00  0.000000D+00  0.000000D+00  0.000000D+00  0.000000D+00
     10   0.000000D+00  0.000000D+00  0.000000D+00  0.000000D+00  0.000000D+00
     11   0.558904D-01  0.000000D+00 -0.130409D+00  0.251085D+00  0.000000D+00
     12   0.448499D+00  0.000000D+00 -0.637509D+00  0.581692D+00  0.000000D+00
     13   0.140258D+00  0.000000D+00 -0.284879D+00  0.529530D-01  0.000000D+00
     14   0.000000D+00  0.000000D+00  0.000000D+00  0.000000D+00  0.000000D+00
     15   0.000000D+00  0.000000D+00  0.000000D+00  0.000000D+00  0.000000D+00
     16   0.000000D+00 -0.703228D-01  0.000000D+00  0.000000D+00 -0.138348D+00
 Unable to Open any file for archive entry.
 1\1\GINC-HEL12\SP\RTPSSTPSS TD-FC\Gen\C1H2F2\SABYASACHI\21-Mar-2022\0\
 \#P TD(Nstates=10000) tpsstpss/Gen SCF(maxcycles=100) Int(Grid=ultrafi
 ne)\\xGDB7_00001_tier4.com\\0,1\F,0,0.,1.098813,-0.28912\C,0,0.,0.,0.4
 99944\F,0,0.,-1.098813,-0.28912\H,0,-0.911346,0.,1.102246\H,0,0.911346
 ,0.,1.102246\\Version=EM64L-G16RevC.01\State=1-A1\HF=-238.8423079\RMSD
 =5.784e-09\PG=C02V [C2(C1),SGV(F2),SGV'(H2)]\\@
 The archive entry for this job was punched.


 KNIGHT- SIRE, I'VE JUST RETURNED FROM THE FRONT
 KING-   HOW GOES THE BATTLE                    
 KNIGHT- THE SITUATION IS QUITE FLUID           
 KING-   WHAT DOES *THAT* MEAN                  
 KNIGHT- WE'RE UP THE CREEK                     
                THE WIZARD OF ID                
 Job cpu time:       0 days  0 hours  3 minutes 12.8 seconds.
 Elapsed time:       0 days  0 hours  0 minutes 24.4 seconds.
 File lengths (MBytes):  RWF=    234 Int=      0 D2E=      0 Chk=    119 Scr=      1
 Normal termination of Gaussian 16 at Mon Mar 21 20:13:09 2022.
