 Entering Gaussian System, Link 0=g16
 Input=000012.com
 Output=000012.log
 Initial command:
 /home/sabyasachi/g16/l1.exe "/scratch/sabyasachi/PBS_7976542.helios/Gau-48688.inp" -scrdir="/scratch/sabyasachi/PBS_7976542.helios/"
 Entering Link 1 = /home/sabyasachi/g16/l1.exe PID=     48689.
  
 Copyright (c) 1988-2019, Gaussian, Inc.  All Rights Reserved.
  
 This is part of the Gaussian(R) 16 program.  It is based on
 the Gaussian(R) 09 system (copyright 2009, Gaussian, Inc.),
 the Gaussian(R) 03 system (copyright 2003, Gaussian, Inc.),
 the Gaussian(R) 98 system (copyright 1998, Gaussian, Inc.),
 the Gaussian(R) 94 system (copyright 1995, Gaussian, Inc.),
 the Gaussian 92(TM) system (copyright 1992, Gaussian, Inc.),
 the Gaussian 90(TM) system (copyright 1990, Gaussian, Inc.),
 the Gaussian 88(TM) system (copyright 1988, Gaussian, Inc.),
 the Gaussian 86(TM) system (copyright 1986, Carnegie Mellon
 University), and the Gaussian 82(TM) system (copyright 1983,
 Carnegie Mellon University). Gaussian is a federally registered
 trademark of Gaussian, Inc.
  
 This software contains proprietary and confidential information,
 including trade secrets, belonging to Gaussian, Inc.
  
 This software is provided under written license and may be
 used, copied, transmitted, or stored only in accord with that
 written license.
  
 The following legend is applicable only to US Government
 contracts under FAR:
  
                    RESTRICTED RIGHTS LEGEND
  
 Use, reproduction and disclosure by the US Government is
 subject to restrictions as set forth in subparagraphs (a)
 and (c) of the Commercial Computer Software - Restricted
 Rights clause in FAR 52.227-19.
  
 Gaussian, Inc.
 340 Quinnipiac St., Bldg. 40, Wallingford CT 06492
  
  
 ---------------------------------------------------------------
 Warning -- This program may not be used in any manner that
 competes with the business of Gaussian, Inc. or will provide
 assistance to any competitor of Gaussian, Inc.  The licensee
 of this program is prohibited from giving any competitor of
 Gaussian, Inc. access to this program.  By using this program,
 the user acknowledges that Gaussian, Inc. is engaged in the
 business of creating and licensing software in the field of
 computational chemistry and represents and warrants to the
 licensee that it is not a competitor of Gaussian, Inc. and that
 it will not use this program in any manner prohibited above.
 ---------------------------------------------------------------
  

 Cite this work as:
 Gaussian 16, Revision C.01,
 M. J. Frisch, G. W. Trucks, H. B. Schlegel, G. E. Scuseria, 
 M. A. Robb, J. R. Cheeseman, G. Scalmani, V. Barone, 
 G. A. Petersson, H. Nakatsuji, X. Li, M. Caricato, A. V. Marenich, 
 J. Bloino, B. G. Janesko, R. Gomperts, B. Mennucci, H. P. Hratchian, 
 J. V. Ortiz, A. F. Izmaylov, J. L. Sonnenberg, D. Williams-Young, 
 F. Ding, F. Lipparini, F. Egidi, J. Goings, B. Peng, A. Petrone, 
 T. Henderson, D. Ranasinghe, V. G. Zakrzewski, J. Gao, N. Rega, 
 G. Zheng, W. Liang, M. Hada, M. Ehara, K. Toyota, R. Fukuda, 
 J. Hasegawa, M. Ishida, T. Nakajima, Y. Honda, O. Kitao, H. Nakai, 
 T. Vreven, K. Throssell, J. A. Montgomery, Jr., J. E. Peralta, 
 F. Ogliaro, M. J. Bearpark, J. J. Heyd, E. N. Brothers, K. N. Kudin, 
 V. N. Staroverov, T. A. Keith, R. Kobayashi, J. Normand, 
 K. Raghavachari, A. P. Rendell, J. C. Burant, S. S. Iyengar, 
 J. Tomasi, M. Cossi, J. M. Millam, M. Klene, C. Adamo, R. Cammi, 
 J. W. Ochterski, R. L. Martin, K. Morokuma, O. Farkas, 
 J. B. Foresman, and D. J. Fox, Gaussian, Inc., Wallingford CT, 2019.
 
 ******************************************
 Gaussian 16:  EM64L-G16RevC.01  3-Jul-2019
                21-Mar-2022 
 ******************************************
 %mem=64gb
 %nproc=8
 Will use up to    8 processors via shared memory.
 ----------------------------------------------------------------------
 #P TD(Nstates=10000) tpsstpss/Gen SCF(maxcycles=100) Int(Grid=ultrafin
 e)
 ----------------------------------------------------------------------
 1/38=1,172=1/1;
 2/12=2,17=6,18=5,40=1/2;
 3/5=7,11=9,25=1,30=1,74=2523,75=-5/1,2,3,8;
 4//1;
 5/5=2,7=100,38=5/2;
 8/6=1,10=1,108=10000/1;
 9/41=10000,42=1,70=2/14;
 6/7=2,8=2,9=2,10=2/1;
 99/5=1,9=1/99;
 Leave Link    1 at Mon Mar 21 20:14:57 2022, MaxMem=  8589934592 cpu:               0.3 elap:               0.1
 (Enter /home/sabyasachi/g16/l101.exe)
 ---------------------
 xGDB7_00001_tier4.com
 ---------------------
 Symbolic Z-matrix:
 Charge =  0 Multiplicity = 1
 8                     0.        0.        0.5969 
 8                     0.        0.       -0.5969 
 
 ITRead=  0  0
 MicOpt= -1 -1
 NAtoms=      2 NQM=        2 NQMF=       0 NMMI=      0 NMMIF=      0
                NMic=       0 NMicF=      0.
                    Isotopes and Nuclear Properties:
 (Nuclear quadrupole moments (NQMom) in fm**2, nuclear magnetic moments (NMagM)
  in nuclear magnetons)

  Atom         1           2
 IAtWgt=          16          16
 AtmWgt=  15.9949146  15.9949146
 NucSpn=           0           0
 AtZEff=  -0.0000000  -0.0000000
 NQMom=    0.0000000   0.0000000
 NMagM=    0.0000000   0.0000000
 AtZNuc=   8.0000000   8.0000000
 Leave Link  101 at Mon Mar 21 20:14:57 2022, MaxMem=  8589934592 cpu:               0.7 elap:               0.1
 (Enter /home/sabyasachi/g16/l202.exe)
                          Input orientation:                          
 ---------------------------------------------------------------------
 Center     Atomic      Atomic             Coordinates (Angstroms)
 Number     Number       Type             X           Y           Z
 ---------------------------------------------------------------------
      1          8           0        0.000000    0.000000    0.596896
      2          8           0        0.000000    0.000000   -0.596896
 ---------------------------------------------------------------------
 Stoichiometry    O2
 Framework group  D*H[C*(O.O)]
 Deg. of freedom     1
 Full point group                 D*H     NOp   8
 Largest Abelian subgroup         D2H     NOp   8
 Largest concise Abelian subgroup C2      NOp   2
                         Standard orientation:                         
 ---------------------------------------------------------------------
 Center     Atomic      Atomic             Coordinates (Angstroms)
 Number     Number       Type             X           Y           Z
 ---------------------------------------------------------------------
      1          8           0        0.000000    0.000000    0.596896
      2          8           0        0.000000    0.000000   -0.596896
 ---------------------------------------------------------------------
 Rotational constants (GHZ):           0.0000000          44.3412508          44.3412508
 Leave Link  202 at Mon Mar 21 20:14:57 2022, MaxMem=  8589934592 cpu:               0.1 elap:               0.0
 (Enter /home/sabyasachi/g16/l301.exe)
 General basis read from cards:  (5D, 7F)
 Centers:       1      2
 S 5 1.00
     Exponent=  2.2661767785D+03 Coefficients= -5.3431809926D-03
     Exponent=  3.4087010191D+02 Coefficients= -3.9890039230D-02
     Exponent=  7.7363135167D+01 Coefficients= -1.7853911985D-01
     Exponent=  2.1479644940D+01 Coefficients= -4.6427684959D-01
     Exponent=  6.6589433124D+00 Coefficients= -4.4309745172D-01
 S 1 1.00
     Exponent=  8.0975975668D-01 Coefficients=  1.0000000000D+00
 S 1 1.00
     Exponent=  2.5530772234D-01 Coefficients=  1.0000000000D+00
 S 1 1.00
     Exponent=  7.6572453250D-02 Coefficients=  1.0000000000D+00
 P 3 1.00
     Exponent=  1.7721504317D+01 Coefficients=  4.3394573193D-02
     Exponent=  3.8635505440D+00 Coefficients=  2.3094120765D-01
     Exponent=  1.0480920883D+00 Coefficients=  5.1375311064D-01
 P 1 1.00
     Exponent=  2.7641544411D-01 Coefficients=  1.0000000000D+00
 P 1 1.00
     Exponent=  6.9002276350D-02 Coefficients=  1.0000000000D+00
 D 1 1.00
     Exponent=  1.2000000000D+00 Coefficients=  1.0000000000D+00
 D 1 1.00
     Exponent=  1.7992024323D-01 Coefficients=  1.0000000000D+00
 ****
 Ernie: Thresh=  0.10000D-02 Tol=  0.10000D-05 Strict=F.
 There are    13 symmetry adapted cartesian basis functions of AG  symmetry.
 There are     2 symmetry adapted cartesian basis functions of B1G symmetry.
 There are     5 symmetry adapted cartesian basis functions of B2G symmetry.
 There are     5 symmetry adapted cartesian basis functions of B3G symmetry.
 There are     2 symmetry adapted cartesian basis functions of AU  symmetry.
 There are    13 symmetry adapted cartesian basis functions of B1U symmetry.
 There are     5 symmetry adapted cartesian basis functions of B2U symmetry.
 There are     5 symmetry adapted cartesian basis functions of B3U symmetry.
 There are    11 symmetry adapted basis functions of AG  symmetry.
 There are     2 symmetry adapted basis functions of B1G symmetry.
 There are     5 symmetry adapted basis functions of B2G symmetry.
 There are     5 symmetry adapted basis functions of B3G symmetry.
 There are     2 symmetry adapted basis functions of AU  symmetry.
 There are    11 symmetry adapted basis functions of B1U symmetry.
 There are     5 symmetry adapted basis functions of B2U symmetry.
 There are     5 symmetry adapted basis functions of B3U symmetry.
    46 basis functions,    70 primitive gaussians,    50 cartesian basis functions
     8 alpha electrons        8 beta electrons
       nuclear repulsion energy        28.3695497196 Hartrees.
 IExCor= 2523 DFT=T Ex=TPSS Corr=TPSS ExCW=0 ScaHFX=  0.000000
 ScaDFX=  1.000000  1.000000  1.000000  1.000000 ScalE2=  1.000000  1.000000
 IRadAn=      5 IRanWt=     -1 IRanGd=            0 ICorTp=0 IEmpDi=  4
 NAtoms=    2 NActive=    2 NUniq=    1 SFac= 4.00D+00 NAtFMM=   60 NAOKFM=F Big=F
 Integral buffers will be    131072 words long.
 Regular integral format.
 Two-electron integral symmetry is turned on.
 Leave Link  301 at Mon Mar 21 20:14:57 2022, MaxMem=  8589934592 cpu:               0.5 elap:               0.1
 (Enter /home/sabyasachi/g16/l302.exe)
 NPDir=0 NMtPBC=     1 NCelOv=     1 NCel=       1 NClECP=     1 NCelD=      1
         NCelK=      1 NCelE2=     1 NClLst=     1 CellRange=     0.0.
 One-electron integrals computed using PRISM.
 One-electron integral symmetry used in STVInt
 NBasis=    46 RedAO= T EigKep=  7.94D-04  NBF=    11     2     5     5     2    11     5     5
 NBsUse=    46 1.00D-06 EigRej= -1.00D+00 NBFU=    11     2     5     5     2    11     5     5
 Precomputing XC quadrature grid using
 IXCGrd= 4 IRadAn=           5 IRanWt=          -1 IRanGd=           0 AccXCQ= 0.00D+00.
 Generated NRdTot=       0 NPtTot=           0 NUsed=           0 NTot=          32
 NSgBfM=    50    50    50    50    50 MxSgAt=     2 MxSgA2=     2.
 Leave Link  302 at Mon Mar 21 20:14:57 2022, MaxMem=  8589934592 cpu:               0.9 elap:               0.1
 (Enter /home/sabyasachi/g16/l303.exe)
 DipDrv:  MaxL=1.
 Leave Link  303 at Mon Mar 21 20:14:57 2022, MaxMem=  8589934592 cpu:               0.2 elap:               0.0
 (Enter /home/sabyasachi/g16/l308.exe)
 Leave Link  308 at Mon Mar 21 20:14:57 2022, MaxMem=  8589934592 cpu:               0.2 elap:               0.0
 (Enter /home/sabyasachi/g16/l401.exe)
 ExpMin= 6.90D-02 ExpMax= 2.27D+03 ExpMxC= 3.41D+02 IAcc=3 IRadAn=         5 AccDes= 0.00D+00
 Harris functional with IExCor= 1009 and IRadAn=       5 diagonalized for initial guess.
 HarFok:  IExCor= 1009 AccDes= 0.00D+00 IRadAn=         5 IDoV= 1 UseB2=F ITyADJ=14
 ICtDFT=  3500011 ScaDFX=  1.000000  1.000000  1.000000  1.000000
 FoFCou: FMM=F IPFlag=           0 FMFlag=      100000 FMFlg1=           0
         NFxFlg=           0 DoJE=T BraDBF=F KetDBF=T FulRan=T
         wScrn=  0.000000 ICntrl=       500 IOpCl=  0 I1Cent=   200000004 NGrid=           0
         NMat0=    1 NMatS0=      1 NMatT0=    0 NMatD0=    1 NMtDS0=    0 NMtDT0=    0
 Petite list used in FoFCou.
 Harris En= -150.025868875842    
 JPrj=0 DoOrth=F DoCkMO=F.
 Initial guess orbital symmetries:
       Occupied  (SGU) (SGG) (SGG) (SGU) (SGG) (PIU) (PIU) (PIG)
       Virtual   (PIG) (SGU) (SGG) (PIU) (PIU) (SGG) (PIG) (PIG)
                 (SGU) (SGU) (DLTG) (DLTG) (SGG) (PIU) (PIU) (DLTU)
                 (DLTU) (PIG) (PIG) (SGU) (PIU) (PIU) (SGG) (SGU)
                 (SGG) (PIG) (PIG) (SGU) (PIU) (PIU) (DLTG) (DLTG)
                 (DLTU) (DLTU) (SGG) (PIG) (PIG) (SGU)
 Leave Link  401 at Mon Mar 21 20:14:57 2022, MaxMem=  8589934592 cpu:               1.1 elap:               0.2
 (Enter /home/sabyasachi/g16/l502.exe)
 Keep J ints in memory in symmetry-blocked form, NReq=7578131.
 FoFCou: FMM=F IPFlag=           0 FMFlag=           0 FMFlg1=           0
         NFxFlg=           0 DoJE=F BraDBF=F KetDBF=F FulRan=T
         wScrn=  0.000000 ICntrl=       600 IOpCl=  0 I1Cent=           0 NGrid=           0
         NMat0=    1 NMatS0=   1081 NMatT0=    0 NMatD0=    1 NMtDS0=    0 NMtDT0=    0
 Petite list used in FoFCou.
 Closed shell SCF:
 Using DIIS extrapolation, IDIIS=  1040.
 NGot=  8589934592 LenX=  8589844957 LenY=  8589842016
 Requested convergence on RMS density matrix=1.00D-08 within 100 cycles.
 Requested convergence on MAX density matrix=1.00D-06.
 Requested convergence on             energy=1.00D-06.
 No special actions if energy rises.
 Integral accuracy reduced to 1.0D-05 until final iterations.

 Cycle   1  Pass 0  IDiag  1:
 E= -150.168383750601    
 DIIS: error= 1.89D-02 at cycle   1 NSaved=   1.
 NSaved= 1 IEnMin= 1 EnMin= -150.168383750601     IErMin= 1 ErrMin= 1.89D-02
 ErrMax= 1.89D-02  0.00D+00 EMaxC= 1.00D-01 BMatC= 1.50D-02 BMatP= 1.50D-02
 IDIUse=3 WtCom= 8.11D-01 WtEn= 1.89D-01
 Coeff-Com:  0.100D+01
 Coeff-En:   0.100D+01
 Coeff:      0.100D+01
 Gap=     0.023 Goal=   None    Shift=    0.000
 GapD=    0.023 DampG=0.250 DampE=0.500 DampFc=0.2500 IDamp=-1.
 Damping current iteration by 2.50D-01
 RMSDP=2.74D-02 MaxDP=2.97D-01              OVMax= 4.90D-02

 Cycle   2  Pass 0  IDiag  1:
 E= -150.180377131987     Delta-E=       -0.011993381385 Rises=F Damp=T
 DIIS: error= 1.10D-02 at cycle   2 NSaved=   2.
 NSaved= 2 IEnMin= 2 EnMin= -150.180377131987     IErMin= 2 ErrMin= 1.10D-02
 ErrMax= 1.10D-02  0.00D+00 EMaxC= 1.00D-01 BMatC= 5.23D-03 BMatP= 1.50D-02
 IDIUse=3 WtCom= 8.90D-01 WtEn= 1.10D-01
 Coeff-Com: -0.120D+01 0.220D+01
 Coeff-En:   0.000D+00 0.100D+01
 Coeff:     -0.106D+01 0.206D+01
 Gap=     0.001 Goal=   None    Shift=    0.000
 RMSDP=7.27D-03 MaxDP=7.55D-02 DE=-1.20D-02 OVMax= 1.60D-02

 Cycle   3  Pass 0  IDiag  1:
 E= -150.176704064652     Delta-E=        0.003673067335 Rises=F Damp=F
 DIIS: error= 9.62D-03 at cycle   3 NSaved=   3.
 NSaved= 3 IEnMin= 2 EnMin= -150.180377131987     IErMin= 3 ErrMin= 9.62D-03
 ErrMax= 9.62D-03  0.00D+00 EMaxC= 1.00D-01 BMatC= 1.39D-03 BMatP= 5.23D-03
 IDIUse=3 WtCom= 9.04D-01 WtEn= 9.62D-02
 Coeff-Com: -0.721D+00 0.124D+01 0.477D+00
 Coeff-En:   0.000D+00 0.891D+00 0.109D+00
 Coeff:     -0.652D+00 0.121D+01 0.441D+00
 Gap=     0.009 Goal=   None    Shift=    0.000
 RMSDP=2.74D-02 MaxDP=2.80D-01 DE= 3.67D-03 OVMax= 2.79D-03

 Cycle   4  Pass 0  IDiag  1:
 E= -150.176064218048     Delta-E=        0.000639846604 Rises=F Damp=F
 DIIS: error= 1.29D-02 at cycle   4 NSaved=   4.
 NSaved= 4 IEnMin= 2 EnMin= -150.180377131987     IErMin= 3 ErrMin= 9.62D-03
 ErrMax= 1.29D-02  0.00D+00 EMaxC= 1.00D-01 BMatC= 2.37D-03 BMatP= 1.39D-03
 IDIUse=2 WtCom= 0.00D+00 WtEn= 1.00D+00
 Coeff-En:   0.000D+00 0.000D+00 0.506D+00 0.494D+00
 Coeff:      0.000D+00 0.000D+00 0.506D+00 0.494D+00
 Gap=     0.000 Goal=   None    Shift=    0.000
 RMSDP=2.40D-04 MaxDP=2.03D-03 DE= 6.40D-04 OVMax= 2.91D-03

 Cycle   5  Pass 0  IDiag  1:
 E= -150.176837849330     Delta-E=       -0.000773631282 Rises=F Damp=F
 DIIS: error= 9.21D-03 at cycle   5 NSaved=   5.
 NSaved= 5 IEnMin= 2 EnMin= -150.180377131987     IErMin= 5 ErrMin= 9.21D-03
 ErrMax= 9.21D-03  0.00D+00 EMaxC= 1.00D-01 BMatC= 1.22D-03 BMatP= 1.39D-03
 IDIUse=3 WtCom= 9.08D-01 WtEn= 9.21D-02
 Coeff-Com: -0.672D-01 0.119D+00 0.402D+00-0.412D+00 0.959D+00
 Coeff-En:   0.000D+00 0.000D+00 0.499D+00 0.000D+00 0.501D+00
 Coeff:     -0.610D-01 0.108D+00 0.410D+00-0.374D+00 0.917D+00
 Gap=     0.003 Goal=   None    Shift=    0.000
 RMSDP=2.73D-02 MaxDP=2.79D-01 DE=-7.74D-04 OVMax= 1.52D-03

 Cycle   6  Pass 0  IDiag  1:
 E= -150.176611205367     Delta-E=        0.000226643963 Rises=F Damp=F
 DIIS: error= 1.04D-02 at cycle   6 NSaved=   6.
 NSaved= 6 IEnMin= 2 EnMin= -150.180377131987     IErMin= 5 ErrMin= 9.21D-03
 ErrMax= 1.04D-02  0.00D+00 EMaxC= 1.00D-01 BMatC= 1.55D-03 BMatP= 1.22D-03
 IDIUse=2 WtCom= 0.00D+00 WtEn= 1.00D+00
 Coeff-En:   0.000D+00 0.000D+00 0.000D+00 0.000D+00 0.502D+00 0.498D+00
 Coeff:      0.000D+00 0.000D+00 0.000D+00 0.000D+00 0.502D+00 0.498D+00
 Gap=     0.000 Goal=   None    Shift=    0.000
 RMSDP=2.73D-02 MaxDP=2.79D-01 DE= 2.27D-04 OVMax= 8.24D-04

 Cycle   7  Pass 0  IDiag  1:
 E= -150.176849551224     Delta-E=       -0.000238345857 Rises=F Damp=F
 DIIS: error= 9.15D-03 at cycle   7 NSaved=   7.
 NSaved= 7 IEnMin= 2 EnMin= -150.180377131987     IErMin= 7 ErrMin= 9.15D-03
 ErrMax= 9.15D-03  0.00D+00 EMaxC= 1.00D-01 BMatC= 1.19D-03 BMatP= 1.22D-03
 IDIUse=3 WtCom= 9.08D-01 WtEn= 9.15D-02
 Coeff-Com:  0.123D+00-0.149D+00 0.486D+00-0.121D+01 0.118D+00-0.257D+00
 Coeff-Com:  0.189D+01
 Coeff-En:   0.000D+00 0.000D+00 0.000D+00 0.000D+00 0.000D+00 0.498D+00
 Coeff-En:   0.502D+00
 Coeff:      0.112D+00-0.136D+00 0.442D+00-0.110D+01 0.107D+00-0.188D+00
 Coeff:      0.176D+01
 Gap=     0.011 Goal=   None    Shift=    0.000
 RMSDP=2.73D-02 MaxDP=2.80D-01 DE=-2.38D-04 OVMax= 2.71D-03

 Cycle   8  Pass 0  IDiag  1:
 E= -150.175909530131     Delta-E=        0.000940021094 Rises=F Damp=F
 DIIS: error= 1.35D-02 at cycle   8 NSaved=   8.
 NSaved= 8 IEnMin= 2 EnMin= -150.180377131987     IErMin= 7 ErrMin= 9.15D-03
 ErrMax= 1.35D-02  0.00D+00 EMaxC= 1.00D-01 BMatC= 2.60D-03 BMatP= 1.19D-03
 IDIUse=2 WtCom= 0.00D+00 WtEn= 1.00D+00
 Rare condition: small coef for last iteration:  0.000D+00
 Coeff-En:   0.000D+00 0.000D+00 0.541D-02 0.000D+00 0.595D-02 0.624D-02
 Coeff-En:   0.500D+00 0.482D+00
 Coeff:      0.000D+00 0.000D+00 0.541D-02 0.000D+00 0.595D-02 0.624D-02
 Coeff:      0.500D+00 0.482D+00
 Gap=     0.000 Goal=   None    Shift=    0.000
 RMSDP=2.73D-02 MaxDP=2.80D-01 DE= 9.40D-04 OVMax= 2.38D-03

 Cycle   9  Pass 0  IDiag  1:
 E= -150.176857616969     Delta-E=       -0.000948086839 Rises=F Damp=F
 DIIS: error= 9.14D-03 at cycle   9 NSaved=   9.
 NSaved= 9 IEnMin= 2 EnMin= -150.180377131987     IErMin= 9 ErrMin= 9.14D-03
 ErrMax= 9.14D-03  0.00D+00 EMaxC= 1.00D-01 BMatC= 1.19D-03 BMatP= 1.19D-03
 IDIUse=3 WtCom= 9.09D-01 WtEn= 9.14D-02
 EnCoef did   100 forward-backward iterations
 Rare condition: small coef for last iteration:  0.000D+00
 Coeff-Com: -0.141D+00 0.192D+00-0.832D-01-0.199D-01 0.638D-01 0.395D+01
 Coeff-Com: -0.403D+00-0.293D+01 0.370D+00
 Coeff-En:   0.000D+00 0.000D+00 0.567D-02 0.000D+00 0.605D-02 0.646D-02
 Coeff-En:   0.279D-03 0.481D+00 0.500D+00
 Coeff:     -0.141D+00 0.192D+00-0.832D-01-0.199D-01 0.638D-01 0.395D+01
 Coeff:     -0.403D+00-0.293D+01 0.370D+00
 Gap=     0.020 Goal=   None    Shift=    0.000
 RMSDP=4.36D-04 MaxDP=3.76D-03 DE=-9.48D-04 OVMax= 5.95D-03

 Cycle  10  Pass 0  IDiag  1:
 E= -150.174788724877     Delta-E=        0.002068892092 Rises=F Damp=F
 DIIS: error= 1.73D-02 at cycle  10 NSaved=  10.
 NSaved=10 IEnMin= 2 EnMin= -150.180377131987     IErMin= 9 ErrMin= 9.14D-03
 ErrMax= 1.73D-02  0.00D+00 EMaxC= 1.00D-01 BMatC= 4.27D-03 BMatP= 1.19D-03
 IDIUse=2 WtCom= 0.00D+00 WtEn= 1.00D+00
 EnCoef did   100 forward-backward iterations
 Rare condition: small coef for last iteration:  0.866D-16
 Coeff-En:   0.000D+00 0.000D+00 0.277D-01 0.000D+00 0.285D-01 0.284D-01
 Coeff-En:   0.223D-01 0.456D+00 0.000D+00 0.437D+00
 Coeff:      0.000D+00 0.000D+00 0.277D-01 0.000D+00 0.285D-01 0.284D-01
 Coeff:      0.223D-01 0.456D+00 0.000D+00 0.437D+00
 Gap=     0.000 Goal=   None    Shift=    0.000
 RMSDP=4.36D-04 MaxDP=3.64D-03 DE= 2.07D-03 OVMax= 6.27D-03

 Cycle  11  Pass 0  IDiag  1:
 E= -150.176820210823     Delta-E=       -0.002031485945 Rises=F Damp=F
 DIIS: error= 9.32D-03 at cycle  11 NSaved=  11.
 NSaved=11 IEnMin= 2 EnMin= -150.180377131987     IErMin= 9 ErrMin= 9.14D-03
 ErrMax= 9.32D-03  0.00D+00 EMaxC= 1.00D-01 BMatC= 1.25D-03 BMatP= 1.19D-03
 IDIUse=3 WtCom= 9.09D-01 WtEn= 9.14D-02
 EnCoef did   100 forward-backward iterations
 Coeff-Com: -0.376D-01 0.540D-01 0.232D-01 0.347D+00 0.776D+00 0.986D+00
 Coeff-Com:  0.155D+01-0.755D+00 0.180D+00-0.949D+00-0.118D+01
 Coeff-En:   0.000D+00 0.000D+00 0.128D+00 0.620D-03 0.289D+00 0.370D+00
 Coeff-En:   0.704D-01 0.788D-04 0.395D-02 0.000D+00 0.138D+00
 Coeff:     -0.342D-01 0.491D-01 0.328D-01 0.315D+00 0.731D+00 0.930D+00
 Coeff:      0.142D+01-0.686D+00 0.164D+00-0.862D+00-0.106D+01
 Gap=     0.010 Goal=   None    Shift=    0.000
 RMSDP=2.73D-02 MaxDP=2.79D-01 DE=-2.03D-03 OVMax= 3.88D-03

 Cycle  12  Pass 0  IDiag  1:
 E= -150.175977010101     Delta-E=        0.000843200721 Rises=F Damp=F
 DIIS: error= 1.32D-02 at cycle  12 NSaved=  12.
 NSaved=12 IEnMin= 2 EnMin= -150.180377131987     IErMin= 9 ErrMin= 9.14D-03
 ErrMax= 1.32D-02  0.00D+00 EMaxC= 1.00D-01 BMatC= 2.49D-03 BMatP= 1.19D-03
 IDIUse=2 WtCom= 0.00D+00 WtEn= 1.00D+00
 EnCoef did   100 forward-backward iterations
 Rare condition: small coef for last iteration: -0.128D-14
 Coeff-En:   0.000D+00 0.000D+00 0.517D-02 0.000D+00 0.548D-02 0.594D-02
 Coeff-En:   0.313D-03 0.000D+00 0.395D-03 0.000D+00 0.500D+00 0.483D+00
 Coeff:      0.000D+00 0.000D+00 0.517D-02 0.000D+00 0.548D-02 0.594D-02
 Coeff:      0.313D-03 0.000D+00 0.395D-03 0.000D+00 0.500D+00 0.483D+00
 Gap=     0.000 Goal=   None    Shift=    0.000
 RMSDP=2.73D-02 MaxDP=2.80D-01 DE= 8.43D-04 OVMax= 2.23D-03

 Cycle  13  Pass 0  IDiag  1:
 E= -150.176854305496     Delta-E=       -0.000877295394 Rises=F Damp=F
 DIIS: error= 9.14D-03 at cycle  13 NSaved=  13.
 NSaved=13 IEnMin= 2 EnMin= -150.180377131987     IErMin= 9 ErrMin= 9.14D-03
 ErrMax= 9.14D-03  0.00D+00 EMaxC= 1.00D-01 BMatC= 1.19D-03 BMatP= 1.19D-03
 IDIUse=3 WtCom= 9.09D-01 WtEn= 9.14D-02
 Large coefficients: NSaved= 13 BigCof=   12.94 CofMax=   10.00 Det=-1.92D-09
 Inversion failed.  Reducing to 12 matrices.
 Large coefficients: NSaved= 12 BigCof=   12.48 CofMax=   10.00 Det=-2.80D-09
 Inversion failed.  Reducing to 11 matrices.
 Large coefficients: NSaved= 11 BigCof=   12.03 CofMax=   10.00 Det=-2.84D-09
 Inversion failed.  Reducing to 10 matrices.
 Large coefficients: NSaved= 10 BigCof=   18.71 CofMax=   10.00 Det=-3.21D-09
 Inversion failed.  Reducing to  9 matrices.
 EnCoef did   100 forward-backward iterations
 Coeff-Com: -0.125D-01 0.651D-01 0.114D+01 0.252D+01 0.449D+01 0.765D+01
 Coeff-Com: -0.415D+01-0.188D+01-0.883D+01
 Coeff-En:   0.000D+00 0.119D+00 0.282D+00 0.374D+00 0.198D-01 0.000D+00
 Coeff-En:   0.000D+00 0.432D-02 0.200D+00
 Coeff:     -0.114D-01 0.700D-01 0.106D+01 0.232D+01 0.408D+01 0.695D+01
 Coeff:     -0.377D+01-0.170D+01-0.800D+01
 Gap=     0.008 Goal=   None    Shift=    0.000
 RMSDP=1.78D-04 MaxDP=1.61D-03 DE=-8.77D-04 OVMax= 2.37D-03

 Cycle  14  Pass 0  IDiag  1:
 E= -150.176163572837     Delta-E=        0.000690732659 Rises=F Damp=F
 DIIS: error= 1.25D-02 at cycle  14 NSaved=  10.
 NSaved=10 IEnMin= 1 EnMin= -150.180377131987     IErMin= 6 ErrMin= 9.14D-03
 ErrMax= 1.25D-02  0.00D+00 EMaxC= 1.00D-01 BMatC= 2.22D-03 BMatP= 1.19D-03
 IDIUse=2 WtCom= 0.00D+00 WtEn= 1.00D+00
 EnCoef did   100 forward-backward iterations
 Rare condition: small coef for last iteration: -0.251D-14
 Coeff-En:   0.000D+00 0.892D-02 0.953D-02 0.970D-02 0.126D-03 0.249D-03
 Coeff-En:   0.388D-02 0.482D+00 0.000D+00 0.486D+00
 Coeff:      0.000D+00 0.892D-02 0.953D-02 0.970D-02 0.126D-03 0.249D-03
 Coeff:      0.388D-02 0.482D+00 0.000D+00 0.486D+00
 Gap=     0.000 Goal=   None    Shift=    0.000
 RMSDP=1.94D-04 MaxDP=1.61D-03 DE= 6.91D-04 OVMax= 3.05D-03

 Cycle  15  Pass 0  IDiag  1:
 E= -150.176845966660     Delta-E=       -0.000682393824 Rises=F Damp=F
 DIIS: error= 9.19D-03 at cycle  15 NSaved=  11.
 NSaved=11 IEnMin= 1 EnMin= -150.180377131987     IErMin= 6 ErrMin= 9.14D-03
 ErrMax= 9.19D-03  0.00D+00 EMaxC= 1.00D-01 BMatC= 1.21D-03 BMatP= 1.19D-03
 IDIUse=3 WtCom= 9.09D-01 WtEn= 9.14D-02
 Large coefficients: NSaved= 11 BigCof=   17.43 CofMax=   10.00 Det=-6.59D-11
 Inversion failed.  Reducing to 10 matrices.
 Large coefficients: NSaved= 10 BigCof=   17.41 CofMax=   10.00 Det=-6.59D-11
 Inversion failed.  Reducing to  9 matrices.
 Large coefficients: NSaved=  9 BigCof=   16.96 CofMax=   10.00 Det=-6.75D-11
 Inversion failed.  Reducing to  8 matrices.
 Large coefficients: NSaved=  8 BigCof=   16.64 CofMax=   10.00 Det=-6.76D-11
 Inversion failed.  Reducing to  7 matrices.
 Large coefficients: NSaved=  7 BigCof=   17.34 CofMax=   10.00 Det=-1.91D-09
 Inversion failed.  Reducing to  6 matrices.
 Large coefficients: NSaved=  6 BigCof=   15.17 CofMax=   10.00 Det=-1.94D-09
 Inversion failed.  Reducing to  5 matrices.
 EnCoef did   100 forward-backward iterations
 Coeff-Com:  0.134D-02-0.396D+00 0.542D+01-0.272D+01-0.131D+01
 Coeff-En:   0.564D+00 0.236D-03 0.417D+00 0.000D+00 0.185D-01
 Coeff:      0.528D-01-0.360D+00 0.497D+01-0.247D+01-0.119D+01
 Gap=     0.021 Goal=   None    Shift=    0.000
 RMSDP=2.74D-02 MaxDP=2.80D-01 DE=-6.82D-04 OVMax= 6.86D-03

 Cycle  16  Pass 0  IDiag  1:
 E= -150.174649161329     Delta-E=        0.002196805331 Rises=F Damp=F
 DIIS: error= 1.76D-02 at cycle  16 NSaved=   6.
 NSaved= 6 IEnMin= 1 EnMin= -150.180377131987     IErMin= 2 ErrMin= 9.14D-03
 ErrMax= 1.76D-02  0.00D+00 EMaxC= 1.00D-01 BMatC= 4.46D-03 BMatP= 1.19D-03
 IDIUse=2 WtCom= 0.00D+00 WtEn= 1.00D+00
 EnCoef did   100 forward-backward iterations
 Coeff-En:   0.000D+00 0.000D+00 0.339D-01 0.000D+00 0.488D+00 0.478D+00
 Coeff:      0.000D+00 0.000D+00 0.339D-01 0.000D+00 0.488D+00 0.478D+00
 Gap=     0.000 Goal=   None    Shift=    0.000
 RMSDP=4.52D-04 MaxDP=3.77D-03 DE= 2.20D-03 OVMax= 6.51D-03

 Cycle  17  Pass 0  IDiag  1:
 E= -150.176808839571     Delta-E=       -0.002159678241 Rises=F Damp=F
 DIIS: error= 9.37D-03 at cycle  17 NSaved=   7.
 NSaved= 7 IEnMin= 1 EnMin= -150.180377131987     IErMin= 2 ErrMin= 9.14D-03
 ErrMax= 9.37D-03  0.00D+00 EMaxC= 1.00D-01 BMatC= 1.26D-03 BMatP= 1.19D-03
 IDIUse=3 WtCom= 9.09D-01 WtEn= 9.14D-02
 EnCoef did   100 forward-backward iterations
 Coeff-Com:  0.431D-02-0.416D+00 0.488D+01-0.244D+01-0.105D+01 0.628D-01
 Coeff-Com: -0.410D-01
 Coeff-En:   0.000D+00 0.000D+00 0.681D-01 0.000D+00 0.433D+00 0.000D+00
 Coeff-En:   0.499D+00
 Coeff:      0.392D-02-0.378D+00 0.444D+01-0.222D+01-0.912D+00 0.570D-01
 Coeff:      0.836D-02
 Gap=     0.020 Goal=   None    Shift=    0.000
 RMSDP=4.10D-04 MaxDP=3.52D-03 DE=-2.16D-03 OVMax= 5.64D-03

 Cycle  18  Pass 0  IDiag  1:
 E= -150.174854835863     Delta-E=        0.001954003708 Rises=F Damp=F
 DIIS: error= 1.71D-02 at cycle  18 NSaved=   8.
 NSaved= 8 IEnMin= 1 EnMin= -150.180377131987     IErMin= 2 ErrMin= 9.14D-03
 ErrMax= 1.71D-02  0.00D+00 EMaxC= 1.00D-01 BMatC= 4.17D-03 BMatP= 1.19D-03
 IDIUse=2 WtCom= 0.00D+00 WtEn= 1.00D+00
 EnCoef did   100 forward-backward iterations
 Rare condition: small coef for last iteration:  0.103D-14
 Coeff-En:   0.000D+00 0.000D+00 0.438D-03 0.000D+00 0.519D+00 0.000D+00
 Coeff-En:   0.000D+00 0.480D+00
 Coeff:      0.000D+00 0.000D+00 0.438D-03 0.000D+00 0.519D+00 0.000D+00
 Coeff:      0.000D+00 0.480D+00
 Gap=     0.000 Goal=   None    Shift=    0.000
 RMSDP=4.05D-04 MaxDP=3.58D-03 DE= 1.95D-03 OVMax= 5.35D-03

 Cycle  19  Pass 0  IDiag  1:
 E= -150.176812372472     Delta-E=       -0.001957536609 Rises=F Damp=F
 DIIS: error= 9.36D-03 at cycle  19 NSaved=   9.
 NSaved= 9 IEnMin= 1 EnMin= -150.180377131987     IErMin= 2 ErrMin= 9.14D-03
 ErrMax= 9.36D-03  0.00D+00 EMaxC= 1.00D-01 BMatC= 1.25D-03 BMatP= 1.19D-03
 IDIUse=3 WtCom= 9.09D-01 WtEn= 9.14D-02
 EnCoef did   100 forward-backward iterations
 Coeff-Com:  0.712D-02 0.550D+00 0.649D+01-0.347D+01-0.220D+01 0.908D+00
 Coeff-Com:  0.280D+01-0.445D+00-0.363D+01
 Coeff-En:   0.000D+00 0.000D+00 0.628D-01 0.000D+00 0.438D+00 0.000D+00
 Coeff-En:   0.000D+00 0.000D+00 0.499D+00
 Coeff:      0.647D-02 0.499D+00 0.590D+01-0.316D+01-0.196D+01 0.825D+00
 Coeff:      0.255D+01-0.404D+00-0.325D+01
 Gap=     0.035 Goal=   None    Shift=    0.000
 RMSDP=7.27D-04 MaxDP=6.69D-03 DE=-1.96D-03 OVMax= 9.12D-03

 Cycle  20  Pass 0  IDiag  1:
 E= -150.172380879495     Delta-E=        0.004431492977 Rises=F Damp=F
 DIIS: error= 2.35D-02 at cycle  20 NSaved=  10.
 NSaved=10 IEnMin= 1 EnMin= -150.180377131987     IErMin= 2 ErrMin= 9.14D-03
 ErrMax= 2.35D-02  0.00D+00 EMaxC= 1.00D-01 BMatC= 7.87D-03 BMatP= 1.19D-03
 IDIUse=2 WtCom= 0.00D+00 WtEn= 1.00D+00
 EnCoef did   100 forward-backward iterations
 Rare condition: small coef for last iteration: -0.182D-14
 Coeff-En:   0.000D+00 0.000D+00 0.388D-03 0.000D+00 0.542D+00 0.000D+00
 Coeff-En:   0.000D+00 0.000D+00 0.000D+00 0.458D+00
 Coeff:      0.000D+00 0.000D+00 0.388D-03 0.000D+00 0.542D+00 0.000D+00
 Coeff:      0.000D+00 0.000D+00 0.000D+00 0.458D+00
 Gap=     0.001 Goal=   None    Shift=    0.000
 RMSDP=7.14D-04 MaxDP=6.45D-03 DE= 4.43D-03 OVMax= 9.12D-03

 Cycle  21  Pass 0  IDiag  1:
 E= -150.176756473730     Delta-E=       -0.004375594235 Rises=F Damp=F
 DIIS: error= 9.65D-03 at cycle  21 NSaved=  11.
 NSaved=11 IEnMin= 1 EnMin= -150.180377131987     IErMin= 2 ErrMin= 9.14D-03
 ErrMax= 9.65D-03  0.00D+00 EMaxC= 1.00D-01 BMatC= 1.34D-03 BMatP= 1.19D-03
 IDIUse=3 WtCom= 9.09D-01 WtEn= 9.14D-02
 EnCoef did   100 forward-backward iterations
 Coeff-Com:  0.336D-02 0.129D+01 0.346D+01-0.204D+01-0.192D+01 0.722D+00
 Coeff-Com:  0.330D+01-0.248D+01 0.453D+01 0.963D+00-0.683D+01
 Coeff-En:   0.000D+00 0.000D+00 0.639D-01 0.000D+00 0.437D+00 0.000D+00
 Coeff-En:   0.000D+00 0.000D+00 0.458D-01 0.000D+00 0.453D+00
 Coeff:      0.306D-02 0.117D+01 0.315D+01-0.185D+01-0.170D+01 0.656D+00
 Coeff:      0.299D+01-0.225D+01 0.412D+01 0.875D+00-0.616D+01
 Gap=     0.012 Goal=   None    Shift=    0.000
 RMSDP=2.40D-04 MaxDP=1.99D-03 DE=-4.38D-03 OVMax= 3.52D-03

 Cycle  22  Pass 0  IDiag  1:
 E= -150.175765817535     Delta-E=        0.000990656195 Rises=F Damp=F
 DIIS: error= 1.40D-02 at cycle  22 NSaved=  12.
 NSaved=12 IEnMin= 1 EnMin= -150.180377131987     IErMin= 2 ErrMin= 9.14D-03
 ErrMax= 1.40D-02  0.00D+00 EMaxC= 1.00D-01 BMatC= 2.81D-03 BMatP= 1.19D-03
 IDIUse=2 WtCom= 0.00D+00 WtEn= 1.00D+00
 EnCoef did   100 forward-backward iterations
 Rare condition: small coef for last iteration:  0.000D+00
 Coeff-En:   0.000D+00 0.000D+00 0.466D-03 0.000D+00 0.511D+00 0.000D+00
 Coeff-En:   0.000D+00 0.000D+00 0.000D+00 0.000D+00 0.000D+00 0.489D+00
 Coeff:      0.000D+00 0.000D+00 0.466D-03 0.000D+00 0.511D+00 0.000D+00
 Coeff:      0.000D+00 0.000D+00 0.000D+00 0.000D+00 0.000D+00 0.489D+00
 Gap=     0.000 Goal=   None    Shift=    0.000
 RMSDP=2.54D-04 MaxDP=2.18D-03 DE= 9.91D-04 OVMax= 3.48D-03

 Cycle  23  Pass 0  IDiag  1:
 E= -150.176830592074     Delta-E=       -0.001064774539 Rises=F Damp=F
 DIIS: error= 9.26D-03 at cycle  23 NSaved=  13.
 NSaved=13 IEnMin= 1 EnMin= -150.180377131987     IErMin= 2 ErrMin= 9.14D-03
 ErrMax= 9.26D-03  0.00D+00 EMaxC= 1.00D-01 BMatC= 1.22D-03 BMatP= 1.19D-03
 IDIUse=3 WtCom= 9.09D-01 WtEn= 9.14D-02
 Large coefficients: NSaved= 13 BigCof=  105.52 CofMax=   10.00 Det=-1.84D-12
 Inversion failed.  Reducing to 12 matrices.
 Large coefficients: NSaved= 12 BigCof=  199.48 CofMax=   10.00 Det=-2.73D-12
 Inversion failed.  Reducing to 11 matrices.
 Large coefficients: NSaved= 11 BigCof=  235.35 CofMax=   10.00 Det=-3.30D-12
 Inversion failed.  Reducing to 10 matrices.
 Large coefficients: NSaved= 10 BigCof=  246.14 CofMax=   10.00 Det=-3.35D-12
 Inversion failed.  Reducing to  9 matrices.
 Large coefficients: NSaved=  9 BigCof=  179.01 CofMax=   10.00 Det=-7.03D-12
 Inversion failed.  Reducing to  8 matrices.
 Large coefficients: NSaved=  8 BigCof=   13.76 CofMax=   10.00 Det=-2.61D-09
 Inversion failed.  Reducing to  7 matrices.
 Large coefficients: NSaved=  7 BigCof=   14.20 CofMax=   10.00 Det=-1.94D-08
 Inversion failed.  Reducing to  6 matrices.
 EnCoef did   100 forward-backward iterations
 Coeff-Com: -0.138D-01 0.311D+01-0.534D+00-0.227D+01-0.802D+00 0.151D+01
 Coeff-En:   0.000D+00 0.000D+00 0.612D-01 0.439D+00 0.000D+00 0.500D+00
 Coeff:     -0.125D-01 0.283D+01-0.479D+00-0.202D+01-0.728D+00 0.141D+01
 Gap=     0.008 Goal=   None    Shift=    0.000
 RMSDP=2.73D-02 MaxDP=2.80D-01 DE=-1.06D-03 OVMax= 2.51D-03

 Cycle  24  Pass 0  IDiag  1:
 E= -150.176182118288     Delta-E=        0.000648473787 Rises=F Damp=F
 DIIS: error= 1.24D-02 at cycle  24 NSaved=   7.
 NSaved= 7 IEnMin= 1 EnMin= -150.180377131987     IErMin= 2 ErrMin= 9.14D-03
 ErrMax= 1.24D-02  0.00D+00 EMaxC= 1.00D-01 BMatC= 2.19D-03 BMatP= 1.19D-03
 IDIUse=2 WtCom= 0.00D+00 WtEn= 1.00D+00
 EnCoef did   100 forward-backward iterations
 Rare condition: small coef for last iteration:  0.340D-15
 Coeff-En:   0.000D+00 0.000D+00 0.406D-03 0.343D-02 0.000D+00 0.505D+00
 Coeff-En:   0.492D+00
 Coeff:      0.000D+00 0.000D+00 0.406D-03 0.343D-02 0.000D+00 0.505D+00
 Coeff:      0.492D+00
 Gap=     0.000 Goal=   None    Shift=    0.000
 RMSDP=2.73D-02 MaxDP=2.79D-01 DE= 6.48D-04 OVMax= 1.78D-03

 Cycle  25  Pass 0  IDiag  1:
 E= -150.176855147080     Delta-E=       -0.000673028792 Rises=F Damp=F
 DIIS: error= 9.15D-03 at cycle  25 NSaved=   8.
 NSaved= 8 IEnMin= 1 EnMin= -150.180377131987     IErMin= 2 ErrMin= 9.14D-03
 ErrMax= 9.15D-03  0.00D+00 EMaxC= 1.00D-01 BMatC= 1.19D-03 BMatP= 1.19D-03
 IDIUse=3 WtCom= 9.09D-01 WtEn= 9.14D-02
 EnCoef did   100 forward-backward iterations
 Rare condition: small coef for last iteration:  0.000D+00
 Coeff-Com:  0.190D-02-0.341D+00 0.712D+01-0.188D+01 0.920D+00-0.474D+01
 Coeff-Com: -0.356D+01 0.347D+01
 Coeff-En:   0.000D+00 0.000D+00 0.438D-03 0.345D-02 0.000D+00 0.847D-04
 Coeff-En:   0.491D+00 0.505D+00
 Coeff:      0.190D-02-0.341D+00 0.712D+01-0.188D+01 0.920D+00-0.474D+01
 Coeff:     -0.356D+01 0.347D+01
 Gap=     0.038 Goal=   None    Shift=    0.000
 RMSDP=8.04D-04 MaxDP=7.44D-03 DE=-6.73D-04 OVMax= 1.01D-02

 Cycle  26  Pass 0  IDiag  1:
 E= -150.171816038831     Delta-E=        0.005039108249 Rises=F Damp=F
 DIIS: error= 2.47D-02 at cycle  26 NSaved=   9.
 NSaved= 9 IEnMin= 1 EnMin= -150.180377131987     IErMin= 2 ErrMin= 9.14D-03
 ErrMax= 2.47D-02  0.00D+00 EMaxC= 1.00D-01 BMatC= 8.71D-03 BMatP= 1.19D-03
 IDIUse=2 WtCom= 0.00D+00 WtEn= 1.00D+00
 EnCoef did   100 forward-backward iterations
 Rare condition: small coef for last iteration:  0.000D+00
 Coeff-En:   0.000D+00 0.000D+00 0.210D-03 0.783D-01 0.000D+00 0.735D-01
 Coeff-En:   0.458D+00 0.000D+00 0.390D+00
 Coeff:      0.000D+00 0.000D+00 0.210D-03 0.783D-01 0.000D+00 0.735D-01
 Coeff:      0.458D+00 0.000D+00 0.390D+00
 Gap=     0.001 Goal=   None    Shift=    0.000
 RMSDP=7.87D-04 MaxDP=6.91D-03 DE= 5.04D-03 OVMax= 1.04D-02

 Cycle  27  Pass 0  IDiag  1:
 E= -150.176760122560     Delta-E=       -0.004944083729 Rises=F Damp=F
 DIIS: error= 9.63D-03 at cycle  27 NSaved=  10.
 NSaved=10 IEnMin= 1 EnMin= -150.180377131987     IErMin= 2 ErrMin= 9.14D-03
 ErrMax= 9.63D-03  0.00D+00 EMaxC= 1.00D-01 BMatC= 1.34D-03 BMatP= 1.19D-03
 IDIUse=3 WtCom= 9.09D-01 WtEn= 9.14D-02
 EnCoef did   100 forward-backward iterations
 Coeff-Com:  0.499D-02 0.164D+01-0.105D+01-0.845D+00-0.439D+01 0.563D+01
 Coeff-Com:  0.230D+00 0.240D+01 0.871D+00-0.349D+01
 Coeff-En:   0.000D+00 0.000D+00 0.501D-01 0.205D+00 0.000D+00 0.214D+00
 Coeff-En:   0.243D+00 0.108D-01 0.000D+00 0.277D+00
 Coeff:      0.454D-02 0.149D+01-0.953D+00-0.749D+00-0.399D+01 0.514D+01
 Coeff:      0.231D+00 0.218D+01 0.792D+00-0.314D+01
 Gap=     0.022 Goal=   None    Shift=    0.000
 RMSDP=2.74D-02 MaxDP=2.80D-01 DE=-4.94D-03 OVMax= 7.06D-03

 Cycle  28  Pass 0  IDiag  1:
 E= -150.174571603708     Delta-E=        0.002188518852 Rises=F Damp=F
 DIIS: error= 1.79D-02 at cycle  28 NSaved=  11.
 NSaved=11 IEnMin= 1 EnMin= -150.180377131987     IErMin= 2 ErrMin= 9.14D-03
 ErrMax= 1.79D-02  0.00D+00 EMaxC= 1.00D-01 BMatC= 4.59D-03 BMatP= 1.19D-03
 IDIUse=2 WtCom= 0.00D+00 WtEn= 1.00D+00
 EnCoef did   100 forward-backward iterations
 Rare condition: small coef for last iteration: -0.649D-15
 Coeff-En:   0.000D+00 0.000D+00 0.468D-03 0.262D-01 0.000D+00 0.228D-01
 Coeff-En:   0.222D-01 0.630D-03 0.000D+00 0.483D+00 0.444D+00
 Coeff:      0.000D+00 0.000D+00 0.468D-03 0.262D-01 0.000D+00 0.228D-01
 Coeff:      0.222D-01 0.630D-03 0.000D+00 0.483D+00 0.444D+00
 Gap=     0.000 Goal=   None    Shift=    0.000
 RMSDP=2.74D-02 MaxDP=2.80D-01 DE= 2.19D-03 OVMax= 5.02D-03

 Cycle  29  Pass 0  IDiag  1:
 E= -150.176846268529     Delta-E=       -0.002274664821 Rises=F Damp=F
 DIIS: error= 9.21D-03 at cycle  29 NSaved=  12.
 NSaved=12 IEnMin= 1 EnMin= -150.180377131987     IErMin= 2 ErrMin= 9.14D-03
 ErrMax= 9.21D-03  0.00D+00 EMaxC= 1.00D-01 BMatC= 1.20D-03 BMatP= 1.19D-03
 IDIUse=3 WtCom= 9.09D-01 WtEn= 9.14D-02
 EnCoef did   100 forward-backward iterations
 Coeff-Com:  0.405D-02 0.194D+01-0.231D+01-0.621D+00-0.377D+01 0.678D+01
 Coeff-Com: -0.674D+00 0.676D+01 0.297D+00-0.468D+01 0.969D+00-0.370D+01
 Coeff-En:   0.000D+00 0.000D+00 0.519D-01 0.285D+00 0.151D-02 0.392D+00
 Coeff-En:   0.154D+00 0.809D-04 0.000D+00 0.000D+00 0.815D-02 0.108D+00
 Coeff:      0.368D-02 0.177D+01-0.209D+01-0.538D+00-0.343D+01 0.620D+01
 Coeff:     -0.598D+00 0.615D+01 0.270D+00-0.426D+01 0.881D+00-0.335D+01
 Gap=     0.049 Goal=   None    Shift=    0.000
 RMSDP=2.76D-02 MaxDP=2.82D-01 DE=-2.27D-03 OVMax= 1.24D-02

 Cycle  30  Pass 0  IDiag  1:
 E= -150.169614645190     Delta-E=        0.007231623339 Rises=F Damp=F
 DIIS: error= 2.90D-02 at cycle  30 NSaved=  13.
 NSaved=13 IEnMin= 1 EnMin= -150.180377131987     IErMin= 2 ErrMin= 9.14D-03
 ErrMax= 2.90D-02  0.00D+00 EMaxC= 1.00D-01 BMatC= 1.20D-02 BMatP= 1.19D-03
 IDIUse=2 WtCom= 0.00D+00 WtEn= 1.00D+00
 EnCoef did   100 forward-backward iterations
 Rare condition: small coef for last iteration: -0.218D-14
 Coeff-En:   0.000D+00 0.000D+00 0.353D-03 0.874D-01 0.000D+00 0.836D-01
 Coeff-En:   0.818D-01 0.579D-03 0.000D+00 0.647D-01 0.602D-01 0.351D+00
 Coeff-En:   0.270D+00
 Coeff:      0.000D+00 0.000D+00 0.353D-03 0.874D-01 0.000D+00 0.836D-01
 Coeff:      0.818D-01 0.579D-03 0.000D+00 0.647D-01 0.602D-01 0.351D+00
 Coeff:      0.270D+00
 Gap=     0.001 Goal=   None    Shift=    0.000
 RMSDP=2.76D-02 MaxDP=2.82D-01 DE= 7.23D-03 OVMax= 1.22D-02

 Cycle  31  Pass 0  IDiag  1:
 E= -150.176807895100     Delta-E=       -0.007193249910 Rises=F Damp=F
 DIIS: error= 9.44D-03 at cycle  31 NSaved=  14.
 NSaved=14 IEnMin= 1 EnMin= -150.180377131987     IErMin= 2 ErrMin= 9.14D-03
 ErrMax= 9.44D-03  0.00D+00 EMaxC= 1.00D-01 BMatC= 1.26D-03 BMatP= 1.19D-03
 IDIUse=3 WtCom= 9.09D-01 WtEn= 9.14D-02
 Large coefficients: NSaved= 14 BigCof=   10.80 CofMax=   10.00 Det=-1.10D-10
 Inversion failed.  Reducing to 13 matrices.
 EnCoef did   100 forward-backward iterations
 Rare condition: small coef for last iteration: -0.319D-16
 Coeff-Com:  0.228D-02 0.148D+01-0.266D+01-0.546D+00-0.195D+01 0.626D+01
 Coeff-Com:  0.388D+01 0.496D+01-0.396D+01-0.310D+01-0.627D+01 0.805D+00
 Coeff-Com:  0.210D+01
 Coeff-En:   0.000D+00 0.000D+00 0.399D-03 0.875D-01 0.000D+00 0.837D-01
 Coeff-En:   0.819D-01 0.619D-03 0.648D-01 0.603D-01 0.223D-03 0.270D+00
 Coeff-En:   0.350D+00
 Coeff:      0.228D-02 0.148D+01-0.266D+01-0.546D+00-0.195D+01 0.626D+01
 Coeff:      0.388D+01 0.496D+01-0.396D+01-0.310D+01-0.627D+01 0.805D+00
 Coeff:      0.210D+01
 Gap=     0.029 Goal=   None    Shift=    0.000
 RMSDP=2.74D-02 MaxDP=2.81D-01 DE=-7.19D-03 OVMax= 8.29D-03

 Cycle  32  Pass 0  IDiag  1:
 E= -150.173450974210     Delta-E=        0.003356920890 Rises=F Damp=F
 DIIS: error= 2.09D-02 at cycle  32 NSaved=  14.
 NSaved=14 IEnMin= 1 EnMin= -150.180377131987     IErMin= 2 ErrMin= 9.14D-03
 ErrMax= 2.09D-02  0.00D+00 EMaxC= 1.00D-01 BMatC= 6.27D-03 BMatP= 1.19D-03
 IDIUse=2 WtCom= 0.00D+00 WtEn= 1.00D+00
 EnCoef did   100 forward-backward iterations
 Coeff-En:   0.000D+00 0.000D+00 0.360D-01 0.262D+00 0.492D-03 0.394D+00
 Coeff-En:   0.186D+00 0.872D-01 0.169D-03 0.675D-03 0.201D-01 0.000D+00
 Coeff-En:   0.153D-03 0.138D-01
 Coeff:      0.000D+00 0.000D+00 0.360D-01 0.262D+00 0.492D-03 0.394D+00
 Coeff:      0.186D+00 0.872D-01 0.169D-03 0.675D-03 0.201D-01 0.000D+00
 Coeff:      0.153D-03 0.138D-01
 Gap=     0.000 Goal=   None    Shift=    0.000
 RMSDP=2.74D-02 MaxDP=2.81D-01 DE= 3.36D-03 OVMax= 7.19D-03

 Failed to achieve initial convergence to 1.0D-08 in 33 cycles.
 Switch to full accuracy anyway.
 Cycle  33  Pass 1  IDiag  1:
 E= -150.176849713472     Delta-E=       -0.003398739262 Rises=F Damp=F
 DIIS: error= 9.16D-03 at cycle   1 NSaved=   1.
 NSaved= 1 IEnMin= 1 EnMin= -150.176849713472     IErMin= 1 ErrMin= 9.16D-03
 ErrMax= 9.16D-03  0.00D+00 EMaxC= 1.00D-01 BMatC= 1.20D-03 BMatP= 1.20D-03
 IDIUse=3 WtCom= 9.08D-01 WtEn= 9.16D-02
 Coeff-Com:  0.100D+01
 Coeff-En:   0.100D+01
 Coeff:      0.100D+01
 Gap=     0.024 Goal=   None    Shift=    0.000
 RMSDP=2.74D-02 MaxDP=2.81D-01 DE=-3.40D-03 OVMax= 5.64D-03

 Cycle  34  Pass 1  IDiag  1:
 E= -150.174317163177     Delta-E=        0.002532550295 Rises=F Damp=F
 DIIS: error= 1.88D-02 at cycle   2 NSaved=   2.
 NSaved= 2 IEnMin= 1 EnMin= -150.176849713472     IErMin= 1 ErrMin= 9.16D-03
 ErrMax= 1.88D-02  0.00D+00 EMaxC= 1.00D-01 BMatC= 4.99D-03 BMatP= 1.20D-03
 IDIUse=2 WtCom= 0.00D+00 WtEn= 1.00D+00
 Coeff-En:   0.524D+00 0.476D+00
 Coeff:      0.524D+00 0.476D+00
 Gap=     0.000 Goal=   None    Shift=    0.000
 RMSDP=4.72D-04 MaxDP=4.25D-03 DE= 2.53D-03 OVMax= 5.96D-03

 Cycle  35  Pass 1  IDiag  1:
 E= -150.176802494927     Delta-E=       -0.002485331750 Rises=F Damp=F
 DIIS: error= 9.42D-03 at cycle   3 NSaved=   3.
 NSaved= 3 IEnMin= 1 EnMin= -150.176849713472     IErMin= 1 ErrMin= 9.16D-03
 ErrMax= 9.42D-03  0.00D+00 EMaxC= 1.00D-01 BMatC= 1.27D-03 BMatP= 1.20D-03
 IDIUse=3 WtCom= 9.06D-01 WtEn= 9.42D-02
 Coeff-Com:  0.389D+00-0.238D+00 0.849D+00
 Coeff-En:   0.500D+00 0.000D+00 0.500D+00
 Coeff:      0.400D+00-0.216D+00 0.816D+00
 Gap=     0.005 Goal=   None    Shift=    0.000
 RMSDP=2.73D-02 MaxDP=2.79D-01 DE=-2.49D-03 OVMax= 2.21D-03

 Cycle  36  Pass 1  IDiag  1:
 E= -150.176488873660     Delta-E=        0.000313621267 Rises=F Damp=F
 DIIS: error= 1.10D-02 at cycle   4 NSaved=   4.
 NSaved= 4 IEnMin= 1 EnMin= -150.176849713472     IErMin= 1 ErrMin= 9.16D-03
 ErrMax= 1.10D-02  0.00D+00 EMaxC= 1.00D-01 BMatC= 1.73D-03 BMatP= 1.20D-03
 IDIUse=2 WtCom= 0.00D+00 WtEn= 1.00D+00
 Rare condition: small coef for last iteration:  0.000D+00
 Coeff-En:   0.121D-02 0.000D+00 0.503D+00 0.496D+00
 Coeff:      0.121D-02 0.000D+00 0.503D+00 0.496D+00
 Gap=     0.000 Goal=   None    Shift=    0.000
 RMSDP=2.73D-02 MaxDP=2.79D-01 DE= 3.14D-04 OVMax= 1.05D-03

 Cycle  37  Pass 1  IDiag  1:
 E= -150.176853494632     Delta-E=       -0.000364620971 Rises=F Damp=F
 DIIS: error= 9.15D-03 at cycle   5 NSaved=   5.
 NSaved= 5 IEnMin= 5 EnMin= -150.176853494632     IErMin= 5 ErrMin= 9.15D-03
 ErrMax= 9.15D-03  0.00D+00 EMaxC= 1.00D-01 BMatC= 1.19D-03 BMatP= 1.20D-03
 IDIUse=3 WtCom= 9.08D-01 WtEn= 9.15D-02
 EnCoef did   100 forward-backward iterations
 Coeff-Com:  0.233D-01-0.869D+00-0.163D+01-0.285D-02 0.347D+01
 Coeff-En:   0.890D-01 0.000D+00 0.572D-01 0.409D+00 0.445D+00
 Coeff:      0.293D-01-0.790D+00-0.147D+01 0.348D-01 0.320D+01
 Gap=     0.020 Goal=   None    Shift=    0.000
 RMSDP=2.74D-02 MaxDP=2.80D-01 DE=-3.65D-04 OVMax= 5.37D-03

 Cycle  38  Pass 1  IDiag  1:
 E= -150.174833362725     Delta-E=        0.002020131907 Rises=F Damp=F
 DIIS: error= 1.72D-02 at cycle   6 NSaved=   6.
 NSaved= 6 IEnMin= 5 EnMin= -150.176853494632     IErMin= 5 ErrMin= 9.15D-03
 ErrMax= 1.72D-02  0.00D+00 EMaxC= 1.00D-01 BMatC= 4.20D-03 BMatP= 1.19D-03
 IDIUse=2 WtCom= 0.00D+00 WtEn= 1.00D+00
 EnCoef did   100 forward-backward iterations
 Rare condition: small coef for last iteration:  0.403D-14
 Coeff-En:   0.217D-01 0.000D+00 0.204D-01 0.203D-01 0.487D+00 0.450D+00
 Coeff:      0.217D-01 0.000D+00 0.204D-01 0.203D-01 0.487D+00 0.450D+00
 Gap=     0.000 Goal=   None    Shift=    0.000
 RMSDP=2.74D-02 MaxDP=2.80D-01 DE= 2.02D-03 OVMax= 4.44D-03

 Cycle  39  Pass 1  IDiag  1:
 E= -150.176851797226     Delta-E=       -0.002018434502 Rises=F Damp=F
 DIIS: error= 9.18D-03 at cycle   7 NSaved=   7.
 NSaved= 7 IEnMin= 5 EnMin= -150.176853494632     IErMin= 5 ErrMin= 9.15D-03
 ErrMax= 9.18D-03  0.00D+00 EMaxC= 1.00D-01 BMatC= 1.20D-03 BMatP= 1.19D-03
 IDIUse=3 WtCom= 9.08D-01 WtEn= 9.15D-02
 EnCoef did   100 forward-backward iterations
 Rare condition: small coef for last iteration:  0.120D-15
 Coeff-Com: -0.764D+00-0.183D+01-0.298D+01-0.179D+01 0.712D+01 0.155D+01
 Coeff-Com: -0.305D+00
 Coeff-En:   0.218D-01 0.000D+00 0.205D-01 0.205D-01 0.164D-03 0.450D+00
 Coeff-En:   0.487D+00
 Coeff:     -0.764D+00-0.183D+01-0.298D+01-0.179D+01 0.712D+01 0.155D+01
 Coeff:     -0.305D+00
 Gap=     0.068 Goal=   None    Shift=    0.000
 RMSDP=2.77D-02 MaxDP=2.83D-01 DE=-2.02D-03 OVMax= 1.70D-02

 Cycle  40  Pass 1  IDiag  1:
 E= -150.164803300046     Delta-E=        0.012048497181 Rises=F Damp=F
 DIIS: error= 3.67D-02 at cycle   8 NSaved=   8.
 NSaved= 8 IEnMin= 5 EnMin= -150.176853494632     IErMin= 5 ErrMin= 9.15D-03
 ErrMax= 3.67D-02  0.00D+00 EMaxC= 1.00D-01 BMatC= 1.92D-02 BMatP= 1.19D-03
 IDIUse=2 WtCom= 0.00D+00 WtEn= 1.00D+00
 EnCoef did   100 forward-backward iterations
 Rare condition: small coef for last iteration:  0.152D-15
 Coeff-En:   0.115D+00 0.000D+00 0.114D+00 0.114D+00 0.101D+00 0.951D-01
 Coeff-En:   0.278D+00 0.182D+00
 Coeff:      0.115D+00 0.000D+00 0.114D+00 0.114D+00 0.101D+00 0.951D-01
 Coeff:      0.278D+00 0.182D+00
 Gap=     0.001 Goal=   None    Shift=    0.000
 RMSDP=2.77D-02 MaxDP=2.83D-01 DE= 1.20D-02 OVMax= 1.78D-02

 Cycle  41  Pass 1  IDiag  1:
 E= -150.176784463445     Delta-E=       -0.011981163400 Rises=F Damp=F
 DIIS: error= 9.58D-03 at cycle   9 NSaved=   9.
 NSaved= 9 IEnMin= 5 EnMin= -150.176853494632     IErMin= 5 ErrMin= 9.15D-03
 ErrMax= 9.58D-03  0.00D+00 EMaxC= 1.00D-01 BMatC= 1.30D-03 BMatP= 1.19D-03
 IDIUse=3 WtCom= 9.08D-01 WtEn= 9.15D-02
 EnCoef did   100 forward-backward iterations
 Rare condition: small coef for last iteration:  0.000D+00
 Coeff-Com: -0.291D+00-0.141D+01-0.234D+01-0.345D+00 0.549D+01-0.188D+00
 Coeff-Com: -0.169D+00 0.265D+00-0.910D-02
 Coeff-En:   0.115D+00 0.000D+00 0.114D+00 0.115D+00 0.101D+00 0.953D-01
 Coeff-En:   0.314D-03 0.182D+00 0.277D+00
 Coeff:     -0.291D+00-0.141D+01-0.234D+01-0.345D+00 0.549D+01-0.188D+00
 Coeff:     -0.169D+00 0.265D+00-0.910D-02
 Gap=     0.048 Goal=   None    Shift=    0.000
 RMSDP=2.76D-02 MaxDP=2.82D-01 DE=-1.20D-02 OVMax= 1.27D-02

 Cycle  42  Pass 1  IDiag  1:
 E= -150.169853569402     Delta-E=        0.006930894043 Rises=F Damp=F
 DIIS: error= 2.86D-02 at cycle  10 NSaved=  10.
 NSaved=10 IEnMin= 5 EnMin= -150.176853494632     IErMin= 5 ErrMin= 9.15D-03
 ErrMax= 2.86D-02  0.00D+00 EMaxC= 1.00D-01 BMatC= 1.16D-02 BMatP= 1.19D-03
 IDIUse=2 WtCom= 0.00D+00 WtEn= 1.00D+00
 EnCoef did   100 forward-backward iterations
 Coeff-En:   0.204D+00 0.722D-03 0.341D+00 0.289D+00 0.160D+00 0.885D-03
 Coeff-En:   0.498D-04 0.000D+00 0.250D-04 0.531D-02
 Coeff:      0.204D+00 0.722D-03 0.341D+00 0.289D+00 0.160D+00 0.885D-03
 Coeff:      0.498D-04 0.000D+00 0.250D-04 0.531D-02
 Gap=     0.000 Goal=   None    Shift=    0.000
 RMSDP=2.75D-02 MaxDP=2.82D-01 DE= 6.93D-03 OVMax= 1.22D-02

 Cycle  43  Pass 1  IDiag  1:
 E= -150.176851073217     Delta-E=       -0.006997503815 Rises=F Damp=F
 DIIS: error= 9.16D-03 at cycle  11 NSaved=  11.
 NSaved=11 IEnMin= 5 EnMin= -150.176853494632     IErMin= 5 ErrMin= 9.15D-03
 ErrMax= 9.16D-03  0.00D+00 EMaxC= 1.00D-01 BMatC= 1.20D-03 BMatP= 1.19D-03
 IDIUse=3 WtCom= 9.08D-01 WtEn= 9.15D-02
 Large coefficients: NSaved= 11 BigCof=   99.78 CofMax=   10.00 Det=-2.03D-12
 Inversion failed.  Reducing to 10 matrices.
 Large coefficients: NSaved= 10 BigCof=   69.95 CofMax=   10.00 Det=-2.90D-12
 Inversion failed.  Reducing to  9 matrices.
 Large coefficients: NSaved=  9 BigCof=  137.17 CofMax=   10.00 Det=-7.51D-12
 Inversion failed.  Reducing to  8 matrices.
 Large coefficients: NSaved=  8 BigCof=  184.48 CofMax=   10.00 Det=-8.67D-12
 Inversion failed.  Reducing to  7 matrices.
 Large coefficients: NSaved=  7 BigCof=  221.70 CofMax=   10.00 Det=-1.01D-11
 Inversion failed.  Reducing to  6 matrices.
 Large coefficients: NSaved=  6 BigCof=   50.29 CofMax=   10.00 Det=-1.31D-10
 Inversion failed.  Reducing to  5 matrices.
 Large coefficients: NSaved=  5 BigCof=   29.21 CofMax=   10.00 Det=-1.74D-10
 Inversion failed.  Reducing to  4 matrices.
 Large coefficients: NSaved=  4 BigCof=   64.64 CofMax=   10.00 Det=-1.77D-10
 Inversion failed.  Reducing to  3 matrices.
 Coeff-Com:  0.603D+01 0.240D+00-0.527D+01
 Coeff-En:   0.000D+00 0.437D+00 0.563D+00
 Coeff:      0.548D+01 0.258D+00-0.474D+01
 Gap=     0.011 Goal=   None    Shift=    0.000
 RMSDP=2.73D-02 MaxDP=2.80D-01 DE=-7.00D-03 OVMax= 2.58D-03

 Cycle  44  Pass 1  IDiag  1:
 E= -150.175896960637     Delta-E=        0.000954112581 Rises=F Damp=F
 DIIS: error= 1.36D-02 at cycle  12 NSaved=   4.
 NSaved= 4 IEnMin= 1 EnMin= -150.176853494632     IErMin= 1 ErrMin= 9.15D-03
 ErrMax= 1.36D-02  0.00D+00 EMaxC= 1.00D-01 BMatC= 2.62D-03 BMatP= 1.19D-03
 IDIUse=2 WtCom= 0.00D+00 WtEn= 1.00D+00
 Coeff-En:   0.000D+00 0.000D+00 0.510D+00 0.490D+00
 Coeff:      0.000D+00 0.000D+00 0.510D+00 0.490D+00
 Gap=     0.000 Goal=   None    Shift=    0.000
 RMSDP=2.18D-04 MaxDP=2.10D-03 DE= 9.54D-04 OVMax= 2.54D-03

 Cycle  45  Pass 1  IDiag  1:
 E= -150.176834054328     Delta-E=       -0.000937093691 Rises=F Damp=F
 DIIS: error= 9.25D-03 at cycle  13 NSaved=   5.
 NSaved= 5 IEnMin= 1 EnMin= -150.176853494632     IErMin= 1 ErrMin= 9.15D-03
 ErrMax= 9.25D-03  0.00D+00 EMaxC= 1.00D-01 BMatC= 1.22D-03 BMatP= 1.19D-03
 IDIUse=3 WtCom= 9.08D-01 WtEn= 9.15D-02
 Coeff-Com: -0.551D+00 0.184D+00 0.550D+00-0.297D+01 0.379D+01
 Coeff-En:   0.000D+00 0.000D+00 0.500D+00 0.000D+00 0.500D+00
 Coeff:     -0.500D+00 0.167D+00 0.545D+00-0.270D+01 0.349D+01
 Gap=     0.021 Goal=   None    Shift=    0.000
 RMSDP=2.74D-02 MaxDP=2.80D-01 DE=-9.37D-04 OVMax= 5.69D-03

 Cycle  46  Pass 1  IDiag  1:
 E= -150.174714901043     Delta-E=        0.002119153285 Rises=F Damp=F
 DIIS: error= 1.75D-02 at cycle  14 NSaved=   6.
 NSaved= 6 IEnMin= 1 EnMin= -150.176853494632     IErMin= 1 ErrMin= 9.15D-03
 ErrMax= 1.75D-02  0.00D+00 EMaxC= 1.00D-01 BMatC= 4.38D-03 BMatP= 1.19D-03
 IDIUse=2 WtCom= 0.00D+00 WtEn= 1.00D+00
 Rare condition: small coef for last iteration:  0.000D+00
 Coeff-En:   0.000D+00 0.000D+00 0.247D-01 0.000D+00 0.508D+00 0.468D+00
 Coeff:      0.000D+00 0.000D+00 0.247D-01 0.000D+00 0.508D+00 0.468D+00
 Gap=     0.000 Goal=   None    Shift=    0.000
 RMSDP=2.74D-02 MaxDP=2.80D-01 DE= 2.12D-03 OVMax= 4.64D-03

 Cycle  47  Pass 1  IDiag  1:
 E= -150.176850440014     Delta-E=       -0.002135538971 Rises=F Damp=F
 DIIS: error= 9.19D-03 at cycle  15 NSaved=   7.
 NSaved= 7 IEnMin= 1 EnMin= -150.176853494632     IErMin= 1 ErrMin= 9.15D-03
 ErrMax= 9.19D-03  0.00D+00 EMaxC= 1.00D-01 BMatC= 1.20D-03 BMatP= 1.19D-03
 IDIUse=3 WtCom= 9.08D-01 WtEn= 9.15D-02
 EnCoef did   100 forward-backward iterations
 Rare condition: small coef for last iteration:  0.000D+00
 Coeff-Com: -0.751D+01 0.256D+00 0.835D+01-0.243D+01 0.250D+01-0.445D+00
 Coeff-Com:  0.287D+00
 Coeff-En:   0.000D+00 0.000D+00 0.248D-01 0.000D+00 0.205D-03 0.467D+00
 Coeff-En:   0.508D+00
 Coeff:     -0.751D+01 0.256D+00 0.835D+01-0.243D+01 0.250D+01-0.445D+00
 Coeff:      0.287D+00
 Gap=     0.005 Goal=   None    Shift=    0.000
 RMSDP=2.73D-02 MaxDP=2.80D-01 DE=-2.14D-03 OVMax= 2.21D-03

 Cycle  48  Pass 1  IDiag  1:
 E= -150.176474459205     Delta-E=        0.000375980809 Rises=F Damp=F
 DIIS: error= 1.11D-02 at cycle  16 NSaved=   8.
 NSaved= 8 IEnMin= 1 EnMin= -150.176853494632     IErMin= 1 ErrMin= 9.15D-03
 ErrMax= 1.11D-02  0.00D+00 EMaxC= 1.00D-01 BMatC= 1.75D-03 BMatP= 1.19D-03
 IDIUse=2 WtCom= 0.00D+00 WtEn= 1.00D+00
 EnCoef did   100 forward-backward iterations
 Coeff-En:   0.000D+00 0.000D+00 0.117D+00 0.000D+00 0.142D+00 0.000D+00
 Coeff-En:   0.361D+00 0.380D+00
 Coeff:      0.000D+00 0.000D+00 0.117D+00 0.000D+00 0.142D+00 0.000D+00
 Coeff:      0.361D+00 0.380D+00
 Gap=     0.000 Goal=   None    Shift=    0.000
 RMSDP=2.73D-02 MaxDP=2.79D-01 DE= 3.76D-04 OVMax= 1.06D-03

 Cycle  49  Pass 1  IDiag  1:
 E= -150.176853103407     Delta-E=       -0.000378644202 Rises=F Damp=F
 DIIS: error= 9.15D-03 at cycle  17 NSaved=   9.
 NSaved= 9 IEnMin= 1 EnMin= -150.176853494632     IErMin= 9 ErrMin= 9.15D-03
 ErrMax= 9.15D-03  0.00D+00 EMaxC= 1.00D-01 BMatC= 1.19D-03 BMatP= 1.19D-03
 IDIUse=3 WtCom= 9.08D-01 WtEn= 9.15D-02
 EnCoef did   100 forward-backward iterations
 Rare condition: small coef for last iteration: -0.402D-15
 Coeff-Com: -0.185D+00 0.335D+00 0.395D+00-0.208D+01 0.202D+01-0.122D+01
 Coeff-Com:  0.553D+00 0.174D+01-0.574D+00
 Coeff-En:   0.000D+00 0.000D+00 0.127D-02 0.000D+00 0.000D+00 0.000D+00
 Coeff-En:   0.000D+00 0.496D+00 0.503D+00
 Coeff:     -0.185D+00 0.335D+00 0.395D+00-0.208D+01 0.202D+01-0.122D+01
 Coeff:      0.553D+00 0.174D+01-0.574D+00
 Gap=     0.011 Goal=   None    Shift=    0.000
 RMSDP=2.37D-04 MaxDP=2.05D-03 DE=-3.79D-04 OVMax= 3.22D-03

 Cycle  50  Pass 1  IDiag  1:
 E= -150.175891543357     Delta-E=        0.000961560050 Rises=F Damp=F
 DIIS: error= 1.35D-02 at cycle  18 NSaved=  10.
 NSaved=10 IEnMin= 1 EnMin= -150.176853494632     IErMin= 9 ErrMin= 9.15D-03
 ErrMax= 1.35D-02  0.00D+00 EMaxC= 1.00D-01 BMatC= 2.62D-03 BMatP= 1.19D-03
 IDIUse=2 WtCom= 0.00D+00 WtEn= 1.00D+00
 EnCoef did   100 forward-backward iterations
 Rare condition: small coef for last iteration:  0.000D+00
 Coeff-En:   0.000D+00 0.000D+00 0.876D-02 0.000D+00 0.152D-03 0.000D+00
 Coeff-En:   0.708D-02 0.498D+00 0.000D+00 0.486D+00
 Coeff:      0.000D+00 0.000D+00 0.876D-02 0.000D+00 0.152D-03 0.000D+00
 Coeff:      0.708D-02 0.498D+00 0.000D+00 0.486D+00
 Gap=     0.000 Goal=   None    Shift=    0.000
 RMSDP=2.50D-04 MaxDP=2.03D-03 DE= 9.62D-04 OVMax= 3.85D-03

 Cycle  51  Pass 1  IDiag  1:
 E= -150.176838376563     Delta-E=       -0.000946833206 Rises=F Damp=F
 DIIS: error= 9.23D-03 at cycle  19 NSaved=  11.
 NSaved=11 IEnMin= 1 EnMin= -150.176853494632     IErMin= 9 ErrMin= 9.15D-03
 ErrMax= 9.23D-03  0.00D+00 EMaxC= 1.00D-01 BMatC= 1.22D-03 BMatP= 1.19D-03
 IDIUse=3 WtCom= 9.08D-01 WtEn= 9.15D-02
 Large coefficients: NSaved= 11 BigCof=   25.55 CofMax=   10.00 Det=-2.44D-11
 Inversion failed.  Reducing to 10 matrices.
 Large coefficients: NSaved= 10 BigCof=   21.67 CofMax=   10.00 Det=-2.91D-11
 Inversion failed.  Reducing to  9 matrices.
 Large coefficients: NSaved=  9 BigCof=   12.35 CofMax=   10.00 Det=-3.76D-11
 Inversion failed.  Reducing to  8 matrices.
 Large coefficients: NSaved=  8 BigCof=   33.54 CofMax=   10.00 Det=-1.27D-10
 Inversion failed.  Reducing to  7 matrices.
 Large coefficients: NSaved=  7 BigCof=   15.13 CofMax=   10.00 Det=-5.14D-09
 Inversion failed.  Reducing to  6 matrices.
 EnCoef did   100 forward-backward iterations
 Coeff-Com: -0.143D+00 0.195D+00-0.204D+01 0.529D+01-0.185D+01-0.449D+00
 Coeff-En:   0.000D+00 0.500D+00 0.378D-03 0.944D-01 0.000D+00 0.405D+00
 Coeff:     -0.130D+00 0.223D+00-0.185D+01 0.481D+01-0.168D+01-0.371D+00
 Gap=     0.018 Goal=   None    Shift=    0.000
 RMSDP=2.74D-02 MaxDP=2.80D-01 DE=-9.47D-04 OVMax= 5.79D-03

 Cycle  52  Pass 1  IDiag  1:
 E= -150.174998207272     Delta-E=        0.001840169290 Rises=F Damp=F
 DIIS: error= 1.66D-02 at cycle  20 NSaved=   7.
 NSaved= 7 IEnMin= 1 EnMin= -150.176853494632     IErMin= 4 ErrMin= 9.15D-03
 ErrMax= 1.66D-02  0.00D+00 EMaxC= 1.00D-01 BMatC= 3.96D-03 BMatP= 1.19D-03
 IDIUse=2 WtCom= 0.00D+00 WtEn= 1.00D+00
 EnCoef did   100 forward-backward iterations
 Rare condition: small coef for last iteration: -0.617D-15
 Coeff-En:   0.000D+00 0.203D-01 0.000D+00 0.444D-03 0.000D+00 0.507D+00
 Coeff-En:   0.472D+00
 Coeff:      0.000D+00 0.203D-01 0.000D+00 0.444D-03 0.000D+00 0.507D+00
 Coeff:      0.472D+00
 Gap=     0.000 Goal=   None    Shift=    0.000
 RMSDP=2.74D-02 MaxDP=2.80D-01 DE= 1.84D-03 OVMax= 4.17D-03

 Cycle  53  Pass 1  IDiag  1:
 E= -150.176851667885     Delta-E=       -0.001853460612 Rises=F Damp=F
 DIIS: error= 9.18D-03 at cycle  21 NSaved=   8.
 NSaved= 8 IEnMin= 1 EnMin= -150.176853494632     IErMin= 4 ErrMin= 9.15D-03
 ErrMax= 9.18D-03  0.00D+00 EMaxC= 1.00D-01 BMatC= 1.20D-03 BMatP= 1.19D-03
 IDIUse=3 WtCom= 9.08D-01 WtEn= 9.15D-02
 Large coefficients: NSaved=  8 BigCof=   30.09 CofMax=   10.00 Det=-1.69D-10
 Inversion failed.  Reducing to  7 matrices.
 Large coefficients: NSaved=  7 BigCof=   21.59 CofMax=   10.00 Det=-6.19D-09
 Inversion failed.  Reducing to  6 matrices.
 Large coefficients: NSaved=  6 BigCof=   21.57 CofMax=   10.00 Det=-6.19D-09
 Inversion failed.  Reducing to  5 matrices.
 Large coefficients: NSaved=  5 BigCof=   18.85 CofMax=   10.00 Det=-8.76D-09
 Inversion failed.  Reducing to  4 matrices.
 EnCoef did   100 forward-backward iterations
 Coeff-Com:  0.132D+01 0.397D+01-0.581D+00-0.371D+01
 Coeff-En:   0.488D+00 0.180D+00 0.116D-01 0.320D+00
 Coeff:      0.124D+01 0.363D+01-0.527D+00-0.334D+01
 Gap=     0.010 Goal=   None    Shift=    0.000
 RMSDP=2.15D-04 MaxDP=1.84D-03 DE=-1.85D-03 OVMax= 2.99D-03

 Cycle  54  Pass 1  IDiag  1:
 E= -150.176010931799     Delta-E=        0.000840736086 Rises=F Damp=F
 DIIS: error= 1.31D-02 at cycle  22 NSaved=   5.
 NSaved= 5 IEnMin= 1 EnMin= -150.176853494632     IErMin= 2 ErrMin= 9.15D-03
 ErrMax= 1.31D-02  0.00D+00 EMaxC= 1.00D-01 BMatC= 2.44D-03 BMatP= 1.19D-03
 IDIUse=2 WtCom= 0.00D+00 WtEn= 1.00D+00
 EnCoef did   100 forward-backward iterations
 Rare condition: small coef for last iteration: -0.140D-14
 Coeff-En:   0.269D-01 0.639D-02 0.474D+00 0.000D+00 0.493D+00
 Coeff:      0.269D-01 0.639D-02 0.474D+00 0.000D+00 0.493D+00
 Gap=     0.000 Goal=   None    Shift=    0.000
 RMSDP=2.32D-04 MaxDP=1.94D-03 DE= 8.41D-04 OVMax= 3.68D-03

 Cycle  55  Pass 1  IDiag  1:
 E= -150.176835787375     Delta-E=       -0.000824855576 Rises=F Damp=F
 DIIS: error= 9.25D-03 at cycle  23 NSaved=   6.
 NSaved= 6 IEnMin= 1 EnMin= -150.176853494632     IErMin= 2 ErrMin= 9.15D-03
 ErrMax= 9.25D-03  0.00D+00 EMaxC= 1.00D-01 BMatC= 1.22D-03 BMatP= 1.19D-03
 IDIUse=3 WtCom= 9.08D-01 WtEn= 9.15D-02
 EnCoef did   100 forward-backward iterations
 Coeff-Com:  0.137D-01 0.578D+01 0.445D-02-0.110D+01-0.220D+01-0.149D+01
 Coeff-En:   0.496D+00 0.208D+00 0.358D-02 0.472D-01 0.000D+00 0.245D+00
 Coeff:      0.578D-01 0.527D+01 0.437D-02-0.999D+00-0.199D+01-0.133D+01
 Gap=     0.020 Goal=   None    Shift=    0.000
 RMSDP=2.74D-02 MaxDP=2.80D-01 DE=-8.25D-04 OVMax= 6.30D-03

 Cycle  56  Pass 1  IDiag  1:
 E= -150.174819193762     Delta-E=        0.002016593613 Rises=F Damp=F
 DIIS: error= 1.72D-02 at cycle  24 NSaved=   7.
 NSaved= 7 IEnMin= 1 EnMin= -150.176853494632     IErMin= 2 ErrMin= 9.15D-03
 ErrMax= 1.72D-02  0.00D+00 EMaxC= 1.00D-01 BMatC= 4.22D-03 BMatP= 1.19D-03
 IDIUse=2 WtCom= 0.00D+00 WtEn= 1.00D+00
 EnCoef did   100 forward-backward iterations
 Rare condition: small coef for last iteration:  0.243D-14
 Coeff-En:   0.233D-01 0.352D-02 0.322D-02 0.539D-03 0.000D+00 0.504D+00
 Coeff-En:   0.466D+00
 Coeff:      0.233D-01 0.352D-02 0.322D-02 0.539D-03 0.000D+00 0.504D+00
 Coeff:      0.466D+00
 Gap=     0.000 Goal=   None    Shift=    0.000
 RMSDP=2.74D-02 MaxDP=2.80D-01 DE= 2.02D-03 OVMax= 4.57D-03

 Cycle  57  Pass 1  IDiag  1:
 E= -150.176850022309     Delta-E=       -0.002030828547 Rises=F Damp=F
 DIIS: error= 9.19D-03 at cycle  25 NSaved=   8.
 NSaved= 8 IEnMin= 1 EnMin= -150.176853494632     IErMin= 2 ErrMin= 9.15D-03
 ErrMax= 9.19D-03  0.00D+00 EMaxC= 1.00D-01 BMatC= 1.20D-03 BMatP= 1.19D-03
 IDIUse=3 WtCom= 9.08D-01 WtEn= 9.15D-02
 Large coefficients: NSaved=  8 BigCof=   10.88 CofMax=   10.00 Det=-4.69D-10
 Inversion failed.  Reducing to  7 matrices.
 Large coefficients: NSaved=  7 BigCof=   10.51 CofMax=   10.00 Det=-1.45D-09
 Inversion failed.  Reducing to  6 matrices.
 EnCoef did   100 forward-backward iterations
 Coeff-Com:  0.135D+01 0.149D+01 0.572D+01-0.941D+00-0.595D+00-0.602D+01
 Coeff-En:   0.490D+00 0.183D+00 0.000D+00 0.000D+00 0.957D-02 0.317D+00
 Coeff:      0.127D+01 0.137D+01 0.520D+01-0.855D+00-0.540D+00-0.544D+01
 Gap=     0.010 Goal=   None    Shift=    0.000
 RMSDP=2.29D-04 MaxDP=2.06D-03 DE=-2.03D-03 OVMax= 3.08D-03

 Cycle  58  Pass 1  IDiag  1:
 E= -150.175931675927     Delta-E=        0.000918346382 Rises=F Damp=F
 DIIS: error= 1.34D-02 at cycle  26 NSaved=   7.
 NSaved= 7 IEnMin= 1 EnMin= -150.176853494632     IErMin= 2 ErrMin= 9.15D-03
 ErrMax= 1.34D-02  0.00D+00 EMaxC= 1.00D-01 BMatC= 2.56D-03 BMatP= 1.19D-03
 IDIUse=2 WtCom= 0.00D+00 WtEn= 1.00D+00
 EnCoef did   100 forward-backward iterations
 Rare condition: small coef for last iteration: -0.121D-14
 Coeff-En:   0.309D-01 0.000D+00 0.272D-03 0.715D-02 0.471D+00 0.000D+00
 Coeff-En:   0.491D+00
 Coeff:      0.309D-01 0.000D+00 0.272D-03 0.715D-02 0.471D+00 0.000D+00
 Coeff:      0.491D+00
 Gap=     0.000 Goal=   None    Shift=    0.000
 RMSDP=2.45D-04 MaxDP=1.99D-03 DE= 9.18D-04 OVMax= 3.82D-03

 Cycle  59  Pass 1  IDiag  1:
 E= -150.176832878892     Delta-E=       -0.000901202965 Rises=F Damp=F
 DIIS: error= 9.27D-03 at cycle  27 NSaved=   8.
 NSaved= 8 IEnMin= 1 EnMin= -150.176853494632     IErMin= 2 ErrMin= 9.15D-03
 ErrMax= 9.27D-03  0.00D+00 EMaxC= 1.00D-01 BMatC= 1.23D-03 BMatP= 1.19D-03
 IDIUse=3 WtCom= 9.08D-01 WtEn= 9.15D-02
 Large coefficients: NSaved=  8 BigCof=   46.80 CofMax=   10.00 Det=-1.18D-10
 Inversion failed.  Reducing to  7 matrices.
 Large coefficients: NSaved=  7 BigCof=   46.74 CofMax=   10.00 Det=-1.18D-10
 Inversion failed.  Reducing to  6 matrices.
 EnCoef did   100 forward-backward iterations
 Coeff-Com:  0.138D-01 0.681D+01-0.472D+00-0.201D+01-0.205D+01-0.130D+01
 Coeff-En:   0.500D+00 0.651D-01 0.000D+00 0.717D-01 0.000D+00 0.363D+00
 Coeff:      0.583D-01 0.620D+01-0.429D+00-0.182D+01-0.186D+01-0.114D+01
 Gap=     0.020 Goal=   None    Shift=    0.000
 RMSDP=2.74D-02 MaxDP=2.80D-01 DE=-9.01D-04 OVMax= 6.35D-03

 Cycle  60  Pass 1  IDiag  1:
 E= -150.174795582790     Delta-E=        0.002037296102 Rises=F Damp=F
 DIIS: error= 1.73D-02 at cycle  28 NSaved=   7.
 NSaved= 7 IEnMin= 1 EnMin= -150.176853494632     IErMin= 2 ErrMin= 9.15D-03
 ErrMax= 1.73D-02  0.00D+00 EMaxC= 1.00D-01 BMatC= 4.26D-03 BMatP= 1.19D-03
 IDIUse=2 WtCom= 0.00D+00 WtEn= 1.00D+00
 EnCoef did   100 forward-backward iterations
 Rare condition: small coef for last iteration:  0.102D-15
 Coeff-En:   0.237D-01 0.000D+00 0.000D+00 0.577D-03 0.000D+00 0.507D+00
 Coeff-En:   0.468D+00
 Coeff:      0.237D-01 0.000D+00 0.000D+00 0.577D-03 0.000D+00 0.507D+00
 Coeff:      0.468D+00
 Gap=     0.000 Goal=   None    Shift=    0.000
 RMSDP=2.74D-02 MaxDP=2.80D-01 DE= 2.04D-03 OVMax= 4.62D-03

 Cycle  61  Pass 1  IDiag  1:
 E= -150.176849762953     Delta-E=       -0.002054180163 Rises=F Damp=F
 DIIS: error= 9.19D-03 at cycle  29 NSaved=   8.
 NSaved= 8 IEnMin= 1 EnMin= -150.176853494632     IErMin= 2 ErrMin= 9.15D-03
 ErrMax= 9.19D-03  0.00D+00 EMaxC= 1.00D-01 BMatC= 1.20D-03 BMatP= 1.19D-03
 IDIUse=3 WtCom= 9.08D-01 WtEn= 9.15D-02
 Large coefficients: NSaved=  8 BigCof=   92.36 CofMax=   10.00 Det=-3.87D-11
 Inversion failed.  Reducing to  7 matrices.
 Large coefficients: NSaved=  7 BigCof=  169.21 CofMax=   10.00 Det=-4.18D-11
 Inversion failed.  Reducing to  6 matrices.
 EnCoef did   100 forward-backward iterations
 Coeff-Com:  0.135D+01 0.206D+01-0.629D+01-0.380D+01-0.591D+00 0.827D+01
 Coeff-En:   0.488D+00 0.180D+00 0.000D+00 0.713D-03 0.121D-01 0.320D+00
 Coeff:      0.127D+01 0.188D+01-0.571D+01-0.346D+01-0.536D+00 0.755D+01
 Gap=     0.011 Goal=   None    Shift=    0.000
 RMSDP=2.37D-04 MaxDP=2.13D-03 DE=-2.05D-03 OVMax= 3.18D-03

 Cycle  62  Pass 1  IDiag  1:
 E= -150.175892529419     Delta-E=        0.000957233534 Rises=F Damp=F
 DIIS: error= 1.35D-02 at cycle  30 NSaved=   7.
 NSaved= 7 IEnMin= 1 EnMin= -150.176853494632     IErMin= 2 ErrMin= 9.15D-03
 ErrMax= 1.35D-02  0.00D+00 EMaxC= 1.00D-01 BMatC= 2.62D-03 BMatP= 1.19D-03
 IDIUse=2 WtCom= 0.00D+00 WtEn= 1.00D+00
 EnCoef did   100 forward-backward iterations
 Rare condition: small coef for last iteration:  0.888D-15
 Coeff-En:   0.319D-01 0.000D+00 0.000D+00 0.793D-02 0.470D+00 0.000D+00
 Coeff-En:   0.490D+00
 Coeff:      0.319D-01 0.000D+00 0.000D+00 0.793D-02 0.470D+00 0.000D+00
 Coeff:      0.490D+00
 Gap=     0.000 Goal=   None    Shift=    0.000
 RMSDP=2.53D-04 MaxDP=2.05D-03 DE= 9.57D-04 OVMax= 3.94D-03

 Cycle  63  Pass 1  IDiag  1:
 E= -150.176831743152     Delta-E=       -0.000939213733 Rises=F Damp=F
 DIIS: error= 9.27D-03 at cycle  31 NSaved=   8.
 NSaved= 8 IEnMin= 1 EnMin= -150.176853494632     IErMin= 2 ErrMin= 9.15D-03
 ErrMax= 9.27D-03  0.00D+00 EMaxC= 1.00D-01 BMatC= 1.23D-03 BMatP= 1.19D-03
 IDIUse=3 WtCom= 9.08D-01 WtEn= 9.15D-02
 Large coefficients: NSaved=  8 BigCof=   82.07 CofMax=   10.00 Det=-3.96D-11
 Inversion failed.  Reducing to  7 matrices.
 Large coefficients: NSaved=  7 BigCof=   82.15 CofMax=   10.00 Det=-3.96D-11
 Inversion failed.  Reducing to  6 matrices.
 EnCoef did   100 forward-backward iterations
 Coeff-Com:  0.114D-01 0.643D+01 0.335D+01-0.528D+01-0.198D+01-0.154D+01
 Coeff-En:   0.500D+00 0.664D-01 0.000D+00 0.735D-01 0.000D+00 0.360D+00
 Coeff:      0.562D-01 0.585D+01 0.305D+01-0.479D+01-0.180D+01-0.136D+01
 Gap=     0.020 Goal=   None    Shift=    0.000
 RMSDP=2.74D-02 MaxDP=2.80D-01 DE=-9.39D-04 OVMax= 6.40D-03

 Cycle  64  Pass 1  IDiag  1:
 E= -150.174782534459     Delta-E=        0.002049208693 Rises=F Damp=F
 DIIS: error= 1.73D-02 at cycle  32 NSaved=   7.
 NSaved= 7 IEnMin= 1 EnMin= -150.176853494632     IErMin= 2 ErrMin= 9.15D-03
 ErrMax= 1.73D-02  0.00D+00 EMaxC= 1.00D-01 BMatC= 4.28D-03 BMatP= 1.19D-03
 IDIUse=2 WtCom= 0.00D+00 WtEn= 1.00D+00
 EnCoef did   100 forward-backward iterations
 Rare condition: small coef for last iteration:  0.102D-14
 Coeff-En:   0.240D-01 0.000D+00 0.000D+00 0.594D-03 0.000D+00 0.507D+00
 Coeff-En:   0.468D+00
 Coeff:      0.240D-01 0.000D+00 0.000D+00 0.594D-03 0.000D+00 0.507D+00
 Coeff:      0.468D+00
 Gap=     0.000 Goal=   None    Shift=    0.000
 RMSDP=2.74D-02 MaxDP=2.80D-01 DE= 2.05D-03 OVMax= 4.66D-03

 Cycle  65  Pass 1  IDiag  1:
 E= -150.176849585866     Delta-E=       -0.002067051407 Rises=F Damp=F
 DIIS: error= 9.19D-03 at cycle  33 NSaved=   8.
 NSaved= 8 IEnMin= 1 EnMin= -150.176853494632     IErMin= 2 ErrMin= 9.15D-03
 ErrMax= 9.19D-03  0.00D+00 EMaxC= 1.00D-01 BMatC= 1.20D-03 BMatP= 1.19D-03
 IDIUse=3 WtCom= 9.08D-01 WtEn= 9.15D-02
 Large coefficients: NSaved=  8 BigCof=   80.43 CofMax=   10.00 Det=-5.98D-11
 Inversion failed.  Reducing to  7 matrices.
 Large coefficients: NSaved=  7 BigCof=  148.92 CofMax=   10.00 Det=-6.38D-11
 Inversion failed.  Reducing to  6 matrices.
 EnCoef did   100 forward-backward iterations
 Coeff-Com:  0.135D+01 0.202D+01-0.529D+01-0.497D+01-0.589D+00 0.847D+01
 Coeff-En:   0.496D+00 0.155D+00 0.000D+00 0.802D-03 0.392D-02 0.344D+00
 Coeff:      0.127D+01 0.185D+01-0.480D+01-0.451D+01-0.535D+00 0.773D+01
 Gap=     0.011 Goal=   None    Shift=    0.000
 RMSDP=2.37D-04 MaxDP=2.13D-03 DE=-2.07D-03 OVMax= 3.18D-03

 Cycle  66  Pass 1  IDiag  1:
 E= -150.175890301039     Delta-E=        0.000959284827 Rises=F Damp=F
 DIIS: error= 1.36D-02 at cycle  34 NSaved=   7.
 NSaved= 7 IEnMin= 1 EnMin= -150.176853494632     IErMin= 2 ErrMin= 9.15D-03
 ErrMax= 1.36D-02  0.00D+00 EMaxC= 1.00D-01 BMatC= 2.62D-03 BMatP= 1.19D-03
 IDIUse=2 WtCom= 0.00D+00 WtEn= 1.00D+00
 EnCoef did   100 forward-backward iterations
 Rare condition: small coef for last iteration:  0.213D-15
 Coeff-En:   0.321D-01 0.000D+00 0.000D+00 0.797D-02 0.470D+00 0.000D+00
 Coeff-En:   0.490D+00
 Coeff:      0.321D-01 0.000D+00 0.000D+00 0.797D-02 0.470D+00 0.000D+00
 Coeff:      0.490D+00
 Gap=     0.000 Goal=   None    Shift=    0.000
 RMSDP=2.53D-04 MaxDP=2.06D-03 DE= 9.59D-04 OVMax= 3.94D-03

 Cycle  67  Pass 1  IDiag  1:
 E= -150.176831570487     Delta-E=       -0.000941269448 Rises=F Damp=F
 DIIS: error= 9.27D-03 at cycle  35 NSaved=   8.
 NSaved= 8 IEnMin= 1 EnMin= -150.176853494632     IErMin= 2 ErrMin= 9.15D-03
 ErrMax= 9.27D-03  0.00D+00 EMaxC= 1.00D-01 BMatC= 1.23D-03 BMatP= 1.19D-03
 IDIUse=3 WtCom= 9.08D-01 WtEn= 9.15D-02
 Large coefficients: NSaved=  8 BigCof=   80.48 CofMax=   10.00 Det=-5.97D-11
 Inversion failed.  Reducing to  7 matrices.
 Large coefficients: NSaved=  7 BigCof=   80.55 CofMax=   10.00 Det=-5.97D-11
 Inversion failed.  Reducing to  6 matrices.
 EnCoef did   100 forward-backward iterations
 Coeff-Com:  0.114D-01 0.642D+01 0.340D+01-0.532D+01-0.197D+01-0.154D+01
 Coeff-En:   0.500D+00 0.665D-01 0.000D+00 0.738D-01 0.000D+00 0.360D+00
 Coeff:      0.562D-01 0.584D+01 0.309D+01-0.483D+01-0.179D+01-0.136D+01
 Gap=     0.020 Goal=   None    Shift=    0.000
 RMSDP=2.74D-02 MaxDP=2.80D-01 DE=-9.41D-04 OVMax= 6.40D-03

 Cycle  68  Pass 1  IDiag  1:
 E= -150.174782539571     Delta-E=        0.002049030916 Rises=F Damp=F
 DIIS: error= 1.73D-02 at cycle  36 NSaved=   7.
 NSaved= 7 IEnMin= 1 EnMin= -150.176853494632     IErMin= 2 ErrMin= 9.15D-03
 ErrMax= 1.73D-02  0.00D+00 EMaxC= 1.00D-01 BMatC= 4.28D-03 BMatP= 1.19D-03
 IDIUse=2 WtCom= 0.00D+00 WtEn= 1.00D+00
 EnCoef did   100 forward-backward iterations
 Rare condition: small coef for last iteration:  0.203D-15
 Coeff-En:   0.240D-01 0.000D+00 0.000D+00 0.597D-03 0.000D+00 0.507D+00
 Coeff-En:   0.468D+00
 Coeff:      0.240D-01 0.000D+00 0.000D+00 0.597D-03 0.000D+00 0.507D+00
 Coeff:      0.468D+00
 Gap=     0.000 Goal=   None    Shift=    0.000
 RMSDP=2.74D-02 MaxDP=2.80D-01 DE= 2.05D-03 OVMax= 4.66D-03

 Cycle  69  Pass 1  IDiag  1:
 E= -150.176849574104     Delta-E=       -0.002067034533 Rises=F Damp=F
 DIIS: error= 9.19D-03 at cycle  37 NSaved=   8.
 NSaved= 8 IEnMin= 1 EnMin= -150.176853494632     IErMin= 2 ErrMin= 9.15D-03
 ErrMax= 9.19D-03  0.00D+00 EMaxC= 1.00D-01 BMatC= 1.20D-03 BMatP= 1.19D-03
 IDIUse=3 WtCom= 9.08D-01 WtEn= 9.15D-02
 Large coefficients: NSaved=  8 BigCof=   78.42 CofMax=   10.00 Det=-6.27D-11
 Inversion failed.  Reducing to  7 matrices.
 Large coefficients: NSaved=  7 BigCof=  144.24 CofMax=   10.00 Det=-6.68D-11
 Inversion failed.  Reducing to  6 matrices.
 EnCoef did   100 forward-backward iterations
 Coeff-Com:  0.135D+01 0.201D+01-0.516D+01-0.494D+01-0.589D+00 0.833D+01
 Coeff-En:   0.496D+00 0.155D+00 0.000D+00 0.806D-03 0.393D-02 0.344D+00
 Coeff:      0.127D+01 0.184D+01-0.469D+01-0.449D+01-0.535D+00 0.760D+01
 Gap=     0.011 Goal=   None    Shift=    0.000
 RMSDP=2.37D-04 MaxDP=2.13D-03 DE=-2.07D-03 OVMax= 3.18D-03

 Cycle  70  Pass 1  IDiag  1:
 E= -150.175890615295     Delta-E=        0.000958958809 Rises=F Damp=F
 DIIS: error= 1.36D-02 at cycle  38 NSaved=   7.
 NSaved= 7 IEnMin= 1 EnMin= -150.176853494632     IErMin= 2 ErrMin= 9.15D-03
 ErrMax= 1.36D-02  0.00D+00 EMaxC= 1.00D-01 BMatC= 2.62D-03 BMatP= 1.19D-03
 IDIUse=2 WtCom= 0.00D+00 WtEn= 1.00D+00
 EnCoef did   100 forward-backward iterations
 Rare condition: small coef for last iteration: -0.191D-14
 Coeff-En:   0.321D-01 0.000D+00 0.000D+00 0.796D-02 0.470D+00 0.000D+00
 Coeff-En:   0.490D+00
 Coeff:      0.321D-01 0.000D+00 0.000D+00 0.796D-02 0.470D+00 0.000D+00
 Coeff:      0.490D+00
 Gap=     0.000 Goal=   None    Shift=    0.000
 RMSDP=2.53D-04 MaxDP=2.06D-03 DE= 9.59D-04 OVMax= 3.94D-03

 Cycle  71  Pass 1  IDiag  1:
 E= -150.176831577593     Delta-E=       -0.000940962298 Rises=F Damp=F
 DIIS: error= 9.27D-03 at cycle  39 NSaved=   8.
 NSaved= 8 IEnMin= 1 EnMin= -150.176853494632     IErMin= 2 ErrMin= 9.15D-03
 ErrMax= 9.27D-03  0.00D+00 EMaxC= 1.00D-01 BMatC= 1.23D-03 BMatP= 1.19D-03
 IDIUse=3 WtCom= 9.08D-01 WtEn= 9.15D-02
 Large coefficients: NSaved=  8 BigCof=   78.45 CofMax=   10.00 Det=-6.27D-11
 Inversion failed.  Reducing to  7 matrices.
 Large coefficients: NSaved=  7 BigCof=   78.52 CofMax=   10.00 Det=-6.27D-11
 Inversion failed.  Reducing to  6 matrices.
 EnCoef did   100 forward-backward iterations
 Coeff-Com:  0.114D-01 0.642D+01 0.338D+01-0.531D+01-0.197D+01-0.154D+01
 Coeff-En:   0.500D+00 0.665D-01 0.000D+00 0.738D-01 0.000D+00 0.360D+00
 Coeff:      0.562D-01 0.584D+01 0.307D+01-0.481D+01-0.179D+01-0.136D+01
 Gap=     0.020 Goal=   None    Shift=    0.000
 RMSDP=2.74D-02 MaxDP=2.80D-01 DE=-9.41D-04 OVMax= 6.40D-03

 Cycle  72  Pass 1  IDiag  1:
 E= -150.174782633845     Delta-E=        0.002048943748 Rises=F Damp=F
 DIIS: error= 1.73D-02 at cycle  40 NSaved=   7.
 NSaved= 7 IEnMin= 1 EnMin= -150.176853494632     IErMin= 2 ErrMin= 9.15D-03
 ErrMax= 1.73D-02  0.00D+00 EMaxC= 1.00D-01 BMatC= 4.28D-03 BMatP= 1.19D-03
 IDIUse=2 WtCom= 0.00D+00 WtEn= 1.00D+00
 EnCoef did   100 forward-backward iterations
 Rare condition: small coef for last iteration: -0.203D-15
 Coeff-En:   0.240D-01 0.000D+00 0.000D+00 0.597D-03 0.000D+00 0.507D+00
 Coeff-En:   0.468D+00
 Coeff:      0.240D-01 0.000D+00 0.000D+00 0.597D-03 0.000D+00 0.507D+00
 Coeff:      0.468D+00
 Gap=     0.000 Goal=   None    Shift=    0.000
 RMSDP=2.74D-02 MaxDP=2.80D-01 DE= 2.05D-03 OVMax= 4.66D-03

 Cycle  73  Pass 1  IDiag  1:
 E= -150.176849575203     Delta-E=       -0.002066941359 Rises=F Damp=F
 DIIS: error= 9.19D-03 at cycle  41 NSaved=   8.
 NSaved= 8 IEnMin= 1 EnMin= -150.176853494632     IErMin= 2 ErrMin= 9.15D-03
 ErrMax= 9.19D-03  0.00D+00 EMaxC= 1.00D-01 BMatC= 1.20D-03 BMatP= 1.19D-03
 IDIUse=3 WtCom= 9.08D-01 WtEn= 9.15D-02
 Large coefficients: NSaved=  8 BigCof=   78.58 CofMax=   10.00 Det=-6.26D-11
 Inversion failed.  Reducing to  7 matrices.
 Large coefficients: NSaved=  7 BigCof=  144.49 CofMax=   10.00 Det=-6.67D-11
 Inversion failed.  Reducing to  6 matrices.
 EnCoef did   100 forward-backward iterations
 Coeff-Com:  0.135D+01 0.201D+01-0.516D+01-0.495D+01-0.589D+00 0.834D+01
 Coeff-En:   0.496D+00 0.156D+00 0.000D+00 0.805D-03 0.399D-02 0.344D+00
 Coeff:      0.127D+01 0.184D+01-0.469D+01-0.450D+01-0.535D+00 0.761D+01
 Gap=     0.011 Goal=   None    Shift=    0.000
 RMSDP=2.37D-04 MaxDP=2.13D-03 DE=-2.07D-03 OVMax= 3.18D-03

 Cycle  74  Pass 1  IDiag  1:
 E= -150.175890632077     Delta-E=        0.000958943127 Rises=F Damp=F
 DIIS: error= 1.36D-02 at cycle  42 NSaved=   7.
 NSaved= 7 IEnMin= 1 EnMin= -150.176853494632     IErMin= 2 ErrMin= 9.15D-03
 ErrMax= 1.36D-02  0.00D+00 EMaxC= 1.00D-01 BMatC= 2.62D-03 BMatP= 1.19D-03
 IDIUse=2 WtCom= 0.00D+00 WtEn= 1.00D+00
 EnCoef did   100 forward-backward iterations
 Rare condition: small coef for last iteration: -0.213D-15
 Coeff-En:   0.321D-01 0.000D+00 0.000D+00 0.796D-02 0.470D+00 0.000D+00
 Coeff-En:   0.490D+00
 Coeff:      0.321D-01 0.000D+00 0.000D+00 0.796D-02 0.470D+00 0.000D+00
 Coeff:      0.490D+00
 Gap=     0.000 Goal=   None    Shift=    0.000
 RMSDP=2.53D-04 MaxDP=2.06D-03 DE= 9.59D-04 OVMax= 3.94D-03

 Cycle  75  Pass 1  IDiag  1:
 E= -150.176831578863     Delta-E=       -0.000940946786 Rises=F Damp=F
 DIIS: error= 9.27D-03 at cycle  43 NSaved=   8.
 NSaved= 8 IEnMin= 1 EnMin= -150.176853494632     IErMin= 2 ErrMin= 9.15D-03
 ErrMax= 9.27D-03  0.00D+00 EMaxC= 1.00D-01 BMatC= 1.23D-03 BMatP= 1.19D-03
 IDIUse=3 WtCom= 9.08D-01 WtEn= 9.15D-02
 Large coefficients: NSaved=  8 BigCof=   78.58 CofMax=   10.00 Det=-6.26D-11
 Inversion failed.  Reducing to  7 matrices.
 Large coefficients: NSaved=  7 BigCof=   78.65 CofMax=   10.00 Det=-6.26D-11
 Inversion failed.  Reducing to  6 matrices.
 EnCoef did   100 forward-backward iterations
 Coeff-Com:  0.114D-01 0.642D+01 0.338D+01-0.531D+01-0.197D+01-0.154D+01
 Coeff-En:   0.500D+00 0.665D-01 0.000D+00 0.738D-01 0.000D+00 0.360D+00
 Coeff:      0.562D-01 0.584D+01 0.307D+01-0.481D+01-0.179D+01-0.136D+01
 Gap=     0.020 Goal=   None    Shift=    0.000
 RMSDP=2.74D-02 MaxDP=2.80D-01 DE=-9.41D-04 OVMax= 6.40D-03

 Cycle  76  Pass 1  IDiag  1:
 E= -150.174782632550     Delta-E=        0.002048946313 Rises=F Damp=F
 DIIS: error= 1.73D-02 at cycle  44 NSaved=   7.
 NSaved= 7 IEnMin= 1 EnMin= -150.176853494632     IErMin= 2 ErrMin= 9.15D-03
 ErrMax= 1.73D-02  0.00D+00 EMaxC= 1.00D-01 BMatC= 4.28D-03 BMatP= 1.19D-03
 IDIUse=2 WtCom= 0.00D+00 WtEn= 1.00D+00
 EnCoef did   100 forward-backward iterations
 Rare condition: small coef for last iteration: -0.101D-14
 Coeff-En:   0.240D-01 0.000D+00 0.000D+00 0.597D-03 0.000D+00 0.507D+00
 Coeff-En:   0.468D+00
 Coeff:      0.240D-01 0.000D+00 0.000D+00 0.597D-03 0.000D+00 0.507D+00
 Coeff:      0.468D+00
 Gap=     0.000 Goal=   None    Shift=    0.000
 RMSDP=2.74D-02 MaxDP=2.80D-01 DE= 2.05D-03 OVMax= 4.66D-03

 Cycle  77  Pass 1  IDiag  1:
 E= -150.176849575283     Delta-E=       -0.002066942734 Rises=F Damp=F
 DIIS: error= 9.19D-03 at cycle  45 NSaved=   8.
 NSaved= 8 IEnMin= 1 EnMin= -150.176853494632     IErMin= 2 ErrMin= 9.15D-03
 ErrMax= 9.19D-03  0.00D+00 EMaxC= 1.00D-01 BMatC= 1.20D-03 BMatP= 1.19D-03
 IDIUse=3 WtCom= 9.08D-01 WtEn= 9.15D-02
 Large coefficients: NSaved=  8 BigCof=   78.60 CofMax=   10.00 Det=-6.26D-11
 Inversion failed.  Reducing to  7 matrices.
 Large coefficients: NSaved=  7 BigCof=  144.53 CofMax=   10.00 Det=-6.67D-11
 Inversion failed.  Reducing to  6 matrices.
 EnCoef did   100 forward-backward iterations
 Coeff-Com:  0.135D+01 0.201D+01-0.516D+01-0.495D+01-0.589D+00 0.834D+01
 Coeff-En:   0.496D+00 0.156D+00 0.000D+00 0.805D-03 0.399D-02 0.344D+00
 Coeff:      0.127D+01 0.184D+01-0.469D+01-0.450D+01-0.535D+00 0.761D+01
 Gap=     0.011 Goal=   None    Shift=    0.000
 RMSDP=2.37D-04 MaxDP=2.13D-03 DE=-2.07D-03 OVMax= 3.18D-03

 Cycle  78  Pass 1  IDiag  1:
 E= -150.175890629257     Delta-E=        0.000958946027 Rises=F Damp=F
 DIIS: error= 1.36D-02 at cycle  46 NSaved=   7.
 NSaved= 7 IEnMin= 1 EnMin= -150.176853494632     IErMin= 2 ErrMin= 9.15D-03
 ErrMax= 1.36D-02  0.00D+00 EMaxC= 1.00D-01 BMatC= 2.62D-03 BMatP= 1.19D-03
 IDIUse=2 WtCom= 0.00D+00 WtEn= 1.00D+00
 EnCoef did   100 forward-backward iterations
 Rare condition: small coef for last iteration:  0.000D+00
 Coeff-En:   0.321D-01 0.000D+00 0.000D+00 0.796D-02 0.470D+00 0.000D+00
 Coeff-En:   0.490D+00
 Coeff:      0.321D-01 0.000D+00 0.000D+00 0.796D-02 0.470D+00 0.000D+00
 Coeff:      0.490D+00
 Gap=     0.000 Goal=   None    Shift=    0.000
 RMSDP=2.53D-04 MaxDP=2.06D-03 DE= 9.59D-04 OVMax= 3.94D-03

 Cycle  79  Pass 1  IDiag  1:
 E= -150.176831578787     Delta-E=       -0.000940949531 Rises=F Damp=F
 DIIS: error= 9.27D-03 at cycle  47 NSaved=   8.
 NSaved= 8 IEnMin= 1 EnMin= -150.176853494632     IErMin= 2 ErrMin= 9.15D-03
 ErrMax= 9.27D-03  0.00D+00 EMaxC= 1.00D-01 BMatC= 1.23D-03 BMatP= 1.19D-03
 IDIUse=3 WtCom= 9.08D-01 WtEn= 9.15D-02
 Large coefficients: NSaved=  8 BigCof=   78.60 CofMax=   10.00 Det=-6.26D-11
 Inversion failed.  Reducing to  7 matrices.
 Large coefficients: NSaved=  7 BigCof=   78.67 CofMax=   10.00 Det=-6.26D-11
 Inversion failed.  Reducing to  6 matrices.
 EnCoef did   100 forward-backward iterations
 Coeff-Com:  0.114D-01 0.642D+01 0.338D+01-0.531D+01-0.197D+01-0.154D+01
 Coeff-En:   0.500D+00 0.665D-01 0.000D+00 0.738D-01 0.000D+00 0.360D+00
 Coeff:      0.562D-01 0.584D+01 0.307D+01-0.481D+01-0.179D+01-0.136D+01
 Gap=     0.020 Goal=   None    Shift=    0.000
 RMSDP=2.74D-02 MaxDP=2.80D-01 DE=-9.41D-04 OVMax= 6.40D-03

 Cycle  80  Pass 1  IDiag  1:
 E= -150.174782631757     Delta-E=        0.002048947031 Rises=F Damp=F
 DIIS: error= 1.73D-02 at cycle  48 NSaved=   7.
 NSaved= 7 IEnMin= 1 EnMin= -150.176853494632     IErMin= 2 ErrMin= 9.15D-03
 ErrMax= 1.73D-02  0.00D+00 EMaxC= 1.00D-01 BMatC= 4.28D-03 BMatP= 1.19D-03
 IDIUse=2 WtCom= 0.00D+00 WtEn= 1.00D+00
 EnCoef did   100 forward-backward iterations
 Rare condition: small coef for last iteration:  0.203D-15
 Coeff-En:   0.240D-01 0.000D+00 0.000D+00 0.597D-03 0.000D+00 0.507D+00
 Coeff-En:   0.468D+00
 Coeff:      0.240D-01 0.000D+00 0.000D+00 0.597D-03 0.000D+00 0.507D+00
 Coeff:      0.468D+00
 Gap=     0.000 Goal=   None    Shift=    0.000
 RMSDP=2.74D-02 MaxDP=2.80D-01 DE= 2.05D-03 OVMax= 4.66D-03

 Cycle  81  Pass 1  IDiag  1:
 E= -150.176849575273     Delta-E=       -0.002066943517 Rises=F Damp=F
 DIIS: error= 9.19D-03 at cycle  49 NSaved=   8.
 NSaved= 8 IEnMin= 1 EnMin= -150.176853494632     IErMin= 2 ErrMin= 9.15D-03
 ErrMax= 9.19D-03  0.00D+00 EMaxC= 1.00D-01 BMatC= 1.20D-03 BMatP= 1.19D-03
 IDIUse=3 WtCom= 9.08D-01 WtEn= 9.15D-02
 Large coefficients: NSaved=  8 BigCof=   78.59 CofMax=   10.00 Det=-6.26D-11
 Inversion failed.  Reducing to  7 matrices.
 Large coefficients: NSaved=  7 BigCof=  144.53 CofMax=   10.00 Det=-6.67D-11
 Inversion failed.  Reducing to  6 matrices.
 EnCoef did   100 forward-backward iterations
 Coeff-Com:  0.135D+01 0.201D+01-0.516D+01-0.495D+01-0.589D+00 0.834D+01
 Coeff-En:   0.496D+00 0.156D+00 0.000D+00 0.805D-03 0.399D-02 0.344D+00
 Coeff:      0.127D+01 0.184D+01-0.469D+01-0.450D+01-0.535D+00 0.761D+01
 Gap=     0.011 Goal=   None    Shift=    0.000
 RMSDP=2.37D-04 MaxDP=2.13D-03 DE=-2.07D-03 OVMax= 3.18D-03

 Cycle  82  Pass 1  IDiag  1:
 E= -150.175890629145     Delta-E=        0.000958946129 Rises=F Damp=F
 DIIS: error= 1.36D-02 at cycle  50 NSaved=   7.
 NSaved= 7 IEnMin= 1 EnMin= -150.176853494632     IErMin= 2 ErrMin= 9.15D-03
 ErrMax= 1.36D-02  0.00D+00 EMaxC= 1.00D-01 BMatC= 2.62D-03 BMatP= 1.19D-03
 IDIUse=2 WtCom= 0.00D+00 WtEn= 1.00D+00
 EnCoef did   100 forward-backward iterations
 Rare condition: small coef for last iteration: -0.851D-15
 Coeff-En:   0.321D-01 0.000D+00 0.000D+00 0.796D-02 0.470D+00 0.000D+00
 Coeff-En:   0.490D+00
 Coeff:      0.321D-01 0.000D+00 0.000D+00 0.796D-02 0.470D+00 0.000D+00
 Coeff:      0.490D+00
 Gap=     0.000 Goal=   None    Shift=    0.000
 RMSDP=2.53D-04 MaxDP=2.06D-03 DE= 9.59D-04 OVMax= 3.94D-03

 Cycle  83  Pass 1  IDiag  1:
 E= -150.176831578777     Delta-E=       -0.000940949633 Rises=F Damp=F
 DIIS: error= 9.27D-03 at cycle  51 NSaved=   8.
 NSaved= 8 IEnMin= 1 EnMin= -150.176853494632     IErMin= 2 ErrMin= 9.15D-03
 ErrMax= 9.27D-03  0.00D+00 EMaxC= 1.00D-01 BMatC= 1.23D-03 BMatP= 1.19D-03
 IDIUse=3 WtCom= 9.08D-01 WtEn= 9.15D-02
 Large coefficients: NSaved=  8 BigCof=   78.59 CofMax=   10.00 Det=-6.26D-11
 Inversion failed.  Reducing to  7 matrices.
 Large coefficients: NSaved=  7 BigCof=   78.66 CofMax=   10.00 Det=-6.26D-11
 Inversion failed.  Reducing to  6 matrices.
 EnCoef did   100 forward-backward iterations
 Coeff-Com:  0.114D-01 0.642D+01 0.338D+01-0.531D+01-0.197D+01-0.154D+01
 Coeff-En:   0.500D+00 0.665D-01 0.000D+00 0.738D-01 0.000D+00 0.360D+00
 Coeff:      0.562D-01 0.584D+01 0.307D+01-0.481D+01-0.179D+01-0.136D+01
 Gap=     0.020 Goal=   None    Shift=    0.000
 RMSDP=2.74D-02 MaxDP=2.80D-01 DE=-9.41D-04 OVMax= 6.40D-03

 Cycle  84  Pass 1  IDiag  1:
 E= -150.174782631776     Delta-E=        0.002048947001 Rises=F Damp=F
 DIIS: error= 1.73D-02 at cycle  52 NSaved=   7.
 NSaved= 7 IEnMin= 1 EnMin= -150.176853494632     IErMin= 2 ErrMin= 9.15D-03
 ErrMax= 1.73D-02  0.00D+00 EMaxC= 1.00D-01 BMatC= 4.28D-03 BMatP= 1.19D-03
 IDIUse=2 WtCom= 0.00D+00 WtEn= 1.00D+00
 EnCoef did   100 forward-backward iterations
 Rare condition: small coef for last iteration:  0.812D-15
 Coeff-En:   0.240D-01 0.000D+00 0.000D+00 0.597D-03 0.000D+00 0.507D+00
 Coeff-En:   0.468D+00
 Coeff:      0.240D-01 0.000D+00 0.000D+00 0.597D-03 0.000D+00 0.507D+00
 Coeff:      0.468D+00
 Gap=     0.000 Goal=   None    Shift=    0.000
 RMSDP=2.74D-02 MaxDP=2.80D-01 DE= 2.05D-03 OVMax= 4.66D-03

 Cycle  85  Pass 1  IDiag  1:
 E= -150.176849575273     Delta-E=       -0.002066943497 Rises=F Damp=F
 DIIS: error= 9.19D-03 at cycle  53 NSaved=   8.
 NSaved= 8 IEnMin= 1 EnMin= -150.176853494632     IErMin= 2 ErrMin= 9.15D-03
 ErrMax= 9.19D-03  0.00D+00 EMaxC= 1.00D-01 BMatC= 1.20D-03 BMatP= 1.19D-03
 IDIUse=3 WtCom= 9.08D-01 WtEn= 9.15D-02
 Large coefficients: NSaved=  8 BigCof=   78.59 CofMax=   10.00 Det=-6.26D-11
 Inversion failed.  Reducing to  7 matrices.
 Large coefficients: NSaved=  7 BigCof=  144.53 CofMax=   10.00 Det=-6.67D-11
 Inversion failed.  Reducing to  6 matrices.
 EnCoef did   100 forward-backward iterations
 Coeff-Com:  0.135D+01 0.201D+01-0.516D+01-0.495D+01-0.589D+00 0.834D+01
 Coeff-En:   0.496D+00 0.156D+00 0.000D+00 0.805D-03 0.399D-02 0.344D+00
 Coeff:      0.127D+01 0.184D+01-0.469D+01-0.450D+01-0.535D+00 0.761D+01
 Gap=     0.011 Goal=   None    Shift=    0.000
 RMSDP=2.37D-04 MaxDP=2.13D-03 DE=-2.07D-03 OVMax= 3.18D-03

 Cycle  86  Pass 1  IDiag  1:
 E= -150.175890629170     Delta-E=        0.000958946103 Rises=F Damp=F
 DIIS: error= 1.36D-02 at cycle  54 NSaved=   7.
 NSaved= 7 IEnMin= 1 EnMin= -150.176853494632     IErMin= 2 ErrMin= 9.15D-03
 ErrMax= 1.36D-02  0.00D+00 EMaxC= 1.00D-01 BMatC= 2.62D-03 BMatP= 1.19D-03
 IDIUse=2 WtCom= 0.00D+00 WtEn= 1.00D+00
 EnCoef did   100 forward-backward iterations
 Rare condition: small coef for last iteration:  0.149D-14
 Coeff-En:   0.321D-01 0.000D+00 0.000D+00 0.796D-02 0.470D+00 0.000D+00
 Coeff-En:   0.490D+00
 Coeff:      0.321D-01 0.000D+00 0.000D+00 0.796D-02 0.470D+00 0.000D+00
 Coeff:      0.490D+00
 Gap=     0.000 Goal=   None    Shift=    0.000
 RMSDP=2.53D-04 MaxDP=2.06D-03 DE= 9.59D-04 OVMax= 3.94D-03

 Cycle  87  Pass 1  IDiag  1:
 E= -150.176831578779     Delta-E=       -0.000940949609 Rises=F Damp=F
 DIIS: error= 9.27D-03 at cycle  55 NSaved=   8.
 NSaved= 8 IEnMin= 1 EnMin= -150.176853494632     IErMin= 2 ErrMin= 9.15D-03
 ErrMax= 9.27D-03  0.00D+00 EMaxC= 1.00D-01 BMatC= 1.23D-03 BMatP= 1.19D-03
 IDIUse=3 WtCom= 9.08D-01 WtEn= 9.15D-02
 Large coefficients: NSaved=  8 BigCof=   78.59 CofMax=   10.00 Det=-6.26D-11
 Inversion failed.  Reducing to  7 matrices.
 Large coefficients: NSaved=  7 BigCof=   78.66 CofMax=   10.00 Det=-6.26D-11
 Inversion failed.  Reducing to  6 matrices.
 EnCoef did   100 forward-backward iterations
 Coeff-Com:  0.114D-01 0.642D+01 0.338D+01-0.531D+01-0.197D+01-0.154D+01
 Coeff-En:   0.500D+00 0.665D-01 0.000D+00 0.738D-01 0.000D+00 0.360D+00
 Coeff:      0.562D-01 0.584D+01 0.307D+01-0.481D+01-0.179D+01-0.136D+01
 Gap=     0.020 Goal=   None    Shift=    0.000
 RMSDP=2.74D-02 MaxDP=2.80D-01 DE=-9.41D-04 OVMax= 6.40D-03

 Cycle  88  Pass 1  IDiag  1:
 E= -150.174782631783     Delta-E=        0.002048946996 Rises=F Damp=F
 DIIS: error= 1.73D-02 at cycle  56 NSaved=   7.
 NSaved= 7 IEnMin= 1 EnMin= -150.176853494632     IErMin= 2 ErrMin= 9.15D-03
 ErrMax= 1.73D-02  0.00D+00 EMaxC= 1.00D-01 BMatC= 4.28D-03 BMatP= 1.19D-03
 IDIUse=2 WtCom= 0.00D+00 WtEn= 1.00D+00
 EnCoef did   100 forward-backward iterations
 Rare condition: small coef for last iteration: -0.406D-15
 Coeff-En:   0.240D-01 0.000D+00 0.000D+00 0.597D-03 0.000D+00 0.507D+00
 Coeff-En:   0.468D+00
 Coeff:      0.240D-01 0.000D+00 0.000D+00 0.597D-03 0.000D+00 0.507D+00
 Coeff:      0.468D+00
 Gap=     0.000 Goal=   None    Shift=    0.000
 RMSDP=2.74D-02 MaxDP=2.80D-01 DE= 2.05D-03 OVMax= 4.66D-03

 Cycle  89  Pass 1  IDiag  1:
 E= -150.176849575273     Delta-E=       -0.002066943490 Rises=F Damp=F
 DIIS: error= 9.19D-03 at cycle  57 NSaved=   8.
 NSaved= 8 IEnMin= 1 EnMin= -150.176853494632     IErMin= 2 ErrMin= 9.15D-03
 ErrMax= 9.19D-03  0.00D+00 EMaxC= 1.00D-01 BMatC= 1.20D-03 BMatP= 1.19D-03
 IDIUse=3 WtCom= 9.08D-01 WtEn= 9.15D-02
 Large coefficients: NSaved=  8 BigCof=   78.59 CofMax=   10.00 Det=-6.26D-11
 Inversion failed.  Reducing to  7 matrices.
 Large coefficients: NSaved=  7 BigCof=  144.53 CofMax=   10.00 Det=-6.67D-11
 Inversion failed.  Reducing to  6 matrices.
 EnCoef did   100 forward-backward iterations
 Coeff-Com:  0.135D+01 0.201D+01-0.516D+01-0.495D+01-0.589D+00 0.834D+01
 Coeff-En:   0.496D+00 0.156D+00 0.000D+00 0.805D-03 0.399D-02 0.344D+00
 Coeff:      0.127D+01 0.184D+01-0.469D+01-0.450D+01-0.535D+00 0.761D+01
 Gap=     0.011 Goal=   None    Shift=    0.000
 RMSDP=2.37D-04 MaxDP=2.13D-03 DE=-2.07D-03 OVMax= 3.18D-03

 Cycle  90  Pass 1  IDiag  1:
 E= -150.175890629171     Delta-E=        0.000958946102 Rises=F Damp=F
 DIIS: error= 1.36D-02 at cycle  58 NSaved=   7.
 NSaved= 7 IEnMin= 1 EnMin= -150.176853494632     IErMin= 2 ErrMin= 9.15D-03
 ErrMax= 1.36D-02  0.00D+00 EMaxC= 1.00D-01 BMatC= 2.62D-03 BMatP= 1.19D-03
 IDIUse=2 WtCom= 0.00D+00 WtEn= 1.00D+00
 EnCoef did   100 forward-backward iterations
 Rare condition: small coef for last iteration:  0.234D-14
 Coeff-En:   0.321D-01 0.000D+00 0.000D+00 0.796D-02 0.470D+00 0.000D+00
 Coeff-En:   0.490D+00
 Coeff:      0.321D-01 0.000D+00 0.000D+00 0.796D-02 0.470D+00 0.000D+00
 Coeff:      0.490D+00
 Gap=     0.000 Goal=   None    Shift=    0.000
 RMSDP=2.53D-04 MaxDP=2.06D-03 DE= 9.59D-04 OVMax= 3.94D-03

 Cycle  91  Pass 1  IDiag  1:
 E= -150.176831578778     Delta-E=       -0.000940949607 Rises=F Damp=F
 DIIS: error= 9.27D-03 at cycle  59 NSaved=   8.
 NSaved= 8 IEnMin= 1 EnMin= -150.176853494632     IErMin= 2 ErrMin= 9.15D-03
 ErrMax= 9.27D-03  0.00D+00 EMaxC= 1.00D-01 BMatC= 1.23D-03 BMatP= 1.19D-03
 IDIUse=3 WtCom= 9.08D-01 WtEn= 9.15D-02
 Large coefficients: NSaved=  8 BigCof=   78.59 CofMax=   10.00 Det=-6.26D-11
 Inversion failed.  Reducing to  7 matrices.
 Large coefficients: NSaved=  7 BigCof=   78.66 CofMax=   10.00 Det=-6.26D-11
 Inversion failed.  Reducing to  6 matrices.
 EnCoef did   100 forward-backward iterations
 Coeff-Com:  0.114D-01 0.642D+01 0.338D+01-0.531D+01-0.197D+01-0.154D+01
 Coeff-En:   0.500D+00 0.665D-01 0.000D+00 0.738D-01 0.000D+00 0.360D+00
 Coeff:      0.562D-01 0.584D+01 0.307D+01-0.481D+01-0.179D+01-0.136D+01
 Gap=     0.020 Goal=   None    Shift=    0.000
 RMSDP=2.74D-02 MaxDP=2.80D-01 DE=-9.41D-04 OVMax= 6.40D-03

 Cycle  92  Pass 1  IDiag  1:
 E= -150.174782631782     Delta-E=        0.002048946996 Rises=F Damp=F
 DIIS: error= 1.73D-02 at cycle  60 NSaved=   7.
 NSaved= 7 IEnMin= 1 EnMin= -150.176853494632     IErMin= 2 ErrMin= 9.15D-03
 ErrMax= 1.73D-02  0.00D+00 EMaxC= 1.00D-01 BMatC= 4.28D-03 BMatP= 1.19D-03
 IDIUse=2 WtCom= 0.00D+00 WtEn= 1.00D+00
 EnCoef did   100 forward-backward iterations
 Rare condition: small coef for last iteration:  0.112D-14
 Coeff-En:   0.240D-01 0.000D+00 0.000D+00 0.597D-03 0.000D+00 0.507D+00
 Coeff-En:   0.468D+00
 Coeff:      0.240D-01 0.000D+00 0.000D+00 0.597D-03 0.000D+00 0.507D+00
 Coeff:      0.468D+00
 Gap=     0.000 Goal=   None    Shift=    0.000
 RMSDP=2.74D-02 MaxDP=2.80D-01 DE= 2.05D-03 OVMax= 4.66D-03

 Cycle  93  Pass 1  IDiag  1:
 E= -150.176849575273     Delta-E=       -0.002066943490 Rises=F Damp=F
 DIIS: error= 9.19D-03 at cycle  61 NSaved=   8.
 NSaved= 8 IEnMin= 1 EnMin= -150.176853494632     IErMin= 2 ErrMin= 9.15D-03
 ErrMax= 9.19D-03  0.00D+00 EMaxC= 1.00D-01 BMatC= 1.20D-03 BMatP= 1.19D-03
 IDIUse=3 WtCom= 9.08D-01 WtEn= 9.15D-02
 Large coefficients: NSaved=  8 BigCof=   78.59 CofMax=   10.00 Det=-6.26D-11
 Inversion failed.  Reducing to  7 matrices.
 Large coefficients: NSaved=  7 BigCof=  144.53 CofMax=   10.00 Det=-6.67D-11
 Inversion failed.  Reducing to  6 matrices.
 EnCoef did   100 forward-backward iterations
 Coeff-Com:  0.135D+01 0.201D+01-0.516D+01-0.495D+01-0.589D+00 0.834D+01
 Coeff-En:   0.496D+00 0.156D+00 0.000D+00 0.805D-03 0.399D-02 0.344D+00
 Coeff:      0.127D+01 0.184D+01-0.469D+01-0.450D+01-0.535D+00 0.761D+01
 Gap=     0.011 Goal=   None    Shift=    0.000
 RMSDP=2.37D-04 MaxDP=2.13D-03 DE=-2.07D-03 OVMax= 3.18D-03

 Cycle  94  Pass 1  IDiag  1:
 E= -150.175890629170     Delta-E=        0.000958946103 Rises=F Damp=F
 DIIS: error= 1.36D-02 at cycle  62 NSaved=   7.
 NSaved= 7 IEnMin= 1 EnMin= -150.176853494632     IErMin= 2 ErrMin= 9.15D-03
 ErrMax= 1.36D-02  0.00D+00 EMaxC= 1.00D-01 BMatC= 2.62D-03 BMatP= 1.19D-03
 IDIUse=2 WtCom= 0.00D+00 WtEn= 1.00D+00
 EnCoef did   100 forward-backward iterations
 Rare condition: small coef for last iteration: -0.851D-15
 Coeff-En:   0.321D-01 0.000D+00 0.000D+00 0.796D-02 0.470D+00 0.000D+00
 Coeff-En:   0.490D+00
 Coeff:      0.321D-01 0.000D+00 0.000D+00 0.796D-02 0.470D+00 0.000D+00
 Coeff:      0.490D+00
 Gap=     0.000 Goal=   None    Shift=    0.000
 RMSDP=2.53D-04 MaxDP=2.06D-03 DE= 9.59D-04 OVMax= 3.94D-03

 Cycle  95  Pass 1  IDiag  1:
 E= -150.176831578778     Delta-E=       -0.000940949608 Rises=F Damp=F
 DIIS: error= 9.27D-03 at cycle  63 NSaved=   8.
 NSaved= 8 IEnMin= 1 EnMin= -150.176853494632     IErMin= 2 ErrMin= 9.15D-03
 ErrMax= 9.27D-03  0.00D+00 EMaxC= 1.00D-01 BMatC= 1.23D-03 BMatP= 1.19D-03
 IDIUse=3 WtCom= 9.08D-01 WtEn= 9.15D-02
 Large coefficients: NSaved=  8 BigCof=   78.59 CofMax=   10.00 Det=-6.26D-11
 Inversion failed.  Reducing to  7 matrices.
 Large coefficients: NSaved=  7 BigCof=   78.66 CofMax=   10.00 Det=-6.26D-11
 Inversion failed.  Reducing to  6 matrices.
 EnCoef did   100 forward-backward iterations
 Coeff-Com:  0.114D-01 0.642D+01 0.338D+01-0.531D+01-0.197D+01-0.154D+01
 Coeff-En:   0.500D+00 0.665D-01 0.000D+00 0.738D-01 0.000D+00 0.360D+00
 Coeff:      0.562D-01 0.584D+01 0.307D+01-0.481D+01-0.179D+01-0.136D+01
 Gap=     0.020 Goal=   None    Shift=    0.000
 RMSDP=2.74D-02 MaxDP=2.80D-01 DE=-9.41D-04 OVMax= 6.40D-03

 Cycle  96  Pass 1  IDiag  1:
 E= -150.174782631782     Delta-E=        0.002048946996 Rises=F Damp=F
 DIIS: error= 1.73D-02 at cycle  64 NSaved=   7.
 NSaved= 7 IEnMin= 1 EnMin= -150.176853494632     IErMin= 2 ErrMin= 9.15D-03
 ErrMax= 1.73D-02  0.00D+00 EMaxC= 1.00D-01 BMatC= 4.28D-03 BMatP= 1.19D-03
 IDIUse=2 WtCom= 0.00D+00 WtEn= 1.00D+00
 EnCoef did   100 forward-backward iterations
 Rare condition: small coef for last iteration: -0.325D-14
 Coeff-En:   0.240D-01 0.000D+00 0.000D+00 0.597D-03 0.000D+00 0.507D+00
 Coeff-En:   0.468D+00
 Coeff:      0.240D-01 0.000D+00 0.000D+00 0.597D-03 0.000D+00 0.507D+00
 Coeff:      0.468D+00
 Gap=     0.000 Goal=   None    Shift=    0.000
 RMSDP=2.74D-02 MaxDP=2.80D-01 DE= 2.05D-03 OVMax= 4.66D-03

 Cycle  97  Pass 1  IDiag  1:
 E= -150.176849575272     Delta-E=       -0.002066943490 Rises=F Damp=F
 DIIS: error= 9.19D-03 at cycle  65 NSaved=   8.
 NSaved= 8 IEnMin= 1 EnMin= -150.176853494632     IErMin= 2 ErrMin= 9.15D-03
 ErrMax= 9.19D-03  0.00D+00 EMaxC= 1.00D-01 BMatC= 1.20D-03 BMatP= 1.19D-03
 IDIUse=3 WtCom= 9.08D-01 WtEn= 9.15D-02
 Large coefficients: NSaved=  8 BigCof=   78.59 CofMax=   10.00 Det=-6.26D-11
 Inversion failed.  Reducing to  7 matrices.
 Large coefficients: NSaved=  7 BigCof=  144.53 CofMax=   10.00 Det=-6.67D-11
 Inversion failed.  Reducing to  6 matrices.
 EnCoef did   100 forward-backward iterations
 Coeff-Com:  0.135D+01 0.201D+01-0.516D+01-0.495D+01-0.589D+00 0.834D+01
 Coeff-En:   0.496D+00 0.156D+00 0.000D+00 0.805D-03 0.399D-02 0.344D+00
 Coeff:      0.127D+01 0.184D+01-0.469D+01-0.450D+01-0.535D+00 0.761D+01
 Gap=     0.011 Goal=   None    Shift=    0.000
 RMSDP=2.37D-04 MaxDP=2.13D-03 DE=-2.07D-03 OVMax= 3.18D-03

 Cycle  98  Pass 1  IDiag  1:
 E= -150.175890629170     Delta-E=        0.000958946102 Rises=F Damp=F
 DIIS: error= 1.36D-02 at cycle  66 NSaved=   7.
 NSaved= 7 IEnMin= 1 EnMin= -150.176853494632     IErMin= 2 ErrMin= 9.15D-03
 ErrMax= 1.36D-02  0.00D+00 EMaxC= 1.00D-01 BMatC= 2.62D-03 BMatP= 1.19D-03
 IDIUse=2 WtCom= 0.00D+00 WtEn= 1.00D+00
 EnCoef did   100 forward-backward iterations
 Rare condition: small coef for last iteration: -0.425D-15
 Coeff-En:   0.321D-01 0.000D+00 0.000D+00 0.796D-02 0.470D+00 0.000D+00
 Coeff-En:   0.490D+00
 Coeff:      0.321D-01 0.000D+00 0.000D+00 0.796D-02 0.470D+00 0.000D+00
 Coeff:      0.490D+00
 Gap=     0.000 Goal=   None    Shift=    0.000
 RMSDP=2.53D-04 MaxDP=2.06D-03 DE= 9.59D-04 OVMax= 3.94D-03

 Cycle  99  Pass 1  IDiag  1:
 E= -150.176831578778     Delta-E=       -0.000940949608 Rises=F Damp=F
 DIIS: error= 9.27D-03 at cycle  67 NSaved=   8.
 NSaved= 8 IEnMin= 1 EnMin= -150.176853494632     IErMin= 2 ErrMin= 9.15D-03
 ErrMax= 9.27D-03  0.00D+00 EMaxC= 1.00D-01 BMatC= 1.23D-03 BMatP= 1.19D-03
 IDIUse=3 WtCom= 9.08D-01 WtEn= 9.15D-02
 Large coefficients: NSaved=  8 BigCof=   78.59 CofMax=   10.00 Det=-6.26D-11
 Inversion failed.  Reducing to  7 matrices.
 Large coefficients: NSaved=  7 BigCof=   78.66 CofMax=   10.00 Det=-6.26D-11
 Inversion failed.  Reducing to  6 matrices.
 EnCoef did   100 forward-backward iterations
 Coeff-Com:  0.114D-01 0.642D+01 0.338D+01-0.531D+01-0.197D+01-0.154D+01
 Coeff-En:   0.500D+00 0.665D-01 0.000D+00 0.738D-01 0.000D+00 0.360D+00
 Coeff:      0.562D-01 0.584D+01 0.307D+01-0.481D+01-0.179D+01-0.136D+01
 Gap=     0.020 Goal=   None    Shift=    0.000
 RMSDP=2.74D-02 MaxDP=2.80D-01 DE=-9.41D-04 OVMax= 6.40D-03

 Cycle 100  Pass 1  IDiag  1:
 E= -150.174782631782     Delta-E=        0.002048946996 Rises=F Damp=F
 DIIS: error= 1.73D-02 at cycle  68 NSaved=   7.
 NSaved= 7 IEnMin= 1 EnMin= -150.176853494632     IErMin= 2 ErrMin= 9.15D-03
 ErrMax= 1.73D-02  0.00D+00 EMaxC= 1.00D-01 BMatC= 4.28D-03 BMatP= 1.19D-03
 IDIUse=2 WtCom= 0.00D+00 WtEn= 1.00D+00
 EnCoef did   100 forward-backward iterations
 Rare condition: small coef for last iteration: -0.203D-14
 Coeff-En:   0.240D-01 0.000D+00 0.000D+00 0.597D-03 0.000D+00 0.507D+00
 Coeff-En:   0.468D+00
 Coeff:      0.240D-01 0.000D+00 0.000D+00 0.597D-03 0.000D+00 0.507D+00
 Coeff:      0.468D+00
 Gap=     0.000 Goal=   None    Shift=    0.000
 RMSDP=2.74D-02 MaxDP=2.80D-01 DE= 2.05D-03 OVMax= 4.66D-03

 >>>>>>>>>> Convergence criterion not met.
 SCF Done:  E(RTPSS-TPSS) =  -150.174782632     A.U. after  101 cycles
            NFock=100  Conv=0.27D-01     -V/T= 2.0049
 KE= 1.494383873129D+02 PE=-4.115074528921D+02 EE= 8.352473322775D+01
 Convergence failure -- run terminated.
 Error termination via Lnk1e in /home/sabyasachi/g16/l502.exe at Mon Mar 21 20:14:59 2022.
 Job cpu time:       0 days  0 hours  0 minutes 14.3 seconds.
 Elapsed time:       0 days  0 hours  0 minutes  2.0 seconds.
 File lengths (MBytes):  RWF=      6 Int=      0 D2E=      0 Chk=      1 Scr=      1
