 Entering Gaussian System, Link 0=g16
 Input=000014.com
 Output=000014.log
 Initial command:
 /home/sabyasachi/g16/l1.exe "/scratch/sabyasachi/PBS_7976544.helios/Gau-31986.inp" -scrdir="/scratch/sabyasachi/PBS_7976544.helios/"
 Entering Link 1 = /home/sabyasachi/g16/l1.exe PID=     31987.
  
 Copyright (c) 1988-2019, Gaussian, Inc.  All Rights Reserved.
  
 This is part of the Gaussian(R) 16 program.  It is based on
 the Gaussian(R) 09 system (copyright 2009, Gaussian, Inc.),
 the Gaussian(R) 03 system (copyright 2003, Gaussian, Inc.),
 the Gaussian(R) 98 system (copyright 1998, Gaussian, Inc.),
 the Gaussian(R) 94 system (copyright 1995, Gaussian, Inc.),
 the Gaussian 92(TM) system (copyright 1992, Gaussian, Inc.),
 the Gaussian 90(TM) system (copyright 1990, Gaussian, Inc.),
 the Gaussian 88(TM) system (copyright 1988, Gaussian, Inc.),
 the Gaussian 86(TM) system (copyright 1986, Carnegie Mellon
 University), and the Gaussian 82(TM) system (copyright 1983,
 Carnegie Mellon University). Gaussian is a federally registered
 trademark of Gaussian, Inc.
  
 This software contains proprietary and confidential information,
 including trade secrets, belonging to Gaussian, Inc.
  
 This software is provided under written license and may be
 used, copied, transmitted, or stored only in accord with that
 written license.
  
 The following legend is applicable only to US Government
 contracts under FAR:
  
                    RESTRICTED RIGHTS LEGEND
  
 Use, reproduction and disclosure by the US Government is
 subject to restrictions as set forth in subparagraphs (a)
 and (c) of the Commercial Computer Software - Restricted
 Rights clause in FAR 52.227-19.
  
 Gaussian, Inc.
 340 Quinnipiac St., Bldg. 40, Wallingford CT 06492
  
  
 ---------------------------------------------------------------
 Warning -- This program may not be used in any manner that
 competes with the business of Gaussian, Inc. or will provide
 assistance to any competitor of Gaussian, Inc.  The licensee
 of this program is prohibited from giving any competitor of
 Gaussian, Inc. access to this program.  By using this program,
 the user acknowledges that Gaussian, Inc. is engaged in the
 business of creating and licensing software in the field of
 computational chemistry and represents and warrants to the
 licensee that it is not a competitor of Gaussian, Inc. and that
 it will not use this program in any manner prohibited above.
 ---------------------------------------------------------------
  

 Cite this work as:
 Gaussian 16, Revision C.01,
 M. J. Frisch, G. W. Trucks, H. B. Schlegel, G. E. Scuseria, 
 M. A. Robb, J. R. Cheeseman, G. Scalmani, V. Barone, 
 G. A. Petersson, H. Nakatsuji, X. Li, M. Caricato, A. V. Marenich, 
 J. Bloino, B. G. Janesko, R. Gomperts, B. Mennucci, H. P. Hratchian, 
 J. V. Ortiz, A. F. Izmaylov, J. L. Sonnenberg, D. Williams-Young, 
 F. Ding, F. Lipparini, F. Egidi, J. Goings, B. Peng, A. Petrone, 
 T. Henderson, D. Ranasinghe, V. G. Zakrzewski, J. Gao, N. Rega, 
 G. Zheng, W. Liang, M. Hada, M. Ehara, K. Toyota, R. Fukuda, 
 J. Hasegawa, M. Ishida, T. Nakajima, Y. Honda, O. Kitao, H. Nakai, 
 T. Vreven, K. Throssell, J. A. Montgomery, Jr., J. E. Peralta, 
 F. Ogliaro, M. J. Bearpark, J. J. Heyd, E. N. Brothers, K. N. Kudin, 
 V. N. Staroverov, T. A. Keith, R. Kobayashi, J. Normand, 
 K. Raghavachari, A. P. Rendell, J. C. Burant, S. S. Iyengar, 
 J. Tomasi, M. Cossi, J. M. Millam, M. Klene, C. Adamo, R. Cammi, 
 J. W. Ochterski, R. L. Martin, K. Morokuma, O. Farkas, 
 J. B. Foresman, and D. J. Fox, Gaussian, Inc., Wallingford CT, 2019.
 
 ******************************************
 Gaussian 16:  EM64L-G16RevC.01  3-Jul-2019
                21-Mar-2022 
 ******************************************
 %mem=64gb
 %nproc=8
 Will use up to    8 processors via shared memory.
 ----------------------------------------------------------------------
 #P TD(Nstates=10000) tpsstpss/Gen SCF(maxcycles=100) Int(Grid=ultrafin
 e)
 ----------------------------------------------------------------------
 1/38=1,172=1/1;
 2/12=2,17=6,18=5,40=1/2;
 3/5=7,11=9,25=1,30=1,74=2523,75=-5/1,2,3,8;
 4//1;
 5/5=2,7=100,38=5/2;
 8/6=1,10=1,108=10000/1;
 9/41=10000,42=1,70=2/14;
 6/7=2,8=2,9=2,10=2/1;
 99/5=1,9=1/99;
 Leave Link    1 at Mon Mar 21 20:20:10 2022, MaxMem=  8589934592 cpu:               0.4 elap:               0.1
 (Enter /home/sabyasachi/g16/l101.exe)
 ---------------------
 xGDB7_00001_tier4.com
 ---------------------
 Symbolic Z-matrix:
 Charge =  0 Multiplicity = 1
 6                     0.        1.26773  -0.25908 
 6                     0.        0.        0.58555 
 6                     0.       -1.26773  -0.25908 
 1                     0.        2.16431   0.36309 
 1                    -0.88145   1.30768  -0.90365 
 1                     0.88145   1.30768  -0.90365 
 1                    -0.87453   0.        1.24206 
 1                     0.87453   0.        1.24206 
 1                    -0.88145  -1.30768  -0.90365 
 1                     0.       -2.16431   0.36309 
 1                     0.88145  -1.30768  -0.90365 
 
 ITRead=  0  0  0  0  0  0  0  0  0  0  0
 MicOpt= -1 -1 -1 -1 -1 -1 -1 -1 -1 -1 -1
 NAtoms=     11 NQM=       11 NQMF=       0 NMMI=      0 NMMIF=      0
                NMic=       0 NMicF=      0.
                    Isotopes and Nuclear Properties:
 (Nuclear quadrupole moments (NQMom) in fm**2, nuclear magnetic moments (NMagM)
  in nuclear magnetons)

  Atom         1           2           3           4           5           6           7           8           9          10
 IAtWgt=          12          12          12           1           1           1           1           1           1           1
 AtmWgt=  12.0000000  12.0000000  12.0000000   1.0078250   1.0078250   1.0078250   1.0078250   1.0078250   1.0078250   1.0078250
 NucSpn=           0           0           0           1           1           1           1           1           1           1
 AtZEff=  -0.0000000  -0.0000000  -0.0000000  -0.0000000  -0.0000000  -0.0000000  -0.0000000  -0.0000000  -0.0000000  -0.0000000
 NQMom=    0.0000000   0.0000000   0.0000000   0.0000000   0.0000000   0.0000000   0.0000000   0.0000000   0.0000000   0.0000000
 NMagM=    0.0000000   0.0000000   0.0000000   2.7928460   2.7928460   2.7928460   2.7928460   2.7928460   2.7928460   2.7928460
 AtZNuc=   6.0000000   6.0000000   6.0000000   1.0000000   1.0000000   1.0000000   1.0000000   1.0000000   1.0000000   1.0000000

  Atom        11
 IAtWgt=           1
 AtmWgt=   1.0078250
 NucSpn=           1
 AtZEff=  -0.0000000
 NQMom=    0.0000000
 NMagM=    2.7928460
 AtZNuc=   1.0000000
 Leave Link  101 at Mon Mar 21 20:20:10 2022, MaxMem=  8589934592 cpu:               0.7 elap:               0.1
 (Enter /home/sabyasachi/g16/l202.exe)
                          Input orientation:                          
 ---------------------------------------------------------------------
 Center     Atomic      Atomic             Coordinates (Angstroms)
 Number     Number       Type             X           Y           Z
 ---------------------------------------------------------------------
      1          6           0        0.000000    1.267731   -0.259082
      2          6           0        0.000000    0.000000    0.585552
      3          6           0        0.000000   -1.267731   -0.259082
      4          1           0        0.000000    2.164308    0.363087
      5          1           0       -0.881453    1.307675   -0.903652
      6          1           0        0.881453    1.307675   -0.903652
      7          1           0       -0.874532    0.000000    1.242055
      8          1           0        0.874532    0.000000    1.242055
      9          1           0       -0.881453   -1.307675   -0.903652
     10          1           0        0.000000   -2.164308    0.363087
     11          1           0        0.881453   -1.307675   -0.903652
 ---------------------------------------------------------------------
                    Distance matrix (angstroms):
                    1          2          3          4          5
     1  C    0.000000
     2  C    1.523335   0.000000
     3  C    2.535462   1.523335   0.000000
     4  H    1.091304   2.175711   3.487977   0.000000
     5  H    1.092715   2.169032   2.797346   1.765052   0.000000
     6  H    1.092715   2.169032   2.797346   1.765052   1.762906
     7  H    2.150665   1.093528   2.150665   2.494318   2.512791
     8  H    2.150665   1.093528   2.150665   2.494318   3.065543
     9  H    2.797346   2.169032   1.092715   3.799507   2.615350
    10  H    3.487977   2.175711   1.091304   4.328616   3.799507
    11  H    2.797346   2.169032   1.092715   3.799507   3.154028
                    6          7          8          9         10
     6  H    0.000000
     7  H    3.065543   0.000000
     8  H    2.512791   1.749064   0.000000
     9  H    3.154028   2.512791   3.065543   0.000000
    10  H    3.799507   2.494318   2.494318   1.765052   0.000000
    11  H    2.615350   3.065543   2.512791   1.762906   1.765052
                   11
    11  H    0.000000
 Stoichiometry    C3H8
 Framework group  C2V[C2(C),SGV(C2H2),SGV'(H2),X(H4)]
 Deg. of freedom     9
 Full point group                 C2V     NOp   4
 Largest Abelian subgroup         C2V     NOp   4
 Largest concise Abelian subgroup C2V     NOp   4
                         Standard orientation:                         
 ---------------------------------------------------------------------
 Center     Atomic      Atomic             Coordinates (Angstroms)
 Number     Number       Type             X           Y           Z
 ---------------------------------------------------------------------
      1          6           0        0.000000    1.267731   -0.259082
      2          6           0       -0.000000   -0.000000    0.585552
      3          6           0       -0.000000   -1.267731   -0.259082
      4          1           0        0.000000    2.164308    0.363087
      5          1           0       -0.881453    1.307675   -0.903652
      6          1           0        0.881453    1.307675   -0.903652
      7          1           0       -0.874532    0.000000    1.242055
      8          1           0        0.874532   -0.000000    1.242055
      9          1           0       -0.881453   -1.307675   -0.903652
     10          1           0       -0.000000   -2.164308    0.363087
     11          1           0        0.881453   -1.307675   -0.903652
 ---------------------------------------------------------------------
 Rotational constants (GHZ):          29.6189661           8.4822903           7.5098267
 Leave Link  202 at Mon Mar 21 20:20:10 2022, MaxMem=  8589934592 cpu:               0.1 elap:               0.0
 (Enter /home/sabyasachi/g16/l301.exe)
 General basis read from cards:  (5D, 7F)
 Centers:       4      5      6      7      8      9     10     11
 S 3 1.00
     Exponent=  1.3010701000D+01 Coefficients=  1.9682158000D-02
     Exponent=  1.9622572000D+00 Coefficients=  1.3796524000D-01
     Exponent=  4.4453796000D-01 Coefficients=  4.7831935000D-01
 S 1 1.00
     Exponent=  1.2194962000D-01 Coefficients=  1.0000000000D+00
 P 1 1.00
     Exponent=  8.0000000000D-01 Coefficients=  1.0000000000D+00
 P 1 1.00
     Exponent=  1.1704099050D-01 Coefficients=  1.0000000000D+00
 ****
 Centers:       1      2      3
 S 5 1.00
     Exponent=  1.2384016938D+03 Coefficients=  5.4568832082D-03
     Exponent=  1.8629004992D+02 Coefficients=  4.0638409211D-02
     Exponent=  4.2251176346D+01 Coefficients=  1.8025593888D-01
     Exponent=  1.1676557932D+01 Coefficients=  4.6315121755D-01
     Exponent=  3.5930506482D+00 Coefficients=  4.4087173314D-01
 S 1 1.00
     Exponent=  4.0245147363D-01 Coefficients=  1.0000000000D+00
 S 1 1.00
     Exponent=  1.3090182668D-01 Coefficients=  1.0000000000D+00
 S 1 1.00
     Exponent=  6.7053540256D-02 Coefficients=  1.0000000000D+00
 P 3 1.00
     Exponent=  9.4680970621D+00 Coefficients=  3.8387871728D-02
     Exponent=  2.0103545142D+00 Coefficients=  2.1117025112D-01
     Exponent=  5.4771004707D-01 Coefficients=  5.1328172114D-01
 P 1 1.00
     Exponent=  1.5268613795D-01 Coefficients=  1.0000000000D+00
 D 1 1.00
     Exponent=  8.0000000000D-01 Coefficients=  1.0000000000D+00
 D 1 1.00
     Exponent=  1.1713185140D-01 Coefficients=  1.0000000000D+00
 ****
 Ernie: Thresh=  0.10000D-02 Tol=  0.10000D-05 Strict=F.
 There are    48 symmetry adapted cartesian basis functions of A1  symmetry.
 There are    20 symmetry adapted cartesian basis functions of A2  symmetry.
 There are    26 symmetry adapted cartesian basis functions of B1  symmetry.
 There are    36 symmetry adapted cartesian basis functions of B2  symmetry.
 There are    44 symmetry adapted basis functions of A1  symmetry.
 There are    20 symmetry adapted basis functions of A2  symmetry.
 There are    26 symmetry adapted basis functions of B1  symmetry.
 There are    34 symmetry adapted basis functions of B2  symmetry.
   124 basis functions,   176 primitive gaussians,   130 cartesian basis functions
    13 alpha electrons       13 beta electrons
       nuclear repulsion energy        82.7165400226 Hartrees.
 IExCor= 2523 DFT=T Ex=TPSS Corr=TPSS ExCW=0 ScaHFX=  0.000000
 ScaDFX=  1.000000  1.000000  1.000000  1.000000 ScalE2=  1.000000  1.000000
 IRadAn=      5 IRanWt=     -1 IRanGd=            0 ICorTp=0 IEmpDi=  4
 NAtoms=   11 NActive=   11 NUniq=    5 SFac= 4.00D+00 NAtFMM=   60 NAOKFM=F Big=F
 Integral buffers will be    131072 words long.
 Regular integral format.
 Two-electron integral symmetry is turned on.
 Leave Link  301 at Mon Mar 21 20:20:10 2022, MaxMem=  8589934592 cpu:               0.6 elap:               0.1
 (Enter /home/sabyasachi/g16/l302.exe)
 NPDir=0 NMtPBC=     1 NCelOv=     1 NCel=       1 NClECP=     1 NCelD=      1
         NCelK=      1 NCelE2=     1 NClLst=     1 CellRange=     0.0.
 One-electron integrals computed using PRISM.
 One-electron integral symmetry used in STVInt
 NBasis=   124 RedAO= T EigKep=  2.54D-04  NBF=    44    20    26    34
 NBsUse=   124 1.00D-06 EigRej= -1.00D+00 NBFU=    44    20    26    34
 Precomputing XC quadrature grid using
 IXCGrd= 4 IRadAn=           5 IRanWt=          -1 IRanGd=           0 AccXCQ= 0.00D+00.
 Generated NRdTot=       0 NPtTot=           0 NUsed=           0 NTot=          32
 NSgBfM=   130   130   130   130   130 MxSgAt=    11 MxSgA2=    11.
 Leave Link  302 at Mon Mar 21 20:20:10 2022, MaxMem=  8589934592 cpu:               1.2 elap:               0.2
 (Enter /home/sabyasachi/g16/l303.exe)
 DipDrv:  MaxL=1.
 Leave Link  303 at Mon Mar 21 20:20:10 2022, MaxMem=  8589934592 cpu:               0.2 elap:               0.1
 (Enter /home/sabyasachi/g16/l308.exe)
 Leave Link  308 at Mon Mar 21 20:20:10 2022, MaxMem=  8589934592 cpu:               0.3 elap:               0.1
 (Enter /home/sabyasachi/g16/l401.exe)
 ExpMin= 6.71D-02 ExpMax= 1.24D+03 ExpMxC= 1.86D+02 IAcc=3 IRadAn=         5 AccDes= 0.00D+00
 Harris functional with IExCor= 1009 and IRadAn=       5 diagonalized for initial guess.
 HarFok:  IExCor= 1009 AccDes= 0.00D+00 IRadAn=         5 IDoV= 1 UseB2=F ITyADJ=14
 ICtDFT=  3500011 ScaDFX=  1.000000  1.000000  1.000000  1.000000
 FoFCou: FMM=F IPFlag=           0 FMFlag=      100000 FMFlg1=           0
         NFxFlg=           0 DoJE=T BraDBF=F KetDBF=T FulRan=T
         wScrn=  0.000000 ICntrl=       500 IOpCl=  0 I1Cent=   200000004 NGrid=           0
         NMat0=    1 NMatS0=      1 NMatT0=    0 NMatD0=    1 NMtDS0=    0 NMtDT0=    0
 Petite list used in FoFCou.
 Harris En= -119.006582342474    
 JPrj=0 DoOrth=F DoCkMO=F.
 Initial guess orbital symmetries:
       Occupied  (B2) (A1) (A1) (A1) (B2) (A1) (B1) (A1) (B2) (A2)
                 (B2) (A1) (B1)
       Virtual   (A1) (B2) (A1) (B1) (A1) (A1) (B1) (B2) (A2) (B2)
                 (A1) (A2) (B2) (A1) (B1) (B1) (B2) (A1) (A1) (B2)
                 (A1) (A2) (B1) (B1) (A1) (A1) (A2) (B2) (B1) (B2)
                 (A2) (A1) (A1) (B2) (B1) (A1) (B2) (A2) (A1) (B1)
                 (B1) (A2) (B2) (A1) (A1) (B2) (B1) (A2) (B2) (A1)
                 (B2) (A2) (A1) (B2) (A1) (B1) (B2) (A1) (A1) (B2)
                 (B1) (A2) (A1) (B2) (A1) (B1) (A2) (B2) (B1) (B2)
                 (A1) (A1) (A2) (A1) (B1) (B2) (A2) (B1) (A1) (A2)
                 (B2) (B1) (A1) (A2) (B2) (B1) (A1) (B1) (B2) (A2)
                 (A1) (B1) (B2) (A1) (B2) (A1) (A2) (A1) (B2) (B1)
                 (A1) (B2) (A2) (A1) (B2) (B1) (A1) (B2) (A2) (A1)
                 (B1)
 The electronic state of the initial guess is 1-A1.
 Leave Link  401 at Mon Mar 21 20:20:10 2022, MaxMem=  8589934592 cpu:               2.1 elap:               0.3
 (Enter /home/sabyasachi/g16/l502.exe)
 Keep J ints in memory in symmetry-blocked form, NReq=37708079.
 FoFCou: FMM=F IPFlag=           0 FMFlag=           0 FMFlg1=           0
         NFxFlg=           0 DoJE=F BraDBF=F KetDBF=F FulRan=T
         wScrn=  0.000000 ICntrl=       600 IOpCl=  0 I1Cent=           0 NGrid=           0
         NMat0=    1 NMatS0=   7750 NMatT0=    0 NMatD0=    1 NMtDS0=    0 NMtDT0=    0
 Petite list used in FoFCou.
 Closed shell SCF:
 Using DIIS extrapolation, IDIIS=  1040.
 NGot=  8589934592 LenX=  8582321173 LenY=  8582303832
 Requested convergence on RMS density matrix=1.00D-08 within 100 cycles.
 Requested convergence on MAX density matrix=1.00D-06.
 Requested convergence on             energy=1.00D-06.
 No special actions if energy rises.
 Integral accuracy reduced to 1.0D-05 until final iterations.

 Cycle   1  Pass 0  IDiag  1:
 E= -118.934784676896    
 DIIS: error= 4.04D-02 at cycle   1 NSaved=   1.
 NSaved= 1 IEnMin= 1 EnMin= -118.934784676896     IErMin= 1 ErrMin= 4.04D-02
 ErrMax= 4.04D-02  0.00D+00 EMaxC= 1.00D-01 BMatC= 1.29D-01 BMatP= 1.29D-01
 IDIUse=3 WtCom= 5.96D-01 WtEn= 4.04D-01
 Coeff-Com:  0.100D+01
 Coeff-En:   0.100D+01
 Coeff:      0.100D+01
 Gap=     0.223 Goal=   None    Shift=    0.000
 GapD=    0.223 DampG=1.000 DampE=0.500 DampFc=0.5000 IDamp=-1.
 Damping current iteration by 5.00D-01
 RMSDP=7.35D-03 MaxDP=1.56D-01              OVMax= 2.16D-01

 Cycle   2  Pass 0  IDiag  1:
 E= -118.981815372267     Delta-E=       -0.047030695371 Rises=F Damp=T
 DIIS: error= 1.18D-02 at cycle   2 NSaved=   2.
 NSaved= 2 IEnMin= 2 EnMin= -118.981815372267     IErMin= 2 ErrMin= 1.18D-02
 ErrMax= 1.18D-02  0.00D+00 EMaxC= 1.00D-01 BMatC= 1.07D-02 BMatP= 1.29D-01
 IDIUse=3 WtCom= 8.82D-01 WtEn= 1.18D-01
 Coeff-Com:  0.185D+00 0.815D+00
 Coeff-En:   0.318D+00 0.682D+00
 Coeff:      0.200D+00 0.800D+00
 Gap=     0.303 Goal=   None    Shift=    0.000
 RMSDP=2.07D-03 MaxDP=3.81D-02 DE=-4.70D-02 OVMax= 1.38D-01

 Cycle   3  Pass 0  IDiag  1:
 E= -119.082664269697     Delta-E=       -0.100848897430 Rises=F Damp=F
 DIIS: error= 3.35D-03 at cycle   3 NSaved=   3.
 NSaved= 3 IEnMin= 3 EnMin= -119.082664269697     IErMin= 3 ErrMin= 3.35D-03
 ErrMax= 3.35D-03  0.00D+00 EMaxC= 1.00D-01 BMatC= 9.50D-04 BMatP= 1.07D-02
 IDIUse=3 WtCom= 9.67D-01 WtEn= 3.35D-02
 Coeff-Com:  0.432D-01 0.225D+00 0.731D+00
 Coeff-En:   0.000D+00 0.000D+00 0.100D+01
 Coeff:      0.417D-01 0.218D+00 0.740D+00
 Gap=     0.307 Goal=   None    Shift=    0.000
 RMSDP=6.34D-04 MaxDP=9.52D-03 DE=-1.01D-01 OVMax= 1.19D-02

 Cycle   4  Pass 0  IDiag  1:
 E= -119.083355060800     Delta-E=       -0.000690791103 Rises=F Damp=F
 DIIS: error= 1.32D-03 at cycle   4 NSaved=   4.
 NSaved= 4 IEnMin= 4 EnMin= -119.083355060800     IErMin= 4 ErrMin= 1.32D-03
 ErrMax= 1.32D-03  0.00D+00 EMaxC= 1.00D-01 BMatC= 2.76D-04 BMatP= 9.50D-04
 IDIUse=3 WtCom= 9.87D-01 WtEn= 1.32D-02
 Coeff-Com:  0.503D-02 0.368D-01 0.355D+00 0.603D+00
 Coeff-En:   0.000D+00 0.000D+00 0.185D+00 0.815D+00
 Coeff:      0.497D-02 0.363D-01 0.353D+00 0.606D+00
 Gap=     0.308 Goal=   None    Shift=    0.000
 RMSDP=1.91D-04 MaxDP=5.58D-03 DE=-6.91D-04 OVMax= 4.85D-03

 Cycle   5  Pass 0  IDiag  1:
 E= -119.083609795802     Delta-E=       -0.000254735002 Rises=F Damp=F
 DIIS: error= 4.76D-04 at cycle   5 NSaved=   5.
 NSaved= 5 IEnMin= 5 EnMin= -119.083609795802     IErMin= 5 ErrMin= 4.76D-04
 ErrMax= 4.76D-04  0.00D+00 EMaxC= 1.00D-01 BMatC= 2.21D-05 BMatP= 2.76D-04
 IDIUse=3 WtCom= 9.95D-01 WtEn= 4.76D-03
 Coeff-Com: -0.254D-03 0.793D-04 0.113D+00 0.297D+00 0.590D+00
 Coeff-En:   0.000D+00 0.000D+00 0.000D+00 0.000D+00 0.100D+01
 Coeff:     -0.253D-03 0.789D-04 0.113D+00 0.295D+00 0.592D+00
 Gap=     0.308 Goal=   None    Shift=    0.000
 RMSDP=6.22D-05 MaxDP=1.60D-03 DE=-2.55D-04 OVMax= 1.49D-03

 Cycle   6  Pass 0  IDiag  1:
 E= -119.083631484241     Delta-E=       -0.000021688440 Rises=F Damp=F
 DIIS: error= 5.41D-05 at cycle   6 NSaved=   6.
 NSaved= 6 IEnMin= 6 EnMin= -119.083631484241     IErMin= 6 ErrMin= 5.41D-05
 ErrMax= 5.41D-05  0.00D+00 EMaxC= 1.00D-01 BMatC= 2.79D-07 BMatP= 2.21D-05
 IDIUse=1 WtCom= 1.00D+00 WtEn= 0.00D+00
 Coeff-Com:  0.121D-03-0.898D-03 0.294D-01 0.853D-01 0.205D+00 0.681D+00
 Coeff:      0.121D-03-0.898D-03 0.294D-01 0.853D-01 0.205D+00 0.681D+00
 Gap=     0.308 Goal=   None    Shift=    0.000
 RMSDP=1.04D-05 MaxDP=1.31D-04 DE=-2.17D-05 OVMax= 1.95D-04

 Cycle   7  Pass 0  IDiag  1:
 E= -119.083631826634     Delta-E=       -0.000000342392 Rises=F Damp=F
 DIIS: error= 8.62D-06 at cycle   7 NSaved=   7.
 NSaved= 7 IEnMin= 7 EnMin= -119.083631826634     IErMin= 7 ErrMin= 8.62D-06
 ErrMax= 8.62D-06  0.00D+00 EMaxC= 1.00D-01 BMatC= 8.67D-09 BMatP= 2.79D-07
 IDIUse=1 WtCom= 1.00D+00 WtEn= 0.00D+00
 Coeff-Com:  0.153D-03-0.224D-03 0.283D-03 0.257D-02 0.127D-01 0.164D+00
 Coeff-Com:  0.821D+00
 Coeff:      0.153D-03-0.224D-03 0.283D-03 0.257D-02 0.127D-01 0.164D+00
 Coeff:      0.821D+00
 Gap=     0.308 Goal=   None    Shift=    0.000
 RMSDP=1.51D-06 MaxDP=2.13D-05 DE=-3.42D-07 OVMax= 3.01D-05

 Initial convergence to 1.0D-05 achieved.  Increase integral accuracy.
 Cycle   8  Pass 1  IDiag  1:
 E= -119.083627666520     Delta-E=        0.000004160113 Rises=F Damp=F
 DIIS: error= 1.77D-06 at cycle   1 NSaved=   1.
 NSaved= 1 IEnMin= 1 EnMin= -119.083627666520     IErMin= 1 ErrMin= 1.77D-06
 ErrMax= 1.77D-06  0.00D+00 EMaxC= 1.00D-01 BMatC= 4.66D-10 BMatP= 4.66D-10
 IDIUse=1 WtCom= 1.00D+00 WtEn= 0.00D+00
 Coeff-Com:  0.100D+01
 Coeff:      0.100D+01
 Gap=     0.308 Goal=   None    Shift=    0.000
 RMSDP=1.51D-06 MaxDP=2.13D-05 DE= 4.16D-06 OVMax= 8.34D-06

 Cycle   9  Pass 1  IDiag  1:
 E= -119.083627667156     Delta-E=       -0.000000000636 Rises=F Damp=F
 DIIS: error= 4.23D-07 at cycle   2 NSaved=   2.
 NSaved= 2 IEnMin= 2 EnMin= -119.083627667156     IErMin= 2 ErrMin= 4.23D-07
 ErrMax= 4.23D-07  0.00D+00 EMaxC= 1.00D-01 BMatC= 1.85D-11 BMatP= 4.66D-10
 IDIUse=1 WtCom= 1.00D+00 WtEn= 0.00D+00
 Coeff-Com:  0.690D-01 0.931D+00
 Coeff:      0.690D-01 0.931D+00
 Gap=     0.308 Goal=   None    Shift=    0.000
 RMSDP=1.15D-07 MaxDP=1.61D-06 DE=-6.36D-10 OVMax= 2.34D-06

 Cycle  10  Pass 1  IDiag  1:
 E= -119.083627667168     Delta-E=       -0.000000000012 Rises=F Damp=F
 DIIS: error= 3.86D-07 at cycle   3 NSaved=   3.
 NSaved= 3 IEnMin= 3 EnMin= -119.083627667168     IErMin= 3 ErrMin= 3.86D-07
 ErrMax= 3.86D-07  0.00D+00 EMaxC= 1.00D-01 BMatC= 1.13D-11 BMatP= 1.85D-11
 IDIUse=1 WtCom= 1.00D+00 WtEn= 0.00D+00
 Coeff-Com: -0.437D-02 0.431D+00 0.574D+00
 Coeff:     -0.437D-02 0.431D+00 0.574D+00
 Gap=     0.308 Goal=   None    Shift=    0.000
 RMSDP=4.38D-08 MaxDP=1.03D-06 DE=-1.22D-11 OVMax= 1.14D-06

 Cycle  11  Pass 1  IDiag  1:
 E= -119.083627667175     Delta-E=       -0.000000000007 Rises=F Damp=F
 DIIS: error= 1.30D-07 at cycle   4 NSaved=   4.
 NSaved= 4 IEnMin= 4 EnMin= -119.083627667175     IErMin= 4 ErrMin= 1.30D-07
 ErrMax= 1.30D-07  0.00D+00 EMaxC= 1.00D-01 BMatC= 1.49D-12 BMatP= 1.13D-11
 IDIUse=1 WtCom= 1.00D+00 WtEn= 0.00D+00
 Coeff-Com: -0.590D-02 0.146D+00 0.313D+00 0.547D+00
 Coeff:     -0.590D-02 0.146D+00 0.313D+00 0.547D+00
 Gap=     0.308 Goal=   None    Shift=    0.000
 RMSDP=1.22D-08 MaxDP=3.43D-07 DE=-6.99D-12 OVMax= 3.62D-07

 Cycle  12  Pass 1  IDiag  1:
 E= -119.083627667182     Delta-E=       -0.000000000007 Rises=F Damp=F
 DIIS: error= 8.97D-09 at cycle   5 NSaved=   5.
 NSaved= 5 IEnMin= 5 EnMin= -119.083627667182     IErMin= 5 ErrMin= 8.97D-09
 ErrMax= 8.97D-09  0.00D+00 EMaxC= 1.00D-01 BMatC= 8.42D-15 BMatP= 1.49D-12
 IDIUse=1 WtCom= 1.00D+00 WtEn= 0.00D+00
 Coeff-Com: -0.180D-02 0.350D-01 0.875D-01 0.162D+00 0.717D+00
 Coeff:     -0.180D-02 0.350D-01 0.875D-01 0.162D+00 0.717D+00
 Gap=     0.308 Goal=   None    Shift=    0.000
 RMSDP=2.13D-09 MaxDP=2.42D-08 DE=-6.62D-12 OVMax= 3.67D-08

 SCF Done:  E(RTPSS-TPSS) =  -119.083627667     A.U. after   12 cycles
            NFock= 12  Conv=0.21D-08     -V/T= 2.0127
 KE= 1.175888518427D+02 PE=-4.394296753945D+02 EE= 1.200406558621D+02
 Leave Link  502 at Mon Mar 21 20:20:13 2022, MaxMem=  8589934592 cpu:              18.2 elap:               2.3
 (Enter /home/sabyasachi/g16/l801.exe)
 DoSCS=F DFT=T ScalE2(SS,OS)=  1.000000  1.000000
 ExpMin= 6.71D-02 ExpMax= 1.24D+03 ExpMxC= 1.86D+02 IAcc=3 IRadAn=         5 AccDes= 0.00D+00
 HarFok:  IExCor=  205 AccDes= 0.00D+00 IRadAn=         5 IDoV=-2 UseB2=F ITyADJ=14
 ICtDFT= 12500011 ScaDFX=  1.000000  1.000000  1.000000  1.000000
 Largest valence mixing into a core orbital is  8.16D-05
 Largest core mixing into a valence orbital is  2.81D-05
 Range of M.O.s used for correlation:     4   124
 NBasis=   124 NAE=    13 NBE=    13 NFC=     3 NFV=     0
 NROrb=    121 NOA=    10 NOB=    10 NVA=   111 NVB=   111

 **** Warning!!: The largest alpha MO coefficient is  0.26485840D+02

 Leave Link  801 at Mon Mar 21 20:20:13 2022, MaxMem=  8589934592 cpu:               0.6 elap:               0.1
 (Enter /home/sabyasachi/g16/l914.exe)
 RHF ground state
 Keep J ints in memory in symmetry-blocked form, NReq=1499370331.
 FoFCou: FMM=F IPFlag=           0 FMFlag=           0 FMFlg1=           0
         NFxFlg=           0 DoJE=F BraDBF=F KetDBF=F FulRan=T
         wScrn=  0.000000 ICntrl=       600 IOpCl=  0 I1Cent=           0 NGrid=           0
         NMat0=    1 NMatS0=   7750 NMatT0=    0 NMatD0=    1 NMtDS0=    0 NMtDT0=    0
 Petite list used in FoFCou.
 MDV=  8589934592 DFT=T DoStab=F Mixed=F DoRPA=T DoScal=T NonHer=F
 Making orbital integer symmetry assigments:
 Orbital symmetries:
       Occupied  (A1) (B2) (A1) (A1) (B2) (A1) (B1) (A1) (B2) (A2)
                 (B2) (A1) (B1)
       Virtual   (A1) (B2) (A1) (B1) (A1) (B1) (A1) (B2) (A2) (A2)
                 (A1) (B2) (B1) (B2) (A1) (B1) (B2) (A1) (B2) (A1)
                 (A2) (A1) (B1) (A1) (A1) (B1) (A2) (B1) (B2) (A2)
                 (B2) (A1) (A1) (B1) (B2) (B2) (A2) (A1) (A1) (B1)
                 (A2) (B1) (A1) (B2) (B2) (A1) (B1) (B2) (A1) (A2)
                 (B2) (A2) (A1) (B2) (A1) (B1) (B2) (A1) (A1) (B2)
                 (B1) (A2) (A1) (B2) (A1) (B1) (A2) (B2) (B1) (A1)
                 (B2) (A1) (A2) (A1) (B1) (B2) (A2) (B1) (A1) (A2)
                 (B1) (B2) (A1) (A2) (B2) (B1) (A1) (B2) (B1) (A2)
                 (A1) (B1) (B2) (A1) (B2) (A2) (A1) (A1) (B2) (B1)
                 (A1) (B2) (A2) (A1) (B2) (B1) (A1) (B2) (A2) (A1)
                 (B1)
  1110 initial guesses have been made.
 Convergence on wavefunction:    0.001000000000000
 Davidson Disk Diagonalization:  ConvIn= 1.00D-03 SkipCon=T Conv= 1.00D-03.
 Max sub-space:  4440 roots to seek:  2220 dimension of matrix:         2220
 *** WARNING: Number of orthogonal guesses is         1110
 Iteration     1 Dimension  1110 NMult     0 NNew   1110
 CISAX will form  1110 AO SS matrices at one time.
 NMat=  1110 NSing=  1110 JSym2X=-1.
 New state      2 was old state      3
 New state      3 was old state      2
 New state     12 was old state     13
 New state     13 was old state     12
 New state     29 was old state     30
 New state     30 was old state     31
 New state     31 was old state     29
 New state     36 was old state     38
 New state     38 was old state     36
 New state     41 was old state     42
 New state     42 was old state     43
 New state     43 was old state     41
 New state     47 was old state     48
 New state     48 was old state     47
 New state     49 was old state     50
 New state     50 was old state     49
 New state     51 was old state     52
 New state     52 was old state     51
 New state     58 was old state     61
 New state     59 was old state     58
 New state     61 was old state     62
 New state     62 was old state     65
 New state     65 was old state     67
 New state     67 was old state     68
 New state     68 was old state     70
 New state     69 was old state     71
 New state     70 was old state     69
 New state     71 was old state     75
 New state     72 was old state     73
 New state     73 was old state     72
 New state     75 was old state     77
 New state     76 was old state     79
 New state     77 was old state     80
 New state     78 was old state     81
 New state     79 was old state     78
 New state     80 was old state     82
 New state     81 was old state     83
 New state     82 was old state     84
 New state     83 was old state     90
 New state     84 was old state     85
 New state     85 was old state     88
 New state     87 was old state     89
 New state     88 was old state     87
 New state     89 was old state    115
 New state     90 was old state     91
 New state     91 was old state     92
 New state     92 was old state     93
 New state     93 was old state     95
 New state     95 was old state     97
 New state     97 was old state    110
 New state     98 was old state     99
 New state     99 was old state     98
 New state    104 was old state    106
 New state    105 was old state    108
 New state    106 was old state    109
 New state    108 was old state    111
 New state    109 was old state    104
 New state    110 was old state    112
 No map to state    111
 New state    112 was old state    113
 New state    113 was old state    114
 New state    114 was old state    116
 New state    115 was old state    119
 New state    116 was old state    117
 New state    117 was old state    118
 New state    118 was old state    125
 New state    119 was old state    124
 New state    123 was old state    127
 New state    124 was old state    128
 New state    125 was old state    126
 New state    126 was old state    123
 New state    127 was old state    130
 New state    128 was old state    133
 New state    130 was old state    131
 New state    131 was old state    132
 New state    132 was old state    134
 New state    133 was old state    135
 New state    134 was old state    136
 New state    135 was old state    137
 No map to state    136
 New state    137 was old state    138
 New state    138 was old state    142
 New state    139 was old state    140
 New state    140 was old state    139
 New state    142 was old state    155
 New state    145 was old state    146
 New state    146 was old state    145
 New state    147 was old state    148
 New state    148 was old state    150
 New state    149 was old state    154
 New state    150 was old state    151
 New state    151 was old state    153
 New state    152 was old state    156
 New state    153 was old state    147
 New state    154 was old state    149
 New state    155 was old state    152
 New state    156 was old state    163
 New state    157 was old state    158
 New state    158 was old state    164
 New state    159 was old state    167
 New state    160 was old state    159
 New state    161 was old state    162
 New state    162 was old state    169
 New state    163 was old state    166
 New state    164 was old state    168
 New state    165 was old state    179
 New state    166 was old state    171
 New state    167 was old state    161
 New state    168 was old state    165
 New state    169 was old state    172
 New state    170 was old state    160
 New state    171 was old state    170
 New state    172 was old state    174
 New state    173 was old state    157
 New state    174 was old state    175
 New state    175 was old state    180
 New state    176 was old state    177
 New state    177 was old state    178
 New state    178 was old state    176
 New state    179 was old state    173
 New state    180 was old state    182
 New state    181 was old state    184
 New state    182 was old state    181
 New state    184 was old state    205
 New state    185 was old state    186
 New state    186 was old state    187
 New state    187 was old state    188
 New state    188 was old state    185
 New state    191 was old state    197
 New state    192 was old state    199
 New state    193 was old state    192
 New state    194 was old state    193
 New state    195 was old state    198
 New state    197 was old state    202
 New state    198 was old state    204
 New state    199 was old state    201
 New state    200 was old state    191
 New state    201 was old state    203
 New state    202 was old state    200
 New state    203 was old state    206
 New state    204 was old state    195
 New state    205 was old state    210
 New state    206 was old state    207
 New state    207 was old state    209
 New state    209 was old state    212
 New state    210 was old state    215
 New state    211 was old state    227
 New state    212 was old state    217
 New state    213 was old state    216
 New state    214 was old state    211
 New state    215 was old state    213
 New state    216 was old state    214
 New state    217 was old state    218
 New state    218 was old state    222
 New state    219 was old state    223
 New state    220 was old state    219
 New state    222 was old state    224
 New state    223 was old state    225
 New state    224 was old state    226
 New state    225 was old state    220
 New state    226 was old state    194
 New state    227 was old state    230
 New state    229 was old state    233
 New state    230 was old state    229
 New state    231 was old state    234
 New state    233 was old state    231
 New state    234 was old state    237
 New state    237 was old state    242
 New state    238 was old state    244
 New state    239 was old state    241
 New state    240 was old state    239
 New state    241 was old state    240
 New state    242 was old state    246
 New state    243 was old state    247
 New state    244 was old state    243
 New state    246 was old state    250
 New state    247 was old state    251
 New state    250 was old state    252
 New state    251 was old state    256
 New state    252 was old state    253
 New state    253 was old state    267
 New state    255 was old state    259
 New state    256 was old state    257
 New state    257 was old state    260
 New state    258 was old state    255
 New state    259 was old state    262
 New state    260 was old state    264
 New state    261 was old state    258
 New state    262 was old state    266
 New state    263 was old state    274
 New state    264 was old state    270
 New state    265 was old state    271
 New state    266 was old state    273
 New state    267 was old state    263
 New state    268 was old state    269
 New state    269 was old state    272
 New state    270 was old state    261
 New state    271 was old state    265
 New state    272 was old state    275
 New state    273 was old state    284
 New state    274 was old state    280
 New state    275 was old state    279
 New state    276 was old state    277
 New state    277 was old state    282
 New state    278 was old state    283
 New state    279 was old state    281
 New state    280 was old state    278
 New state    281 was old state    293
 New state    282 was old state    287
 New state    283 was old state    288
 New state    284 was old state    286
 New state    286 was old state    290
 New state    287 was old state    291
 New state    288 was old state    297
 New state    290 was old state    294
 New state    291 was old state    292
 New state    292 was old state    295
 New state    293 was old state    296
 New state    294 was old state    299
 New state    295 was old state    300
 New state    296 was old state    298
 New state    297 was old state    303
 New state    298 was old state    301
 New state    299 was old state    307
 New state    300 was old state    308
 New state    301 was old state    305
 New state    303 was old state    310
 New state    304 was old state    312
 New state    305 was old state    304
 New state    306 was old state    318
 New state    307 was old state    306
 New state    308 was old state    309
 New state    309 was old state    327
 New state    310 was old state    315
 New state    311 was old state    313
 New state    312 was old state    311
 No map to state    313
 New state    315 was old state    328
 New state    316 was old state    317
 New state    317 was old state    316
 New state    318 was old state    323
 New state    320 was old state    325
 New state    321 was old state    329
 New state    322 was old state    324
 New state    323 was old state    321
 New state    324 was old state    322
 New state    325 was old state    326
 New state    326 was old state    332
 New state    327 was old state    333
 New state    328 was old state    330
 New state    329 was old state    331
 New state    330 was old state    336
 New state    331 was old state    337
 New state    332 was old state    335
 New state    333 was old state    334
 New state    334 was old state    359
 New state    335 was old state    338
 New state    336 was old state    340
 New state    337 was old state    342
 New state    338 was old state    341
 New state    339 was old state    343
 New state    340 was old state    339
 New state    341 was old state    348
 New state    342 was old state    356
 New state    343 was old state    345
 New state    344 was old state    357
 New state    345 was old state    347
 New state    346 was old state    349
 New state    347 was old state    350
 New state    348 was old state    352
 New state    349 was old state    344
 New state    350 was old state    351
 New state    351 was old state    355
 New state    352 was old state    346
 New state    353 was old state    362
 New state    354 was old state    353
 New state    355 was old state    372
 New state    356 was old state    358
 New state    357 was old state    354
 New state    358 was old state    364
 New state    359 was old state    363
 New state    360 was old state    361
 New state    361 was old state    360
 New state    362 was old state    365
 New state    363 was old state    368
 New state    364 was old state    371
 New state    365 was old state    366
 New state    366 was old state    374
 New state    368 was old state    369
 New state    369 was old state    370
 New state    370 was old state    375
 New state    371 was old state    373
 New state    372 was old state    378
 New state    373 was old state    382
 New state    374 was old state    377
 New state    375 was old state    376
 New state    376 was old state    387
 New state    377 was old state    380
 New state    378 was old state    389
 New state    380 was old state    385
 New state    381 was old state    386
 New state    382 was old state    384
 New state    383 was old state    391
 New state    384 was old state    383
 New state    385 was old state    390
 New state    386 was old state    393
 New state    387 was old state    388
 New state    388 was old state    400
 New state    389 was old state    395
 New state    390 was old state    392
 New state    391 was old state    394
 New state    392 was old state    399
 New state    393 was old state    403
 New state    394 was old state    398
 New state    395 was old state    397
 New state    396 was old state    401
 New state    397 was old state    396
 New state    398 was old state    405
 New state    399 was old state    402
 New state    400 was old state    408
 New state    401 was old state    406
 New state    402 was old state    404
 New state    403 was old state    407
 New state    404 was old state    409
 New state    405 was old state    410
 New state    406 was old state    381
 New state    407 was old state    411
 New state    408 was old state    418
 New state    409 was old state    413
 New state    410 was old state    417
 New state    411 was old state    414
 New state    412 was old state    416
 New state    413 was old state    421
 New state    414 was old state    415
 New state    415 was old state    426
 New state    416 was old state    419
 New state    417 was old state    451
 New state    418 was old state    422
 New state    419 was old state    420
 New state    420 was old state    424
 New state    421 was old state    431
 New state    422 was old state    425
 New state    423 was old state    412
 New state    424 was old state    423
 New state    425 was old state    427
 New state    426 was old state    428
 New state    427 was old state    430
 New state    428 was old state    436
 New state    429 was old state    435
 New state    430 was old state    429
 New state    431 was old state    434
 New state    433 was old state    446
 New state    434 was old state    433
 New state    435 was old state    437
 New state    436 was old state    438
 New state    437 was old state    449
 New state    438 was old state    441
 New state    439 was old state    440
 New state    440 was old state    442
 New state    441 was old state    443
 New state    442 was old state    439
 New state    443 was old state    444
 New state    444 was old state    452
 New state    446 was old state    447
 New state    447 was old state    454
 New state    448 was old state    450
 New state    449 was old state    448
 New state    450 was old state    461
 New state    451 was old state    455
 New state    452 was old state    459
 New state    454 was old state    457
 New state    455 was old state    464
 New state    456 was old state    458
 New state    457 was old state    456
 New state    458 was old state    460
 New state    459 was old state    489
 New state    460 was old state    463
 No map to state    461
 No map to state    462
 New state    463 was old state    462
 New state    464 was old state    468
 New state    468 was old state    469
 New state    469 was old state    473
 New state    471 was old state    474
 New state    472 was old state    471
 New state    473 was old state    472
 New state    474 was old state    475
 New state    475 was old state    484
 New state    479 was old state    480
 New state    480 was old state    479
 New state    481 was old state    482
 No map to state    482
 New state    484 was old state    481
 New state    488 was old state    490
 New state    489 was old state    488
 New state    490 was old state    495
 New state    491 was old state    494
 New state    492 was old state    493
 New state    493 was old state    496
 New state    494 was old state    491
 New state    495 was old state    492
 New state    496 was old state    499
 New state    499 was old state    501
 New state    500 was old state    502
 New state    501 was old state    503
 New state    502 was old state    500
 New state    503 was old state    506
 New state    506 was old state    508
 New state    507 was old state    509
 New state    508 was old state    510
 No map to state    509
 New state    510 was old state    513
 New state    513 was old state    514
 New state    514 was old state    515
 New state    515 was old state    517
 New state    516 was old state    519
 New state    517 was old state    518
 New state    518 was old state    516
 New state    519 was old state    520
 New state    520 was old state    521
 New state    521 was old state    522
 New state    522 was old state    523
 New state    523 was old state    529
 New state    524 was old state    525
 New state    525 was old state    526
 New state    526 was old state    524
 New state    527 was old state    531
 New state    529 was old state    527
 New state    531 was old state    539
 New state    532 was old state    533
 New state    533 was old state    534
 New state    534 was old state    532
 New state    535 was old state    536
 New state    536 was old state    537
 New state    537 was old state    538
 New state    538 was old state    545
 New state    539 was old state    541
 New state    540 was old state    535
 New state    541 was old state    542
 New state    542 was old state    540
 New state    545 was old state    547
 New state    547 was old state    548
 New state    548 was old state    549
 New state    549 was old state    556
 New state    554 was old state    555
 New state    555 was old state    559
 New state    556 was old state    560
 New state    557 was old state    563
 New state    558 was old state    554
 New state    559 was old state    557
 New state    560 was old state    564
 New state    561 was old state    562
 New state    562 was old state    558
 New state    563 was old state    561
 New state    564 was old state    568
 New state    566 was old state    567
 New state    567 was old state    570
 New state    568 was old state    569
 New state    569 was old state    566
 New state    570 was old state    573
 New state    573 was old state    574
 New state    574 was old state    575
 New state    575 was old state    576
 New state    576 was old state    577
 New state    577 was old state    578
 New state    578 was old state    580
 New state    579 was old state    581
 New state    580 was old state    579
 New state    581 was old state    582
 New state    582 was old state    586
 New state    583 was old state    587
 New state    584 was old state    585
 New state    585 was old state    588
 New state    586 was old state    583
 New state    587 was old state    589
 New state    588 was old state    584
 New state    589 was old state    591
 New state    591 was old state    592
 New state    592 was old state    593
 New state    593 was old state    594
 New state    594 was old state    595
 New state    595 was old state    598
 New state    596 was old state    601
 New state    597 was old state    596
 New state    598 was old state    599
 New state    599 was old state    600
 New state    600 was old state    597
 New state    601 was old state    604
 New state    602 was old state    605
 New state    603 was old state    606
 New state    604 was old state    609
 New state    605 was old state    603
 New state    606 was old state    602
 New state    607 was old state    611
 New state    608 was old state    613
 New state    609 was old state    608
 New state    611 was old state    614
 New state    612 was old state    622
 New state    613 was old state    615
 New state    614 was old state    616
 New state    615 was old state    617
 New state    616 was old state    624
 New state    617 was old state    619
 New state    618 was old state    620
 New state    619 was old state    618
 New state    620 was old state    621
 New state    621 was old state    623
 New state    622 was old state    628
 New state    623 was old state    626
 New state    624 was old state    625
 New state    625 was old state    627
 New state    626 was old state    635
 New state    627 was old state    629
 New state    628 was old state    637
 New state    629 was old state    634
 New state    631 was old state    632
 New state    632 was old state    631
 New state    634 was old state    638
 New state    635 was old state    641
 New state    636 was old state    642
 New state    637 was old state    639
 New state    638 was old state    640
 New state    639 was old state    636
 New state    640 was old state    653
 New state    641 was old state    643
 New state    642 was old state    645
 New state    643 was old state    652
 New state    644 was old state    646
 New state    645 was old state    647
 New state    646 was old state    644
 New state    647 was old state    648
 New state    648 was old state    649
 New state    649 was old state    651
 New state    651 was old state    656
 New state    652 was old state    657
 New state    653 was old state    654
 New state    654 was old state    655
 New state    655 was old state    660
 New state    656 was old state    658
 New state    657 was old state    659
 New state    658 was old state    662
 New state    659 was old state    661
 New state    660 was old state    667
 New state    661 was old state    665
 New state    662 was old state    663
 New state    663 was old state    666
 New state    665 was old state    680
 New state    666 was old state    668
 New state    667 was old state    674
 New state    668 was old state    669
 New state    669 was old state    670
 New state    670 was old state    671
 New state    671 was old state    673
 New state    673 was old state    675
 New state    674 was old state    677
 New state    675 was old state    676
 New state    676 was old state    682
 New state    677 was old state    679
 New state    678 was old state    683
 New state    679 was old state    678
 New state    680 was old state    681
 New state    681 was old state    686
 New state    682 was old state    685
 New state    683 was old state    684
 New state    684 was old state    687
 New state    685 was old state    689
 No map to state    686
 New state    687 was old state    688
 New state    688 was old state    691
 New state    689 was old state    692
 New state    691 was old state    693
 New state    692 was old state    694
 New state    693 was old state    695
 New state    694 was old state    697
 No map to state    695
 New state    697 was old state    700
 New state    698 was old state    699
 New state    699 was old state    698
 New state    700 was old state    701
 New state    701 was old state    702
 New state    702 was old state    710
 New state    706 was old state    707
 New state    707 was old state    706
 No map to state    710
 New state    712 was old state    713
 New state    713 was old state    712
 New state    715 was old state    717
 New state    717 was old state    718
 New state    718 was old state    715
 New state    721 was old state    722
 New state    722 was old state    721
 New state    724 was old state    725
 New state    725 was old state    724
 New state    727 was old state    728
 New state    728 was old state    727
 New state    729 was old state    731
 New state    730 was old state    732
 New state    731 was old state    733
 New state    732 was old state    730
 New state    733 was old state    729
 New state    735 was old state    737
 New state    736 was old state    735
 New state    737 was old state    736
 New state    742 was old state    745
 New state    743 was old state    746
 New state    744 was old state    742
 New state    745 was old state    744
 New state    746 was old state    743
 New state    747 was old state    750
 New state    748 was old state    749
 New state    749 was old state    748
 New state    750 was old state    747
 New state    751 was old state    753
 New state    752 was old state    754
 New state    753 was old state    752
 New state    754 was old state    755
 New state    755 was old state    751
 New state    756 was old state    757
 New state    757 was old state    756
 New state    772 was old state    775
 New state    773 was old state    772
 New state    774 was old state    773
 New state    775 was old state    776
 New state    776 was old state    778
 New state    778 was old state    779
 New state    779 was old state    774
 New state    787 was old state    788
 New state    788 was old state    787
 New state    790 was old state    792
 New state    792 was old state    790
 New state    796 was old state    798
 New state    797 was old state    796
 New state    798 was old state    797
 New state    799 was old state    800
 New state    800 was old state    801
 New state    801 was old state    803
 New state    802 was old state    799
 New state    803 was old state    802
 New state    810 was old state    811
 New state    811 was old state    812
 New state    812 was old state    813
 New state    813 was old state    810
 New state    814 was old state    815
 New state    815 was old state    816
 New state    816 was old state    814
 New state    817 was old state    819
 New state    818 was old state    821
 New state    819 was old state    822
 New state    820 was old state    823
 New state    821 was old state    817
 New state    822 was old state    818
 New state    823 was old state    820
 New state    825 was old state    826
 New state    826 was old state    825
 New state    829 was old state    830
 New state    830 was old state    831
 New state    831 was old state    833
 New state    833 was old state    829
 New state    834 was old state    835
 New state    835 was old state    834
 New state    836 was old state    837
 New state    837 was old state    841
 New state    839 was old state    836
 New state    840 was old state    839
 New state    841 was old state    840
 New state    844 was old state    845
 New state    845 was old state    844
 New state    847 was old state    850
 New state    848 was old state    847
 New state    850 was old state    848
 New state    851 was old state    852
 New state    852 was old state    851
 New state    853 was old state    854
 New state    854 was old state    853
 New state    857 was old state    858
 New state    858 was old state    860
 New state    860 was old state    862
 New state    862 was old state    857
 New state    869 was old state    870
 New state    870 was old state    869
 New state    872 was old state    876
 New state    874 was old state    872
 New state    875 was old state    874
 New state    876 was old state    875
 New state    879 was old state    880
 New state    880 was old state    881
 New state    881 was old state    879
 New state    886 was old state    888
 New state    887 was old state    886
 New state    888 was old state    889
 New state    889 was old state    887
 New state    890 was old state    893
 New state    891 was old state    890
 New state    892 was old state    891
 New state    893 was old state    894
 New state    894 was old state    892
 New state    895 was old state    896
 New state    896 was old state    895
 New state    900 was old state    901
 New state    901 was old state    900
 New state    903 was old state    904
 New state    904 was old state    903
 New state    907 was old state    908
 New state    908 was old state    907
 New state    913 was old state    914
 New state    914 was old state    915
 New state    915 was old state    913
 New state    924 was old state    926
 New state    925 was old state    924
 New state    926 was old state    925
 New state    931 was old state    932
 New state    932 was old state    934
 New state    934 was old state    935
 New state    935 was old state    931
 New state    937 was old state    938
 New state    938 was old state    937
 New state    943 was old state    944
 New state    944 was old state    943
 New state    945 was old state    946
 New state    946 was old state    945
 New state    951 was old state    952
 New state    952 was old state    953
 New state    953 was old state    951
 New state    960 was old state    961
 New state    961 was old state    960
 New state    974 was old state    976
 New state    975 was old state    974
 New state    976 was old state    975
 New state    981 was old state    982
 New state    982 was old state    981
 New state    983 was old state    984
 New state    984 was old state    983
 New state    985 was old state    986
 New state    986 was old state    985
 New state    994 was old state    996
 New state    996 was old state    994
 New state   1010 was old state   1011
 New state   1011 was old state   1010
 New state   1021 was old state   1022
 New state   1022 was old state   1021
 New state   1025 was old state   1026
 New state   1026 was old state   1025
 New state   1030 was old state   1032
 New state   1031 was old state   1033
 New state   1032 was old state   1030
 New state   1033 was old state   1031
 New state   1036 was old state   1037
 New state   1037 was old state   1036
 New state   1042 was old state   1043
 New state   1043 was old state   1042
 New state   1046 was old state   1047
 New state   1047 was old state   1048
 New state   1048 was old state   1049
 New state   1049 was old state   1046
 New state   1054 was old state   1059
 New state   1055 was old state   1054
 New state   1056 was old state   1055
 New state   1057 was old state   1056
 New state   1058 was old state   1057
 New state   1059 was old state   1058
 New state   1062 was old state   1063
 New state   1063 was old state   1062
 New state   1065 was old state   1069
 New state   1066 was old state   1068
 New state   1067 was old state   1065
 New state   1068 was old state   1066
 New state   1069 was old state   1071
 New state   1070 was old state   1067
 New state   1071 was old state   1070
 New state   1073 was old state   1074
 New state   1074 was old state   1075
 New state   1075 was old state   1076
 New state   1076 was old state   1073
 New state   1096 was old state   1097
 New state   1097 was old state   1096
 Excitation Energies [eV] at current iteration:
 Root      1 :     8.382430369042307
 Root      2 :     8.653428101334429
 Root      3 :     8.681256340935295
 Root      4 :     9.155582796515141
 Root      5 :     9.381362675835096
 Root      6 :     9.394335787637214
 Root      7 :     9.466343861757565
 Root      8 :     9.599042837756841
 Root      9 :     9.623527463945534
 Root     10 :     9.758021194640673
 Root     11 :    10.007623445863820
 Root     12 :    10.143036605695990
 Root     13 :    10.156704918912510
 Root     14 :    10.268444840722400
 Root     15 :    10.341720122181320
 Root     16 :    10.562439951567860
 Root     17 :    10.645033556518260
 Root     18 :    10.655080213691790
 Root     19 :    10.718646397456560
 Root     20 :    10.974317694992590
 Root     21 :    11.056259247220400
 Root     22 :    11.078578951107890
 Root     23 :    11.097702760386810
 Root     24 :    11.146083904913760
 Root     25 :    11.152029649534330
 Root     26 :    11.186847951418020
 Root     27 :    11.271183596320370
 Root     28 :    11.297026262918990
 Root     29 :    11.375251165953650
 Root     30 :    11.424820028696620
 Root     31 :    11.448295714500390
 Root     32 :    11.489141384999460
 Root     33 :    11.653258145501750
 Root     34 :    11.695290533497640
 Root     35 :    11.728570624455490
 Root     36 :    11.805517876829570
 Root     37 :    11.817574797202360
 Root     38 :    11.828704751182420
 Root     39 :    11.962839746889360
 Root     40 :    12.061779770153260
 Root     41 :    12.106639133570910
 Root     42 :    12.128526079176600
 Root     43 :    12.153550284533200
 Root     44 :    12.201351001450940
 Root     45 :    12.242433973478180
 Root     46 :    12.331991329280180
 Root     47 :    12.343841508571850
 Root     48 :    12.384262508750620
 Root     49 :    12.457515651180800
 Root     50 :    12.465621303415360
 Root     51 :    12.533156117615770
 Root     52 :    12.539911211360500
 Root     53 :    12.622612079229100
 Root     54 :    12.672830172096870
 Root     55 :    12.693427422383950
 Root     56 :    12.727662971621880
 Root     57 :    12.741852255247530
 Root     58 :    12.921070927985360
 Root     59 :    13.017999560146470
 Root     60 :    13.023247083729330
 Root     61 :    13.049365509118920
 Root     62 :    13.101458788977870
 Root     63 :    13.108402294636940
 Root     64 :    13.167042233495250
 Root     65 :    13.215471523700780
 Root     66 :    13.299428508518980
 Root     67 :    13.320660987821530
 Root     68 :    13.333999905045900
 Root     69 :    13.405053115815430
 Root     70 :    13.437580053714390
 Root     71 :    13.479389573905190
 Root     72 :    13.510943080948740
 Root     73 :    13.659704559310610
 Root     74 :    13.668343446785470
 Root     75 :    13.671326670936680
 Root     76 :    13.675831475439480
 Root     77 :    13.700311956488290
 Root     78 :    13.726526569590100
 Root     79 :    13.736250508598740
 Root     80 :    13.931820204087770
 Root     81 :    13.996719812894920
 Root     82 :    14.093315650355160
 Root     83 :    14.118434276796250
 Root     84 :    14.222179683573520
 Root     85 :    14.289291884419940
 Root     86 :    14.333418639362660
 Root     87 :    14.396248383851780
 Root     88 :    14.397634216176600
 Root     89 :    14.438798598900780
 Root     90 :    14.504901850321700
 Root     91 :    14.516204166161510
 Root     92 :    14.581737842487070
 Root     93 :    14.593987885547610
 Root     94 :    14.690651315855170
 Root     95 :    14.695291205172760
 Root     96 :    14.749032133466570
 Root     97 :    14.816241676694980
 Root     98 :    14.845845554706590
 Root     99 :    14.873107566704970
 Root    100 :    14.905995941526090
 Root    101 :    14.980275652355680
 Root    102 :    15.001836634667370
 Root    103 :    15.046003335989960
 Root    104 :    15.063427899779320
 Root    105 :    15.295921533015530
 Root    106 :    15.302081532556130
 Root    107 :    15.344049015619390
 Root    108 :    15.482980867457090
 Root    109 :    15.483193495243280
 Root    110 :    15.520318567713580
 Root    111 :    15.682145211620960
 Root    112 :    15.758866270360860
 Root    113 :    15.763755487318090
 Root    114 :    15.776465515206590
 Root    115 :    15.876073972140220
 Root    116 :    15.982526475369230
 Root    117 :    15.984338833599680
 Root    118 :    15.987918449743720
 Root    119 :    16.058522995895190
 Root    120 :    16.061545795457730
 Root    121 :    16.089679337309720
 Root    122 :    16.145383317626360
 Root    123 :    16.197331050204890
 Root    124 :    16.206777466783600
 Root    125 :    16.218202072751490
 Root    126 :    16.246303033036660
 Root    127 :    16.256704425122890
 Root    128 :    16.298787243481510
 Root    129 :    16.303453945773540
 Root    130 :    16.383481273528740
 Root    131 :    16.446276479901450
 Root    132 :    16.449041372371680
 Root    133 :    16.464014780958770
 Root    134 :    16.531797998769500
 Root    135 :    16.570398070208760
 Root    136 :    16.655759112848410
 Root    137 :    16.678025811505140
 Root    138 :    16.729472561940500
 Root    139 :    16.765999924047560
 Root    140 :    16.832510565461180
 Root    141 :    16.905430856281210
 Root    142 :    16.992216091032800
 Root    143 :    17.123267842529470
 Root    144 :    17.196443701987960
 Root    145 :    17.278628454153910
 Root    146 :    17.280427767960300
 Root    147 :    17.347314985054500
 Root    148 :    17.360908123325700
 Root    149 :    17.362524604802360
 Root    150 :    17.405816796568670
 Root    151 :    17.408995401695710
 Root    152 :    17.473853622733690
 Root    153 :    17.475627312195200
 Root    154 :    17.529055555080480
 Root    155 :    17.530881217520210
 Root    156 :    17.566469912050230
 Root    157 :    17.589643915780650
 Root    158 :    17.617317843436460
 Root    159 :    17.621736682723720
 Root    160 :    17.627974504521800
 Root    161 :    17.646541949651720
 Root    162 :    17.655765354446120
 Root    163 :    17.677717391549900
 Root    164 :    17.694225729944120
 Root    165 :    17.702173939888700
 Root    166 :    17.732560789711450
 Root    167 :    17.747224082908430
 Root    168 :    17.776677165076800
 Root    169 :    17.850807414937650
 Root    170 :    17.853838256272590
 Root    171 :    17.883856167081860
 Root    172 :    17.928852782726230
 Root    173 :    17.970664285583520
 Root    174 :    17.990716955340370
 Root    175 :    18.091403040380750
 Root    176 :    18.094081305681060
 Root    177 :    18.099793831407900
 Root    178 :    18.153855464665330
 Root    179 :    18.255981410796660
 Root    180 :    18.295073883041170
 Root    181 :    18.355910016833960
 Root    182 :    18.366206468257810
 Root    183 :    18.375172419995640
 Root    184 :    18.408842611663090
 Root    185 :    18.412935841032690
 Root    186 :    18.422298709957790
 Root    187 :    18.523263716024060
 Root    188 :    18.571342620905600
 Root    189 :    18.689418079969410
 Root    190 :    18.723767540553940
 Root    191 :    18.738416753850310
 Root    192 :    18.746805079947520
 Root    193 :    18.759899182748770
 Root    194 :    18.777080179676520
 Root    195 :    18.784365826361480
 Root    196 :    18.818579042876630
 Root    197 :    18.838886766381660
 Root    198 :    18.863741357867700
 Root    199 :    18.865689834636400
 Root    200 :    18.879734872864240
 Root    201 :    18.897546369600810
 Root    202 :    18.917634291493910
 Root    203 :    18.919221564080300
 Root    204 :    18.978567515288370
 Root    205 :    19.004516164573980
 Root    206 :    19.039310517636720
 Root    207 :    19.066206117176250
 Root    208 :    19.067514180154050
 Root    209 :    19.123015593869570
 Root    210 :    19.127298894810590
 Root    211 :    19.140468418448900
 Root    212 :    19.203075536309690
 Root    213 :    19.217766024007970
 Root    214 :    19.259415563972490
 Root    215 :    19.278491063103960
 Root    216 :    19.281460669652240
 Root    217 :    19.335667043427480
 Root    218 :    19.362896085156830
 Root    219 :    19.371954606436250
 Root    220 :    19.374731538559480
 Root    221 :    19.413400335884630
 Root    222 :    19.438154228598070
 Root    223 :    19.535937706730800
 Root    224 :    19.563541714968870
 Root    225 :    19.609198497038260
 Root    226 :    19.612768723798960
 Root    227 :    19.675319078633060
 Root    228 :    19.709561096736690
 Root    229 :    19.815511886122430
 Root    230 :    19.838973743535100
 Root    231 :    19.852139687637120
 Root    232 :    19.854618827406880
 Root    233 :    19.937555575459660
 Root    234 :    19.984263060024410
 Root    235 :    20.016821614222390
 Root    236 :    20.038628999377450
 Root    237 :    20.045670829762610
 Root    238 :    20.053043233357760
 Root    239 :    20.130091925862110
 Root    240 :    20.172207383481120
 Root    241 :    20.191889130017960
 Root    242 :    20.196064370239150
 Root    243 :    20.227932886573650
 Root    244 :    20.238136892999590
 Root    245 :    20.246729423649630
 Root    246 :    20.295486548161840
 Root    247 :    20.300938498899620
 Root    248 :    20.315154628760980
 Root    249 :    20.360148300351760
 Root    250 :    20.420161586863820
 Root    251 :    20.444732478067800
 Root    252 :    20.458752257737870
 Root    253 :    20.565022568253470
 Root    254 :    20.580700279404290
 Root    255 :    20.648827189890070
 Root    256 :    20.662869279983760
 Root    257 :    20.690264533255090
 Root    258 :    20.693698945581120
 Root    259 :    20.702060801241410
 Root    260 :    20.742789508701290
 Root    261 :    20.752789781267910
 Root    262 :    20.778188121437790
 Root    263 :    20.828606917134470
 Root    264 :    20.842463524790330
 Root    265 :    20.886602776573350
 Root    266 :    20.889702132360470
 Root    267 :    20.963938926845050
 Root    268 :    20.985704533559310
 Root    269 :    20.992548364989250
 Root    270 :    21.020578583850060
 Root    271 :    21.039262026466090
 Root    272 :    21.067848565878820
 Root    273 :    21.070639497175230
 Root    274 :    21.104955655586030
 Root    275 :    21.206534471188030
 Root    276 :    21.209683048563350
 Root    277 :    21.221794503048340
 Root    278 :    21.265278345156580
 Root    279 :    21.284104782397430
 Root    280 :    21.316416735290470
 Root    281 :    21.323414581924280
 Root    282 :    21.337164588347950
 Root    283 :    21.370694711887210
 Root    284 :    21.380514314249500
 Root    285 :    21.405799447783730
 Root    286 :    21.414723324076550
 Root    287 :    21.467685051479760
 Root    288 :    21.472985219722850
 Root    289 :    21.477826239658520
 Root    290 :    21.518557062596820
 Root    291 :    21.531583902754740
 Root    292 :    21.603122442314510
 Root    293 :    21.616208209529880
 Root    294 :    21.660189661945530
 Root    295 :    21.673158909218090
 Root    296 :    21.706247674303160
 Root    297 :    21.754228210193590
 Root    298 :    21.801069374413900
 Root    299 :    21.806940199342870
 Root    300 :    21.823056267503790
 Root    301 :    21.879026935003140
 Root    302 :    21.879530671149190
 Root    303 :    21.886236401585320
 Root    304 :    21.920803854156060
 Root    305 :    21.941216912698840
 Root    306 :    22.019544573867890
 Root    307 :    22.021755073216080
 Root    308 :    22.045457582454110
 Root    309 :    22.179110177819930
 Root    310 :    22.247060643952270
 Root    311 :    22.260211965188180
 Root    312 :    22.294914469025400
 Root    313 :    22.307466149688210
 Root    314 :    22.309043933820800
 Root    315 :    22.336685899640470
 Root    316 :    22.341257583157820
 Root    317 :    22.362272979454880
 Root    318 :    22.435476793354050
 Root    319 :    22.460363332368100
 Root    320 :    22.499807826278660
 Root    321 :    22.524603966391530
 Root    322 :    22.544349461774140
 Root    323 :    22.548341350335440
 Root    324 :    22.559944379289710
 Root    325 :    22.598677001081110
 Root    326 :    22.651787088098440
 Root    327 :    22.663454439610860
 Root    328 :    22.771817752865650
 Root    329 :    22.777128218702360
 Root    330 :    22.798182735567510
 Root    331 :    22.811649027380920
 Root    332 :    22.869884154350220
 Root    333 :    22.881488484103870
 Root    334 :    22.934447292245630
 Root    335 :    22.934612189282160
 Root    336 :    22.953146574921630
 Root    337 :    23.018302532062660
 Root    338 :    23.052473330267170
 Root    339 :    23.080031984465090
 Root    340 :    23.122470907753240
 Root    341 :    23.185689458387650
 Root    342 :    23.213178484954650
 Root    343 :    23.226307157374390
 Root    344 :    23.239426253801140
 Root    345 :    23.246134940386820
 Root    346 :    23.268639762367800
 Root    347 :    23.291415201948510
 Root    348 :    23.308268613931960
 Root    349 :    23.370510697434450
 Root    350 :    23.399047265842960
 Root    351 :    23.440743422518180
 Root    352 :    23.468445329831700
 Root    353 :    23.538590424705220
 Root    354 :    23.546802090246720
 Root    355 :    23.549571995970830
 Root    356 :    23.554805198426600
 Root    357 :    23.600787144771770
 Root    358 :    23.709704113917870
 Root    359 :    23.735002463759190
 Root    360 :    23.738386923370210
 Root    361 :    23.753058890253360
 Root    362 :    23.814051023184990
 Root    363 :    23.830184029419410
 Root    364 :    23.893812890727750
 Root    365 :    23.904305468835230
 Root    366 :    23.937128430952710
 Root    367 :    23.937570149950600
 Root    368 :    23.966027589182300
 Root    369 :    23.989671319314970
 Root    370 :    24.005809101749030
 Root    371 :    24.009925154401120
 Root    372 :    24.028346468282760
 Root    373 :    24.083128081552200
 Root    374 :    24.100281422627000
 Root    375 :    24.130318401728590
 Root    376 :    24.131270580115540
 Root    377 :    24.176671934982130
 Root    378 :    24.192344860423570
 Root    379 :    24.249768254029060
 Root    380 :    24.349355646406860
 Root    381 :    24.364405974039600
 Root    382 :    24.396081489351920
 Root    383 :    24.424629582588480
 Root    384 :    24.425860344486710
 Root    385 :    24.490864846916620
 Root    386 :    24.491362298942360
 Root    387 :    24.558375097752340
 Root    388 :    24.613063034948550
 Root    389 :    24.617397906009430
 Root    390 :    24.677111761928210
 Root    391 :    24.683768694500210
 Root    392 :    24.702555758893430
 Root    393 :    24.771829154127160
 Root    394 :    24.826144625418340
 Root    395 :    24.829758086622060
 Root    396 :    24.864690614334630
 Root    397 :    24.894458880248450
 Root    398 :    25.010344357191280
 Root    399 :    25.015050334376380
 Root    400 :    25.045870970039540
 Root    401 :    25.061111784055610
 Root    402 :    25.061179433394060
 Root    403 :    25.095823769689740
 Root    404 :    25.167241184942110
 Root    405 :    25.218921040436710
 Root    406 :    25.256261002557310
 Root    407 :    25.319111518156140
 Root    408 :    25.350706289367250
 Root    409 :    25.378846495182380
 Root    410 :    25.380631472331990
 Root    411 :    25.454882299552820
 Root    412 :    25.484392345031080
 Root    413 :    25.559651846082500
 Root    414 :    25.573571995837380
 Root    415 :    25.700838764125890
 Root    416 :    25.734667407099440
 Root    417 :    25.756707067011260
 Root    418 :    25.768034155578530
 Root    419 :    25.819199352878280
 Root    420 :    25.833778033669170
 Root    421 :    25.849818489190660
 Root    422 :    25.877917302878970
 Root    423 :    25.954680522484870
 Root    424 :    26.029793698133200
 Root    425 :    26.032668641942670
 Root    426 :    26.126622914101620
 Root    427 :    26.154360735992580
 Root    428 :    26.191402215131670
 Root    429 :    26.311137595681390
 Root    430 :    26.357762392782400
 Root    431 :    26.381491347821560
 Root    432 :    26.476392484942800
 Root    433 :    26.506257654134570
 Root    434 :    26.533267144974850
 Root    435 :    26.551845024673400
 Root    436 :    26.638402596874200
 Root    437 :    26.663464432049220
 Root    438 :    26.843896411828280
 Root    439 :    26.877734312117720
 Root    440 :    26.983842698381170
 Root    441 :    26.986287504227820
 Root    442 :    27.019866306506690
 Root    443 :    27.021393425186980
 Root    444 :    27.221839116922070
 Root    445 :    27.247250120342920
 Root    446 :    27.336970640035650
 Root    447 :    27.402090345350590
 Root    448 :    27.440837468620990
 Root    449 :    27.568671538966950
 Root    450 :    27.603325721284690
 Root    451 :    27.611268781460830
 Root    452 :    27.654599509137100
 Root    453 :    27.664380530406390
 Root    454 :    27.749604479669110
 Root    455 :    27.865795891673380
 Root    456 :    27.869593672409270
 Root    457 :    27.940995118854530
 Root    458 :    27.947257243998840
 Root    459 :    27.963608368388480
 Root    460 :    27.978647044935500
 Root    461 :    28.141714763903520
 Root    462 :    28.226935682459500
 Root    463 :    28.254207787404090
 Root    464 :    28.314243502250080
 Root    465 :    28.421938581064620
 Root    466 :    28.745445016557010
 Root    467 :    28.868500389365790
 Root    468 :    28.952619701060180
 Root    469 :    29.025282362647830
 Root    470 :    29.050091280420320
 Root    471 :    29.070521458459370
 Root    472 :    29.077856907323670
 Root    473 :    29.208994170176950
 Root    474 :    29.414792308510600
 Root    475 :    29.456430940331770
 Root    476 :    29.484241206128360
 Root    477 :    29.524595702765360
 Root    478 :    29.663691728728570
 Root    479 :    29.809603231197290
 Root    480 :    29.825996324696710
 Root    481 :    30.015667779181050
 Root    482 :    30.017508324178650
 Root    483 :    30.022353862855720
 Root    484 :    30.096881088153190
 Root    485 :    30.165652635252320
 Root    486 :    30.173267199836050
 Root    487 :    30.244976777756010
 Root    488 :    30.290700078846570
 Root    489 :    30.349576695472430
 Root    490 :    30.471166522914950
 Root    491 :    30.545773930661190
 Root    492 :    30.546804840273330
 Root    493 :    30.574184483896390
 Root    494 :    30.632619461949550
 Root    495 :    30.642906443648470
 Root    496 :    30.788603933033440
 Root    497 :    30.791710869609900
 Root    498 :    30.881465244802790
 Root    499 :    31.329545828734740
 Root    500 :    31.331584600009500
 Root    501 :    31.359091580383230
 Root    502 :    31.472090327508960
 Root    503 :    31.565642782009010
 Root    504 :    31.718718439955370
 Root    505 :    31.898166381465410
 Root    506 :    31.922136325681910
 Root    507 :    31.924169304526600
 Root    508 :    31.965464057578990
 Root    509 :    32.018868456042640
 Root    510 :    32.051562256519450
 Root    511 :    32.097127827167110
 Root    512 :    32.139100892314500
 Root    513 :    32.164241244191880
 Root    514 :    32.268544144383890
 Root    515 :    32.304431748247310
 Root    516 :    32.434810396004030
 Root    517 :    32.486210502108910
 Root    518 :    32.504568104233250
 Root    519 :    32.617082083696480
 Root    520 :    32.652587617928740
 Root    521 :    32.682192549225360
 Root    522 :    32.836352783024170
 Root    523 :    32.857810995180080
 Root    524 :    32.883466072089050
 Root    525 :    32.947671049429940
 Root    526 :    32.960100802207970
 Root    527 :    33.057017654686930
 Root    528 :    33.120757711443080
 Root    529 :    33.200834137088360
 Root    530 :    33.260621172477300
 Root    531 :    33.307446248669370
 Root    532 :    33.315439657386650
 Root    533 :    33.411213988378290
 Root    534 :    33.424101015464800
 Root    535 :    33.581258082538500
 Root    536 :    33.646983315819670
 Root    537 :    33.764953021824180
 Root    538 :    33.897464916862070
 Root    539 :    33.921576482821330
 Root    540 :    34.051884835447770
 Root    541 :    34.142449954429610
 Root    542 :    34.212065724888560
 Root    543 :    34.322327328458580
 Root    544 :    34.324052536774250
 Root    545 :    34.577531575950000
 Root    546 :    34.596825403774140
 Root    547 :    34.607704887197990
 Root    548 :    34.649352484352040
 Root    549 :    34.668090456527050
 Root    550 :    34.906367849790780
 Root    551 :    34.925863944054020
 Root    552 :    35.026108178177820
 Root    553 :    35.064843686621150
 Root    554 :    35.077967985386530
 Root    555 :    35.140984211894620
 Root    556 :    35.183029433867990
 Root    557 :    35.222776463856820
 Root    558 :    35.275352658343810
 Root    559 :    35.281470497944850
 Root    560 :    35.294267340100180
 Root    561 :    35.300620581582540
 Root    562 :    35.302728216121110
 Root    563 :    35.373200593670140
 Root    564 :    35.416326870802910
 Root    565 :    35.430668880122060
 Root    566 :    35.431944231462170
 Root    567 :    35.609649784826090
 Root    568 :    35.676676639771560
 Root    569 :    35.879909566185000
 Root    570 :    35.929308415475390
 Root    571 :    36.014594174961320
 Root    572 :    36.134657189185980
 Root    573 :    36.317690789838630
 Root    574 :    36.365783086624300
 Root    575 :    36.378335940958610
 Root    576 :    36.446812864447830
 Root    577 :    36.460286454874340
 Root    578 :    36.518344568197540
 Root    579 :    36.531752654355580
 Root    580 :    36.565032450418750
 Root    581 :    36.787686039232450
 Root    582 :    36.833198045214700
 Root    583 :    36.911391353871230
 Root    584 :    36.912632034808230
 Root    585 :    37.061577724804690
 Root    586 :    37.102774018421630
 Root    587 :    37.240877921265070
 Root    588 :    37.288172896636250
 Root    589 :    37.319783958917650
 Root    590 :    37.427695821166540
 Root    591 :    37.509250768204080
 Root    592 :    37.538807327750500
 Root    593 :    37.802941464319120
 Root    594 :    37.859912608451690
 Root    595 :    37.881510061274820
 Root    596 :    37.918652546530980
 Root    597 :    37.928686992059030
 Root    598 :    37.969997711468140
 Root    599 :    37.986414300805180
 Root    600 :    38.098557264597500
 Root    601 :    38.343563092551480
 Root    602 :    38.366257860127280
[...]
     16   0.000000D+00  0.000000D+00  0.000000D+00  0.000000D+00  0.000000D+00
              1041          1042          1043          1044          1045 
      1  -0.115779D+03 -0.115777D+03 -0.115774D+03 -0.115757D+03 -0.115750D+03
      2   0.000000D+00  0.000000D+00 -0.588057D-01 -0.926846D-01  0.000000D+00
      3   0.000000D+00  0.000000D+00  0.000000D+00  0.000000D+00 -0.162389D-01
      4   0.209136D-01  0.391909D-01  0.000000D+00  0.000000D+00  0.000000D+00
      5   0.000000D+00  0.000000D+00  0.144595D+00  0.255186D+00  0.000000D+00
      6   0.000000D+00  0.000000D+00  0.000000D+00  0.000000D+00  0.583086D-01
      7  -0.629124D-01 -0.126659D+00  0.000000D+00  0.000000D+00  0.000000D+00
      8   0.000000D+00  0.000000D+00  0.000000D+00  0.000000D+00 -0.803673D+00
      9   0.000000D+00  0.000000D+00 -0.187411D-01  0.239056D+00  0.000000D+00
     10   0.000000D+00  0.000000D+00  0.000000D+00  0.000000D+00  0.000000D+00
     11  -0.471331D-01  0.442123D-01  0.000000D+00  0.000000D+00  0.000000D+00
     12  -0.896624D-02  0.140522D+01  0.000000D+00  0.000000D+00  0.000000D+00
     13   0.224849D+00 -0.397037D+00  0.000000D+00  0.000000D+00  0.000000D+00
     14   0.000000D+00  0.000000D+00  0.000000D+00  0.000000D+00  0.000000D+00
     15   0.000000D+00  0.000000D+00  0.359763D-01  0.102285D+00  0.000000D+00
     16   0.000000D+00  0.000000D+00  0.000000D+00  0.000000D+00 -0.718365D+00
              1046          1047          1048          1049          1050 
      1  -0.115745D+03 -0.115742D+03 -0.115738D+03 -0.115738D+03 -0.115730D+03
      2   0.000000D+00  0.000000D+00  0.000000D+00  0.000000D+00  0.000000D+00
      3   0.000000D+00 -0.458455D-02  0.567833D-01  0.000000D+00  0.000000D+00
      4  -0.153061D-01  0.000000D+00  0.000000D+00  0.985932D-02  0.000000D+00
      5   0.000000D+00  0.000000D+00  0.000000D+00  0.000000D+00  0.000000D+00
      6   0.000000D+00  0.117727D-01 -0.179896D+00  0.000000D+00  0.000000D+00
      7   0.310676D-01  0.000000D+00  0.000000D+00 -0.265967D-01  0.000000D+00
      8   0.000000D+00  0.366183D+00  0.791584D+00  0.000000D+00  0.000000D+00
      9   0.000000D+00  0.000000D+00  0.000000D+00  0.000000D+00  0.000000D+00
     10   0.000000D+00  0.000000D+00  0.000000D+00  0.000000D+00  0.839229D+00
     11   0.252566D-01  0.000000D+00  0.000000D+00  0.202367D-01  0.000000D+00
     12   0.462361D+00  0.000000D+00  0.000000D+00 -0.595767D-01  0.000000D+00
     13   0.597145D+00  0.000000D+00  0.000000D+00 -0.393852D-01  0.000000D+00
     14   0.000000D+00  0.000000D+00  0.000000D+00  0.000000D+00 -0.886118D+00
     15   0.000000D+00  0.000000D+00  0.000000D+00  0.000000D+00  0.000000D+00
     16   0.000000D+00 -0.106665D+00  0.371221D+00  0.000000D+00  0.000000D+00
              1051          1052          1053          1054          1055 
      1  -0.115720D+03 -0.115711D+03 -0.115696D+03 -0.115693D+03 -0.115691D+03
      2   0.000000D+00  0.000000D+00  0.000000D+00  0.000000D+00  0.000000D+00
      3   0.000000D+00  0.740046D-02  0.000000D+00  0.000000D+00 -0.568896D-01
      4   0.000000D+00  0.000000D+00  0.000000D+00 -0.808449D-01  0.000000D+00
      5   0.000000D+00  0.000000D+00  0.000000D+00  0.000000D+00  0.000000D+00
      6   0.000000D+00 -0.360951D-01  0.000000D+00  0.000000D+00  0.184542D+00
      7   0.000000D+00  0.000000D+00  0.000000D+00  0.238135D+00  0.000000D+00
      8   0.000000D+00 -0.414015D-01  0.000000D+00  0.000000D+00 -0.207332D-01
      9   0.000000D+00  0.000000D+00  0.000000D+00  0.000000D+00  0.000000D+00
     10  -0.240830D+00  0.000000D+00 -0.763835D-01  0.000000D+00  0.000000D+00
     11   0.000000D+00  0.000000D+00  0.000000D+00  0.203373D+00  0.000000D+00
     12   0.000000D+00  0.000000D+00  0.000000D+00  0.164430D+01  0.000000D+00
     13   0.000000D+00  0.000000D+00  0.000000D+00 -0.285899D+00  0.000000D+00
     14   0.466630D+00  0.000000D+00 -0.175589D+00  0.000000D+00  0.000000D+00
     15   0.000000D+00  0.000000D+00  0.000000D+00  0.000000D+00  0.000000D+00
     16   0.000000D+00  0.266312D-02  0.000000D+00  0.000000D+00  0.849887D-01
              1056          1057          1058          1059          1060 
      1  -0.115689D+03 -0.115689D+03 -0.115686D+03 -0.115681D+03 -0.115678D+03
      2   0.000000D+00  0.883495D-01  0.000000D+00  0.000000D+00  0.000000D+00
      3   0.000000D+00  0.000000D+00  0.112948D+00  0.000000D+00  0.108348D+00
      4   0.000000D+00  0.000000D+00  0.000000D+00  0.000000D+00  0.000000D+00
      5   0.000000D+00 -0.240128D+00  0.000000D+00  0.000000D+00  0.000000D+00
      6   0.000000D+00  0.000000D+00 -0.337505D+00  0.000000D+00 -0.330057D+00
      7   0.000000D+00  0.000000D+00  0.000000D+00  0.000000D+00  0.000000D+00
      8   0.000000D+00  0.000000D+00  0.321169D+00  0.000000D+00  0.189525D+00
      9   0.000000D+00 -0.105081D+00  0.000000D+00  0.000000D+00  0.000000D+00
     10   0.279003D+00  0.000000D+00  0.000000D+00 -0.120591D+00  0.000000D+00
     11   0.000000D+00  0.000000D+00  0.000000D+00  0.000000D+00  0.000000D+00
     12   0.000000D+00  0.000000D+00  0.000000D+00  0.000000D+00  0.000000D+00
     13   0.000000D+00  0.000000D+00  0.000000D+00  0.000000D+00  0.000000D+00
     14  -0.250815D+00  0.000000D+00  0.000000D+00 -0.414842D-01  0.000000D+00
     15   0.000000D+00 -0.845693D-01  0.000000D+00  0.000000D+00  0.000000D+00
     16   0.000000D+00  0.000000D+00  0.467047D+00  0.000000D+00  0.321195D-01
              1061          1062          1063          1064          1065 
      1  -0.115673D+03 -0.115649D+03 -0.115646D+03 -0.115639D+03 -0.115634D+03
      2   0.000000D+00 -0.115783D+00  0.000000D+00  0.000000D+00  0.000000D+00
      3   0.000000D+00  0.000000D+00  0.000000D+00  0.155941D-01  0.000000D+00
      4   0.157609D+00  0.000000D+00  0.202443D-02  0.000000D+00 -0.353369D-01
      5   0.000000D+00  0.348295D+00  0.000000D+00  0.000000D+00  0.000000D+00
      6   0.000000D+00  0.000000D+00  0.000000D+00 -0.324693D-01  0.000000D+00
      7  -0.452621D+00  0.000000D+00 -0.110501D-01  0.000000D+00  0.101970D+00
      8   0.000000D+00  0.000000D+00  0.000000D+00  0.395127D+00  0.000000D+00
      9   0.000000D+00 -0.102865D+00  0.000000D+00  0.000000D+00  0.000000D+00
     10   0.000000D+00  0.000000D+00  0.000000D+00  0.000000D+00  0.000000D+00
     11   0.181665D-01  0.000000D+00 -0.591148D-01  0.000000D+00  0.130278D+00
     12   0.202075D+00  0.000000D+00 -0.520308D+00  0.000000D+00 -0.725285D+00
     13  -0.372377D-01  0.000000D+00  0.277544D+00  0.000000D+00 -0.492961D+00
     14   0.000000D+00  0.000000D+00  0.000000D+00  0.000000D+00  0.000000D+00
     15   0.000000D+00 -0.108240D-01  0.000000D+00  0.000000D+00  0.000000D+00
     16   0.000000D+00  0.000000D+00  0.000000D+00  0.348520D+00  0.000000D+00
              1066          1067          1068          1069          1070 
      1  -0.115633D+03 -0.115629D+03 -0.115627D+03 -0.115627D+03 -0.115622D+03
      2  -0.661194D-01  0.000000D+00 -0.212002D-01  0.000000D+00  0.238875D-01
      3   0.000000D+00  0.000000D+00  0.000000D+00 -0.129938D+00  0.000000D+00
      4   0.000000D+00  0.000000D+00  0.000000D+00  0.000000D+00  0.000000D+00
      5   0.180443D+00  0.000000D+00  0.815958D-01  0.000000D+00 -0.906544D-01
      6   0.000000D+00  0.000000D+00  0.000000D+00  0.396773D+00  0.000000D+00
      7   0.000000D+00  0.000000D+00  0.000000D+00  0.000000D+00  0.000000D+00
      8   0.000000D+00  0.000000D+00  0.000000D+00  0.608313D+00  0.000000D+00
      9   0.848823D-01  0.000000D+00  0.136906D+00  0.000000D+00  0.114734D+00
     10   0.000000D+00 -0.731332D+00  0.000000D+00  0.000000D+00  0.000000D+00
     11   0.000000D+00  0.000000D+00  0.000000D+00  0.000000D+00  0.000000D+00
     12   0.000000D+00  0.000000D+00  0.000000D+00  0.000000D+00  0.000000D+00
     13   0.000000D+00  0.000000D+00  0.000000D+00  0.000000D+00  0.000000D+00
     14   0.000000D+00  0.678649D+00  0.000000D+00  0.000000D+00  0.000000D+00
     15   0.138457D+00  0.000000D+00  0.163533D+00  0.000000D+00  0.761038D-01
     16   0.000000D+00  0.000000D+00  0.000000D+00  0.414271D+00  0.000000D+00
              1071          1072          1073          1074          1075 
      1  -0.115615D+03 -0.115601D+03 -0.115601D+03 -0.115593D+03 -0.115592D+03
      2   0.000000D+00  0.000000D+00  0.000000D+00  0.000000D+00  0.000000D+00
      3   0.000000D+00 -0.238773D-01  0.000000D+00  0.313684D-01  0.000000D+00
      4   0.403404D-01  0.000000D+00 -0.108056D+00  0.000000D+00  0.316314D-01
      5   0.000000D+00  0.000000D+00  0.000000D+00  0.000000D+00  0.000000D+00
      6   0.000000D+00  0.800097D-01  0.000000D+00 -0.756327D-01  0.000000D+00
      7  -0.106384D+00  0.000000D+00  0.351819D+00  0.000000D+00 -0.920189D-01
      8   0.000000D+00 -0.711004D-01  0.000000D+00 -0.264475D+00  0.000000D+00
      9   0.000000D+00  0.000000D+00  0.000000D+00  0.000000D+00  0.000000D+00
     10   0.000000D+00  0.000000D+00  0.000000D+00  0.000000D+00  0.000000D+00
     11  -0.557164D-01  0.000000D+00 -0.410540D-01  0.000000D+00 -0.101552D-01
     12  -0.516098D+00  0.000000D+00 -0.953879D-01  0.000000D+00  0.457065D+00
     13   0.117071D+00  0.000000D+00  0.260252D+00  0.000000D+00  0.311575D+00
     14   0.000000D+00  0.000000D+00  0.000000D+00  0.000000D+00  0.000000D+00
     15   0.000000D+00  0.000000D+00  0.000000D+00  0.000000D+00  0.000000D+00
     16   0.000000D+00 -0.706027D+00  0.000000D+00  0.716580D-02  0.000000D+00
              1076          1077          1078          1079          1080 
      1  -0.115591D+03 -0.115590D+03 -0.115582D+03 -0.115581D+03 -0.115572D+03
      2   0.000000D+00 -0.101947D+00  0.000000D+00  0.000000D+00  0.894891D-02
      3   0.000000D+00  0.000000D+00  0.000000D+00  0.000000D+00  0.000000D+00
      4   0.180519D-01  0.000000D+00  0.000000D+00  0.000000D+00  0.000000D+00
      5   0.000000D+00  0.329539D+00  0.000000D+00  0.000000D+00 -0.315511D-01
      6   0.000000D+00  0.000000D+00  0.000000D+00  0.000000D+00  0.000000D+00
      7  -0.622443D-01  0.000000D+00  0.000000D+00  0.000000D+00  0.000000D+00
      8   0.000000D+00  0.000000D+00  0.000000D+00  0.000000D+00  0.000000D+00
      9   0.000000D+00  0.542988D-01  0.000000D+00  0.000000D+00  0.193515D+00
     10   0.000000D+00  0.000000D+00  0.407307D+00 -0.438591D+00  0.000000D+00
     11   0.189749D+00  0.000000D+00  0.000000D+00  0.000000D+00  0.000000D+00
     12  -0.184566D-01  0.000000D+00  0.000000D+00  0.000000D+00  0.000000D+00
     13   0.145050D+00  0.000000D+00  0.000000D+00  0.000000D+00  0.000000D+00
     14   0.000000D+00  0.000000D+00 -0.335887D+00  0.403682D+00  0.000000D+00
     15   0.000000D+00  0.148443D-01  0.000000D+00  0.000000D+00  0.230363D+00
     16   0.000000D+00  0.000000D+00  0.000000D+00  0.000000D+00  0.000000D+00
              1081          1082          1083          1084          1085 
      1  -0.115563D+03 -0.115560D+03 -0.115554D+03 -0.115537D+03 -0.115533D+03
      2   0.000000D+00  0.000000D+00 -0.856918D-01  0.000000D+00  0.000000D+00
      3   0.000000D+00  0.967410D-02  0.000000D+00 -0.361701D-02  0.000000D+00
      4   0.000000D+00  0.000000D+00  0.000000D+00  0.000000D+00  0.000000D+00
      5   0.000000D+00  0.000000D+00  0.238595D+00  0.000000D+00  0.000000D+00
      6   0.000000D+00 -0.354045D-01  0.000000D+00  0.406770D-02  0.000000D+00
      7   0.000000D+00  0.000000D+00  0.000000D+00  0.000000D+00  0.000000D+00
      8   0.000000D+00  0.999050D-01  0.000000D+00 -0.442660D+00  0.000000D+00
      9   0.000000D+00  0.000000D+00 -0.127357D-01  0.000000D+00  0.000000D+00
     10  -0.594731D-01  0.000000D+00  0.000000D+00  0.000000D+00  0.265799D+00
     11   0.000000D+00  0.000000D+00  0.000000D+00  0.000000D+00  0.000000D+00
     12   0.000000D+00  0.000000D+00  0.000000D+00  0.000000D+00  0.000000D+00
     13   0.000000D+00  0.000000D+00  0.000000D+00  0.000000D+00  0.000000D+00
     14   0.238437D-01  0.000000D+00  0.000000D+00  0.000000D+00 -0.120177D+00
     15   0.000000D+00  0.000000D+00  0.476982D-01  0.000000D+00  0.000000D+00
     16   0.000000D+00  0.334868D+00  0.000000D+00 -0.534230D+00  0.000000D+00
              1086          1087          1088          1089          1090 
      1  -0.115530D+03 -0.115520D+03 -0.115513D+03 -0.115512D+03 -0.115512D+03
      2   0.000000D+00  0.000000D+00  0.000000D+00  0.000000D+00  0.000000D+00
      3   0.000000D+00  0.000000D+00  0.000000D+00 -0.212124D-01  0.000000D+00
      4   0.820535D-02  0.000000D+00 -0.596636D-01  0.000000D+00  0.805846D-02
      5   0.000000D+00  0.000000D+00  0.000000D+00  0.000000D+00  0.000000D+00
      6   0.000000D+00  0.000000D+00  0.000000D+00  0.748737D-01  0.000000D+00
      7  -0.145176D-01  0.000000D+00  0.142141D+00  0.000000D+00 -0.131899D-01
      8   0.000000D+00  0.000000D+00  0.000000D+00 -0.383635D+00  0.000000D+00
      9   0.000000D+00  0.000000D+00  0.000000D+00  0.000000D+00  0.000000D+00
     10   0.000000D+00  0.131465D+00  0.000000D+00  0.000000D+00  0.000000D+00
     11   0.372646D-01  0.000000D+00  0.161988D+00  0.000000D+00  0.160446D+00
     12  -0.926930D+00  0.000000D+00 -0.571748D+00  0.000000D+00 -0.134061D+01
     13   0.181594D-01  0.000000D+00 -0.281262D+00  0.000000D+00 -0.329479D+00
     14   0.000000D+00 -0.161810D+00  0.000000D+00  0.000000D+00  0.000000D+00
     15   0.000000D+00  0.000000D+00  0.000000D+00  0.000000D+00  0.000000D+00
     16   0.000000D+00  0.000000D+00  0.000000D+00 -0.423272D+00  0.000000D+00
              1091          1092          1093          1094          1095 
      1  -0.115503D+03 -0.115484D+03 -0.115472D+03 -0.115465D+03 -0.115453D+03
      2  -0.270414D-01 -0.258948D-01  0.000000D+00  0.000000D+00  0.000000D+00
      3   0.000000D+00  0.000000D+00  0.000000D+00  0.000000D+00  0.425796D-01
      4   0.000000D+00  0.000000D+00 -0.241907D-01  0.000000D+00  0.000000D+00
      5   0.793404D-01  0.664329D-01  0.000000D+00  0.000000D+00  0.000000D+00
      6   0.000000D+00  0.000000D+00  0.000000D+00  0.000000D+00 -0.104533D+00
      7   0.000000D+00  0.000000D+00  0.700408D-01  0.000000D+00  0.000000D+00
      8   0.000000D+00  0.000000D+00  0.000000D+00  0.000000D+00 -0.402167D+00
      9  -0.127666D+00  0.214744D+00  0.000000D+00  0.000000D+00  0.000000D+00
     10   0.000000D+00  0.000000D+00  0.000000D+00  0.726460D+00  0.000000D+00
     11   0.000000D+00  0.000000D+00  0.779983D-01  0.000000D+00  0.000000D+00
     12   0.000000D+00  0.000000D+00  0.592945D-01  0.000000D+00  0.000000D+00
     13   0.000000D+00  0.000000D+00  0.463691D+00  0.000000D+00  0.000000D+00
     14   0.000000D+00  0.000000D+00  0.000000D+00 -0.767337D+00  0.000000D+00
     15  -0.206602D+00  0.248717D+00  0.000000D+00  0.000000D+00  0.000000D+00
     16   0.000000D+00  0.000000D+00  0.000000D+00  0.000000D+00 -0.237433D-01
              1096          1097          1098          1099          1100 
      1  -0.115419D+03 -0.115416D+03 -0.115398D+03 -0.115391D+03 -0.115372D+03
      2   0.000000D+00  0.000000D+00  0.000000D+00  0.000000D+00  0.431228D-01
      3   0.676371D-01  0.280643D-02  0.000000D+00  0.000000D+00  0.000000D+00
      4   0.000000D+00  0.000000D+00  0.000000D+00  0.419372D-01  0.000000D+00
      5   0.000000D+00  0.000000D+00  0.000000D+00  0.000000D+00 -0.124089D+00
      6  -0.141111D+00 -0.664043D-02  0.000000D+00  0.000000D+00  0.000000D+00
      7   0.000000D+00  0.000000D+00  0.000000D+00 -0.109039D+00  0.000000D+00
      8   0.155375D+00  0.249725D+00  0.000000D+00  0.000000D+00  0.000000D+00
      9   0.000000D+00  0.000000D+00  0.000000D+00  0.000000D+00  0.285697D+00
     10   0.000000D+00  0.000000D+00 -0.114849D+00  0.000000D+00  0.000000D+00
     11   0.000000D+00  0.000000D+00  0.000000D+00 -0.108849D+00  0.000000D+00
     12   0.000000D+00  0.000000D+00  0.000000D+00 -0.252700D+00  0.000000D+00
     13   0.000000D+00  0.000000D+00  0.000000D+00  0.199284D+00  0.000000D+00
     14   0.000000D+00  0.000000D+00 -0.130889D-02  0.000000D+00  0.000000D+00
     15   0.000000D+00  0.000000D+00  0.000000D+00  0.000000D+00 -0.422252D-01
     16   0.322150D+00 -0.160965D+00  0.000000D+00  0.000000D+00  0.000000D+00
              1101          1102          1103          1104          1105 
      1  -0.115365D+03 -0.115354D+03 -0.115325D+03 -0.115310D+03 -0.115301D+03
      2   0.000000D+00  0.382582D-01  0.000000D+00  0.882308D-01  0.000000D+00
      3   0.000000D+00  0.000000D+00  0.000000D+00  0.000000D+00 -0.419033D-01
      4  -0.681088D-01  0.000000D+00  0.481240D-01  0.000000D+00  0.000000D+00
      5   0.000000D+00 -0.101260D+00  0.000000D+00 -0.249001D+00  0.000000D+00
      6   0.000000D+00  0.000000D+00  0.000000D+00  0.000000D+00  0.133475D+00
      7   0.201644D+00  0.000000D+00 -0.117572D+00  0.000000D+00  0.000000D+00
      8   0.000000D+00  0.000000D+00  0.000000D+00  0.000000D+00  0.635064D+00
      9   0.000000D+00 -0.274866D-01  0.000000D+00  0.118420D+00  0.000000D+00
     10   0.000000D+00  0.000000D+00  0.000000D+00  0.000000D+00  0.000000D+00
     11   0.173722D+00  0.000000D+00  0.154050D+00  0.000000D+00  0.000000D+00
     12   0.682943D+00  0.000000D+00  0.381674D+00  0.000000D+00  0.000000D+00
     13  -0.127058D+00  0.000000D+00 -0.389052D+00  0.000000D+00  0.000000D+00
     14   0.000000D+00  0.000000D+00  0.000000D+00  0.000000D+00  0.000000D+00
     15   0.000000D+00  0.992014D-02  0.000000D+00 -0.386040D-01  0.000000D+00
     16   0.000000D+00  0.000000D+00  0.000000D+00  0.000000D+00  0.530358D+00
              1106          1107          1108          1109          1110 
      1  -0.115263D+03 -0.115257D+03 -0.115210D+03 -0.115202D+03 -0.115167D+03
      2   0.000000D+00  0.000000D+00  0.000000D+00  0.000000D+00  0.101594D+00
      3  -0.536054D-01  0.000000D+00  0.000000D+00  0.000000D+00  0.000000D+00
      4   0.000000D+00  0.000000D+00  0.000000D+00 -0.838229D-01  0.000000D+00
      5   0.000000D+00  0.000000D+00  0.000000D+00  0.000000D+00 -0.296843D+00
      6   0.141615D+00  0.000000D+00  0.000000D+00  0.000000D+00  0.000000D+00
      7   0.000000D+00  0.000000D+00  0.000000D+00  0.236265D+00  0.000000D+00
      8   0.384765D+00  0.000000D+00  0.000000D+00  0.000000D+00  0.000000D+00
      9   0.000000D+00  0.000000D+00  0.000000D+00  0.000000D+00 -0.138829D+00
     10   0.000000D+00  0.412581D+00  0.475894D+00  0.000000D+00  0.000000D+00
     11   0.000000D+00  0.000000D+00  0.000000D+00  0.104411D+00  0.000000D+00
     12   0.000000D+00  0.000000D+00  0.000000D+00  0.416784D+00  0.000000D+00
     13   0.000000D+00  0.000000D+00  0.000000D+00 -0.126713D+00  0.000000D+00
     14   0.000000D+00 -0.334149D+00 -0.536364D+00  0.000000D+00  0.000000D+00
     15   0.000000D+00  0.000000D+00  0.000000D+00  0.000000D+00 -0.915602D-01
     16   0.207716D+00  0.000000D+00  0.000000D+00  0.000000D+00  0.000000D+00
 Unable to Open any file for archive entry.
 1\1\GINC-HEL11\SP\RTPSSTPSS TD-FC\Gen\C3H8\SABYASACHI\21-Mar-2022\0\\#
 P TD(Nstates=10000) tpsstpss/Gen SCF(maxcycles=100) Int(Grid=ultrafine
 )\\xGDB7_00001_tier4.com\\0,1\C,0,0.,1.267731,-0.259082\C,0,0.,0.,0.58
 5552\C,0,0.,-1.267731,-0.259082\H,0,0.,2.164308,0.363087\H,0,-0.881453
 ,1.307675,-0.903652\H,0,0.881453,1.307675,-0.903652\H,0,-0.874532,0.,1
 .242055\H,0,0.874532,0.,1.242055\H,0,-0.881453,-1.307675,-0.903652\H,0
 ,0.,-2.164308,0.363087\H,0,0.881453,-1.307675,-0.903652\\Version=EM64L
 -G16RevC.01\State=1-A1\HF=-119.0836277\RMSD=2.132e-09\PG=C02V [C2(C1),
 SGV(C2H2),SGV'(H2),X(H4)]\\@
 The archive entry for this job was punched.


 ...THOSE SCIENCES ARE VAIN AND FULL OF ERRORS WHICH 
 ARE NOT BORN FROM EXPERIMENT, THE MOTHER OF CERTAINTY...

                          -- LEONARDO DA VINCI, 1452-1519
 Job cpu time:       0 days  0 hours 20 minutes  9.8 seconds.
 Elapsed time:       0 days  0 hours  2 minutes 31.5 seconds.
 File lengths (MBytes):  RWF=    620 Int=      0 D2E=      0 Chk=    404 Scr=      1
 Normal termination of Gaussian 16 at Mon Mar 21 20:22:41 2022.
