 Entering Gaussian System, Link 0=g16
 Input=000028.com
 Output=000028.log
 Initial command:
 /home/sabyasachi/g16/l1.exe "/scratch/sabyasachi/PBS_7976558.helios/Gau-160226.inp" -scrdir="/scratch/sabyasachi/PBS_7976558.helios/"
 Entering Link 1 = /home/sabyasachi/g16/l1.exe PID=    160227.
  
 Copyright (c) 1988-2019, Gaussian, Inc.  All Rights Reserved.
  
 This is part of the Gaussian(R) 16 program.  It is based on
 the Gaussian(R) 09 system (copyright 2009, Gaussian, Inc.),
 the Gaussian(R) 03 system (copyright 2003, Gaussian, Inc.),
 the Gaussian(R) 98 system (copyright 1998, Gaussian, Inc.),
 the Gaussian(R) 94 system (copyright 1995, Gaussian, Inc.),
 the Gaussian 92(TM) system (copyright 1992, Gaussian, Inc.),
 the Gaussian 90(TM) system (copyright 1990, Gaussian, Inc.),
 the Gaussian 88(TM) system (copyright 1988, Gaussian, Inc.),
 the Gaussian 86(TM) system (copyright 1986, Carnegie Mellon
 University), and the Gaussian 82(TM) system (copyright 1983,
 Carnegie Mellon University). Gaussian is a federally registered
 trademark of Gaussian, Inc.
  
 This software contains proprietary and confidential information,
 including trade secrets, belonging to Gaussian, Inc.
  
 This software is provided under written license and may be
 used, copied, transmitted, or stored only in accord with that
 written license.
  
 The following legend is applicable only to US Government
 contracts under FAR:
  
                    RESTRICTED RIGHTS LEGEND
  
 Use, reproduction and disclosure by the US Government is
 subject to restrictions as set forth in subparagraphs (a)
 and (c) of the Commercial Computer Software - Restricted
 Rights clause in FAR 52.227-19.
  
 Gaussian, Inc.
 340 Quinnipiac St., Bldg. 40, Wallingford CT 06492
  
  
 ---------------------------------------------------------------
 Warning -- This program may not be used in any manner that
 competes with the business of Gaussian, Inc. or will provide
 assistance to any competitor of Gaussian, Inc.  The licensee
 of this program is prohibited from giving any competitor of
 Gaussian, Inc. access to this program.  By using this program,
 the user acknowledges that Gaussian, Inc. is engaged in the
 business of creating and licensing software in the field of
 computational chemistry and represents and warrants to the
 licensee that it is not a competitor of Gaussian, Inc. and that
 it will not use this program in any manner prohibited above.
 ---------------------------------------------------------------
  

 Cite this work as:
 Gaussian 16, Revision C.01,
 M. J. Frisch, G. W. Trucks, H. B. Schlegel, G. E. Scuseria, 
 M. A. Robb, J. R. Cheeseman, G. Scalmani, V. Barone, 
 G. A. Petersson, H. Nakatsuji, X. Li, M. Caricato, A. V. Marenich, 
 J. Bloino, B. G. Janesko, R. Gomperts, B. Mennucci, H. P. Hratchian, 
 J. V. Ortiz, A. F. Izmaylov, J. L. Sonnenberg, D. Williams-Young, 
 F. Ding, F. Lipparini, F. Egidi, J. Goings, B. Peng, A. Petrone, 
 T. Henderson, D. Ranasinghe, V. G. Zakrzewski, J. Gao, N. Rega, 
 G. Zheng, W. Liang, M. Hada, M. Ehara, K. Toyota, R. Fukuda, 
 J. Hasegawa, M. Ishida, T. Nakajima, Y. Honda, O. Kitao, H. Nakai, 
 T. Vreven, K. Throssell, J. A. Montgomery, Jr., J. E. Peralta, 
 F. Ogliaro, M. J. Bearpark, J. J. Heyd, E. N. Brothers, K. N. Kudin, 
 V. N. Staroverov, T. A. Keith, R. Kobayashi, J. Normand, 
 K. Raghavachari, A. P. Rendell, J. C. Burant, S. S. Iyengar, 
 J. Tomasi, M. Cossi, J. M. Millam, M. Klene, C. Adamo, R. Cammi, 
 J. W. Ochterski, R. L. Martin, K. Morokuma, O. Farkas, 
 J. B. Foresman, and D. J. Fox, Gaussian, Inc., Wallingford CT, 2019.
 
 ******************************************
 Gaussian 16:  EM64L-G16RevC.01  3-Jul-2019
                21-Mar-2022 
 ******************************************
 %mem=64gb
 %nproc=8
 Will use up to    8 processors via shared memory.
 ----------------------------------------------------------------------
 #P TD(Nstates=10000) tpsstpss/Gen SCF(maxcycles=100) Int(Grid=ultrafin
 e)
 ----------------------------------------------------------------------
 1/38=1,172=1/1;
 2/12=2,17=6,18=5,40=1/2;
 3/5=7,11=9,25=1,30=1,74=2523,75=-5/1,2,3,8;
 4//1;
 5/5=2,7=100,38=5/2;
 8/6=1,10=1,108=10000/1;
 9/41=10000,42=1,70=2/14;
 6/7=2,8=2,9=2,10=2/1;
 99/5=1,9=1/99;
 Leave Link    1 at Mon Mar 21 20:26:59 2022, MaxMem=  8589934592 cpu:               0.4 elap:               0.1
 (Enter /home/sabyasachi/g16/l101.exe)
 ---------------------
 xGDB7_00001_tier4.com
 ---------------------
 Symbolic Z-matrix:
 Charge =  0 Multiplicity = 1
 7                     1.10644   0.14251  -0.09098 
 7                    -0.08075  -0.51252   0.00607 
 6                    -1.1487    0.16746   0.00817 
 1                     1.85475  -0.40992   0.29153 
 1                     1.10968   1.10045   0.24271 
 1                    -2.08985  -0.3662    0.03525 
 1                    -1.16221   1.26097  -0.02408 
 
 ITRead=  0  0  0  0  0  0  0
 MicOpt= -1 -1 -1 -1 -1 -1 -1
 NAtoms=      7 NQM=        7 NQMF=       0 NMMI=      0 NMMIF=      0
                NMic=       0 NMicF=      0.
                    Isotopes and Nuclear Properties:
 (Nuclear quadrupole moments (NQMom) in fm**2, nuclear magnetic moments (NMagM)
  in nuclear magnetons)

  Atom         1           2           3           4           5           6           7
 IAtWgt=          14          14          12           1           1           1           1
 AtmWgt=  14.0030740  14.0030740  12.0000000   1.0078250   1.0078250   1.0078250   1.0078250
 NucSpn=           2           2           0           1           1           1           1
 AtZEff=  -0.0000000  -0.0000000  -0.0000000  -0.0000000  -0.0000000  -0.0000000  -0.0000000
 NQMom=    2.0440000   2.0440000   0.0000000   0.0000000   0.0000000   0.0000000   0.0000000
 NMagM=    0.4037610   0.4037610   0.0000000   2.7928460   2.7928460   2.7928460   2.7928460
 AtZNuc=   7.0000000   7.0000000   6.0000000   1.0000000   1.0000000   1.0000000   1.0000000
 Leave Link  101 at Mon Mar 21 20:26:59 2022, MaxMem=  8589934592 cpu:               0.6 elap:               0.1
 (Enter /home/sabyasachi/g16/l202.exe)
                          Input orientation:                          
 ---------------------------------------------------------------------
 Center     Atomic      Atomic             Coordinates (Angstroms)
 Number     Number       Type             X           Y           Z
 ---------------------------------------------------------------------
      1          7           0        1.106441    0.142513   -0.090982
      2          7           0       -0.080753   -0.512520    0.006066
      3          6           0       -1.148696    0.167456    0.008166
      4          1           0        1.854749   -0.409916    0.291533
      5          1           0        1.109677    1.100453    0.242713
      6          1           0       -2.089851   -0.366199    0.035249
      7          1           0       -1.162208    1.260974   -0.024080
 ---------------------------------------------------------------------
                    Distance matrix (angstroms):
                    1          2          3          4          5
     1  N    0.000000
     2  N    1.359381   0.000000
     3  C    2.257453   1.266047   0.000000
     4  H    1.005714   1.959129   3.071537   0.000000
     5  H    1.014402   2.018615   2.454739   1.684853   0.000000
     6  H    3.238982   2.014631   1.082263   3.953158   3.525775
     7  H    2.530257   2.077435   1.094077   3.463165   2.293122
                    6          7
     6  H    0.000000
     7  H    1.873962   0.000000
 Stoichiometry    CH4N2
 Framework group  C1[X(CH4N2)]
 Deg. of freedom    15
 Full point group                 C1      NOp   1
 Largest Abelian subgroup         C1      NOp   1
 Largest concise Abelian subgroup C1      NOp   1
                         Standard orientation:                         
 ---------------------------------------------------------------------
 Center     Atomic      Atomic             Coordinates (Angstroms)
 Number     Number       Type             X           Y           Z
 ---------------------------------------------------------------------
      1          7           0        1.106441    0.142513   -0.090982
      2          7           0       -0.080753   -0.512520    0.006066
      3          6           0       -1.148696    0.167456    0.008166
      4          1           0        1.854749   -0.409916    0.291533
      5          1           0        1.109676    1.100453    0.242713
      6          1           0       -2.089851   -0.366199    0.035249
      7          1           0       -1.162209    1.260974   -0.024080
 ---------------------------------------------------------------------
 Rotational constants (GHZ):          66.3844039          11.5398193           9.9244358
 Leave Link  202 at Mon Mar 21 20:26:59 2022, MaxMem=  8589934592 cpu:               0.1 elap:               0.0
 (Enter /home/sabyasachi/g16/l301.exe)
 General basis read from cards:  (5D, 7F)
 Centers:       4      5      6      7
 S 3 1.00
     Exponent=  1.3010701000D+01 Coefficients=  1.9682158000D-02
     Exponent=  1.9622572000D+00 Coefficients=  1.3796524000D-01
     Exponent=  4.4453796000D-01 Coefficients=  4.7831935000D-01
 S 1 1.00
     Exponent=  1.2194962000D-01 Coefficients=  1.0000000000D+00
 P 1 1.00
     Exponent=  8.0000000000D-01 Coefficients=  1.0000000000D+00
 P 1 1.00
     Exponent=  1.1704099050D-01 Coefficients=  1.0000000000D+00
 ****
 Centers:       3
 S 5 1.00
     Exponent=  1.2384016938D+03 Coefficients=  5.4568832082D-03
     Exponent=  1.8629004992D+02 Coefficients=  4.0638409211D-02
     Exponent=  4.2251176346D+01 Coefficients=  1.8025593888D-01
     Exponent=  1.1676557932D+01 Coefficients=  4.6315121755D-01
     Exponent=  3.5930506482D+00 Coefficients=  4.4087173314D-01
 S 1 1.00
     Exponent=  4.0245147363D-01 Coefficients=  1.0000000000D+00
 S 1 1.00
     Exponent=  1.3090182668D-01 Coefficients=  1.0000000000D+00
 S 1 1.00
     Exponent=  6.7053540256D-02 Coefficients=  1.0000000000D+00
 P 3 1.00
     Exponent=  9.4680970621D+00 Coefficients=  3.8387871728D-02
     Exponent=  2.0103545142D+00 Coefficients=  2.1117025112D-01
     Exponent=  5.4771004707D-01 Coefficients=  5.1328172114D-01
 P 1 1.00
     Exponent=  1.5268613795D-01 Coefficients=  1.0000000000D+00
 D 1 1.00
     Exponent=  8.0000000000D-01 Coefficients=  1.0000000000D+00
 D 1 1.00
     Exponent=  1.1713185140D-01 Coefficients=  1.0000000000D+00
 ****
 Centers:       1      2
 S 5 1.00
     Exponent=  1.7128415853D+03 Coefficients= -5.3934125305D-03
     Exponent=  2.5764812677D+02 Coefficients= -4.0221581118D-02
     Exponent=  5.8458245853D+01 Coefficients= -1.7931144990D-01
     Exponent=  1.6198367905D+01 Coefficients= -4.6376317823D-01
     Exponent=  5.0052600809D+00 Coefficients= -4.4171422662D-01
 S 1 1.00
     Exponent=  5.8731856571D-01 Coefficients=  1.0000000000D+00
 S 1 1.00
     Exponent=  1.8764592253D-01 Coefficients=  1.0000000000D+00
 S 1 1.00
     Exponent=  9.6171241529D-02 Coefficients=  1.0000000000D+00
 P 3 1.00
     Exponent=  1.3571470233D+01 Coefficients= -4.0072398852D-02
     Exponent=  2.9257372874D+00 Coefficients= -2.1807045028D-01
     Exponent=  7.9927750754D-01 Coefficients= -5.1294466049D-01
 P 1 1.00
     Exponent=  2.1954348034D-01 Coefficients=  1.0000000000D+00
 D 1 1.00
     Exponent=  1.0000000000D+00 Coefficients=  1.0000000000D+00
 D 1 1.00
     Exponent=  1.6697708112D-01 Coefficients=  1.0000000000D+00
 ****
 Ernie: Thresh=  0.10000D-02 Tol=  0.10000D-05 Strict=F.
 There are    98 symmetry adapted cartesian basis functions of A   symmetry.
 There are    92 symmetry adapted basis functions of A   symmetry.
    92 basis functions,   136 primitive gaussians,    98 cartesian basis functions
    12 alpha electrons       12 beta electrons
       nuclear repulsion energy        73.1919062595 Hartrees.
 IExCor= 2523 DFT=T Ex=TPSS Corr=TPSS ExCW=0 ScaHFX=  0.000000
 ScaDFX=  1.000000  1.000000  1.000000  1.000000 ScalE2=  1.000000  1.000000
 IRadAn=      5 IRanWt=     -1 IRanGd=            0 ICorTp=0 IEmpDi=  4
 NAtoms=    7 NActive=    7 NUniq=    7 SFac= 1.00D+00 NAtFMM=   60 NAOKFM=F Big=F
 Integral buffers will be    131072 words long.
 Regular integral format.
 Two-electron integral symmetry is turned on.
 Leave Link  301 at Mon Mar 21 20:26:59 2022, MaxMem=  8589934592 cpu:               0.5 elap:               0.1
 (Enter /home/sabyasachi/g16/l302.exe)
 NPDir=0 NMtPBC=     1 NCelOv=     1 NCel=       1 NClECP=     1 NCelD=      1
         NCelK=      1 NCelE2=     1 NClLst=     1 CellRange=     0.0.
 One-electron integrals computed using PRISM.
 One-electron integral symmetry used in STVInt
 NBasis=    92 RedAO= T EigKep=  3.91D-04  NBF=    92
 NBsUse=    92 1.00D-06 EigRej= -1.00D+00 NBFU=    92
 Precomputing XC quadrature grid using
 IXCGrd= 4 IRadAn=           5 IRanWt=          -1 IRanGd=           0 AccXCQ= 0.00D+00.
 Generated NRdTot=       0 NPtTot=           0 NUsed=           0 NTot=          32
 NSgBfM=    98    98    98    98    98 MxSgAt=     7 MxSgA2=     7.
 Leave Link  302 at Mon Mar 21 20:26:59 2022, MaxMem=  8589934592 cpu:               1.0 elap:               0.1
 (Enter /home/sabyasachi/g16/l303.exe)
 DipDrv:  MaxL=1.
 Leave Link  303 at Mon Mar 21 20:26:59 2022, MaxMem=  8589934592 cpu:               0.2 elap:               0.0
 (Enter /home/sabyasachi/g16/l308.exe)
 Leave Link  308 at Mon Mar 21 20:26:59 2022, MaxMem=  8589934592 cpu:               0.2 elap:               0.1
 (Enter /home/sabyasachi/g16/l401.exe)
 ExpMin= 6.71D-02 ExpMax= 1.71D+03 ExpMxC= 2.58D+02 IAcc=3 IRadAn=         5 AccDes= 0.00D+00
 Harris functional with IExCor= 1009 and IRadAn=       5 diagonalized for initial guess.
 HarFok:  IExCor= 1009 AccDes= 0.00D+00 IRadAn=         5 IDoV= 1 UseB2=F ITyADJ=14
 ICtDFT=  3500011 ScaDFX=  1.000000  1.000000  1.000000  1.000000
 FoFCou: FMM=F IPFlag=           0 FMFlag=      100000 FMFlg1=           0
         NFxFlg=           0 DoJE=T BraDBF=F KetDBF=T FulRan=T
         wScrn=  0.000000 ICntrl=       500 IOpCl=  0 I1Cent=   200000004 NGrid=           0
         NMat0=    1 NMatS0=      1 NMatT0=    0 NMatD0=    1 NMtDS0=    0 NMtDT0=    0
 Petite list used in FoFCou.
 Harris En= -149.713609139303    
 JPrj=0 DoOrth=F DoCkMO=F.
 Leave Link  401 at Mon Mar 21 20:27:00 2022, MaxMem=  8589934592 cpu:               2.6 elap:               0.3
 (Enter /home/sabyasachi/g16/l502.exe)
 Keep J ints in memory in canonical form, NReq=16540191.
 FoFCou: FMM=F IPFlag=           0 FMFlag=           0 FMFlg1=           0
         NFxFlg=           0 DoJE=F BraDBF=F KetDBF=F FulRan=T
         wScrn=  0.000000 ICntrl=       600 IOpCl=  0 I1Cent=           0 NGrid=           0
         NMat0=    1 NMatS0=   4278 NMatT0=    0 NMatD0=    1 NMtDS0=    0 NMtDT0=    0
 Symmetry not used in FoFCou.
 Two-electron integral symmetry not used.
 Closed shell SCF:
 Using DIIS extrapolation, IDIIS=  1040.
 NGot=  8589934592 LenX=  8580760569 LenY=  8580750524
 Requested convergence on RMS density matrix=1.00D-08 within 100 cycles.
 Requested convergence on MAX density matrix=1.00D-06.
 Requested convergence on             energy=1.00D-06.
 No special actions if energy rises.
 Integral accuracy reduced to 1.0D-05 until final iterations.

 Cycle   1  Pass 0  IDiag  1:
 E= -149.834908897927    
 DIIS: error= 1.99D-02 at cycle   1 NSaved=   1.
 NSaved= 1 IEnMin= 1 EnMin= -149.834908897927     IErMin= 1 ErrMin= 1.99D-02
 ErrMax= 1.99D-02  0.00D+00 EMaxC= 1.00D-01 BMatC= 5.17D-02 BMatP= 5.17D-02
 IDIUse=3 WtCom= 8.01D-01 WtEn= 1.99D-01
 Coeff-Com:  0.100D+01
 Coeff-En:   0.100D+01
 Coeff:      0.100D+01
 Gap=     0.168 Goal=   None    Shift=    0.000
 GapD=    0.168 DampG=1.000 DampE=0.500 DampFc=0.5000 IDamp=-1.
 Damping current iteration by 5.00D-01
 RMSDP=8.92D-03 MaxDP=2.66D-01              OVMax= 1.71D-01

 Cycle   2  Pass 0  IDiag  1:
 E= -149.855403697911     Delta-E=       -0.020494799984 Rises=F Damp=T
 DIIS: error= 4.02D-03 at cycle   2 NSaved=   2.
 NSaved= 2 IEnMin= 2 EnMin= -149.855403697911     IErMin= 2 ErrMin= 4.02D-03
 ErrMax= 4.02D-03  0.00D+00 EMaxC= 1.00D-01 BMatC= 4.35D-03 BMatP= 5.17D-02
 IDIUse=3 WtCom= 9.60D-01 WtEn= 4.02D-02
 Coeff-Com:  0.124D+00 0.876D+00
 Coeff-En:   0.232D+00 0.768D+00
 Coeff:      0.128D+00 0.872D+00
 Gap=     0.193 Goal=   None    Shift=    0.000
 RMSDP=2.15D-03 MaxDP=3.43D-02 DE=-2.05D-02 OVMax= 1.42D-01

 Cycle   3  Pass 0  IDiag  1:
 E= -149.883009968645     Delta-E=       -0.027606270734 Rises=F Damp=F
 DIIS: error= 6.69D-03 at cycle   3 NSaved=   3.
 NSaved= 3 IEnMin= 3 EnMin= -149.883009968645     IErMin= 2 ErrMin= 4.02D-03
 ErrMax= 6.69D-03  0.00D+00 EMaxC= 1.00D-01 BMatC= 5.19D-03 BMatP= 4.35D-03
 IDIUse=3 WtCom= 1.09D-01 WtEn= 8.91D-01
 Coeff-Com:  0.300D-01 0.524D+00 0.446D+00
 Coeff-En:   0.000D+00 0.000D+00 0.100D+01
 Coeff:      0.327D-02 0.571D-01 0.940D+00
 Gap=     0.173 Goal=   None    Shift=    0.000
 RMSDP=3.07D-03 MaxDP=7.08D-02 DE=-2.76D-02 OVMax= 1.40D-01

 Cycle   4  Pass 0  IDiag  1:
 E= -149.854354276640     Delta-E=        0.028655692005 Rises=F Damp=F
 DIIS: error= 1.70D-02 at cycle   4 NSaved=   4.
 NSaved= 4 IEnMin= 3 EnMin= -149.883009968645     IErMin= 2 ErrMin= 4.02D-03
 ErrMax= 1.70D-02  0.00D+00 EMaxC= 1.00D-01 BMatC= 3.38D-02 BMatP= 4.35D-03
 IDIUse=2 WtCom= 0.00D+00 WtEn= 1.00D+00
 Coeff-En:   0.000D+00 0.000D+00 0.797D+00 0.203D+00
 Coeff:      0.000D+00 0.000D+00 0.797D+00 0.203D+00
 Gap=     0.174 Goal=   None    Shift=    0.000
 RMSDP=1.50D-03 MaxDP=3.67D-02 DE= 2.87D-02 OVMax= 7.10D-02

 Cycle   5  Pass 0  IDiag  1:
 E= -149.885251486664     Delta-E=       -0.030897210024 Rises=F Damp=F
 DIIS: error= 5.29D-03 at cycle   5 NSaved=   5.
 NSaved= 5 IEnMin= 5 EnMin= -149.885251486664     IErMin= 2 ErrMin= 4.02D-03
 ErrMax= 5.29D-03  0.00D+00 EMaxC= 1.00D-01 BMatC= 3.02D-03 BMatP= 4.35D-03
 IDIUse=3 WtCom= 9.47D-01 WtEn= 5.29D-02
 Coeff-Com:  0.640D-02-0.606D-03 0.358D+00-0.701D-01 0.706D+00
 Coeff-En:   0.000D+00 0.000D+00 0.405D+00 0.000D+00 0.595D+00
 Coeff:      0.606D-02-0.574D-03 0.360D+00-0.664D-01 0.701D+00
 Gap=     0.176 Goal=   None    Shift=    0.000
 RMSDP=6.54D-04 MaxDP=1.53D-02 DE=-3.09D-02 OVMax= 2.80D-02

 Cycle   6  Pass 0  IDiag  1:
 E= -149.888258731001     Delta-E=       -0.003007244337 Rises=F Damp=F
 DIIS: error= 2.40D-04 at cycle   6 NSaved=   6.
 NSaved= 6 IEnMin= 6 EnMin= -149.888258731001     IErMin= 6 ErrMin= 2.40D-04
 ErrMax= 2.40D-04  0.00D+00 EMaxC= 1.00D-01 BMatC= 9.97D-06 BMatP= 3.02D-03
 IDIUse=3 WtCom= 9.98D-01 WtEn= 2.40D-03
 Coeff-Com:  0.342D-02-0.459D-02 0.197D+00-0.592D-01 0.462D+00 0.402D+00
 Coeff-En:   0.000D+00 0.000D+00 0.000D+00 0.000D+00 0.000D+00 0.100D+01
 Coeff:      0.341D-02-0.457D-02 0.196D+00-0.590D-01 0.461D+00 0.403D+00
 Gap=     0.176 Goal=   None    Shift=    0.000
 RMSDP=4.13D-05 MaxDP=8.98D-04 DE=-3.01D-03 OVMax= 1.27D-03

 Cycle   7  Pass 0  IDiag  1:
 E= -149.888267999004     Delta-E=       -0.000009268003 Rises=F Damp=F
 DIIS: error= 2.67D-05 at cycle   7 NSaved=   7.
 NSaved= 7 IEnMin= 7 EnMin= -149.888267999004     IErMin= 7 ErrMin= 2.67D-05
 ErrMax= 2.67D-05  0.00D+00 EMaxC= 1.00D-01 BMatC= 8.54D-08 BMatP= 9.97D-06
 IDIUse=1 WtCom= 1.00D+00 WtEn= 0.00D+00
 Coeff-Com:  0.922D-03-0.166D-02 0.464D-01-0.156D-01 0.114D+00 0.141D+00
 Coeff-Com:  0.715D+00
 Coeff:      0.922D-03-0.166D-02 0.464D-01-0.156D-01 0.114D+00 0.141D+00
 Coeff:      0.715D+00
 Gap=     0.176 Goal=   None    Shift=    0.000
 RMSDP=6.29D-06 MaxDP=1.41D-04 DE=-9.27D-06 OVMax= 1.17D-04

 Initial convergence to 1.0D-05 achieved.  Increase integral accuracy.
 Cycle   8  Pass 1  IDiag  1:
 E= -149.888269176023     Delta-E=       -0.000001177019 Rises=F Damp=F
 DIIS: error= 4.84D-06 at cycle   1 NSaved=   1.
 NSaved= 1 IEnMin= 1 EnMin= -149.888269176023     IErMin= 1 ErrMin= 4.84D-06
 ErrMax= 4.84D-06  0.00D+00 EMaxC= 1.00D-01 BMatC= 4.80D-09 BMatP= 4.80D-09
 IDIUse=1 WtCom= 1.00D+00 WtEn= 0.00D+00
 Coeff-Com:  0.100D+01
 Coeff:      0.100D+01
 Gap=     0.176 Goal=   None    Shift=    0.000
 RMSDP=6.29D-06 MaxDP=1.41D-04 DE=-1.18D-06 OVMax= 1.18D-04

 Cycle   9  Pass 1  IDiag  1:
 E= -149.888269157728     Delta-E=        0.000000018295 Rises=F Damp=F
 DIIS: error= 1.37D-05 at cycle   2 NSaved=   2.
 NSaved= 2 IEnMin= 1 EnMin= -149.888269176023     IErMin= 1 ErrMin= 4.84D-06
 ErrMax= 1.37D-05  0.00D+00 EMaxC= 1.00D-01 BMatC= 2.36D-08 BMatP= 4.80D-09
 IDIUse=1 WtCom= 1.00D+00 WtEn= 0.00D+00
 Coeff-Com:  0.706D+00 0.294D+00
 Coeff:      0.706D+00 0.294D+00
 Gap=     0.176 Goal=   None    Shift=    0.000
 RMSDP=2.02D-06 MaxDP=5.22D-05 DE= 1.83D-08 OVMax= 1.01D-04

 Cycle  10  Pass 1  IDiag  1:
 E= -149.888269181525     Delta-E=       -0.000000023797 Rises=F Damp=F
 DIIS: error= 2.33D-06 at cycle   3 NSaved=   3.
 NSaved= 3 IEnMin= 3 EnMin= -149.888269181525     IErMin= 3 ErrMin= 2.33D-06
 ErrMax= 2.33D-06  0.00D+00 EMaxC= 1.00D-01 BMatC= 6.19D-10 BMatP= 4.80D-09
 IDIUse=1 WtCom= 1.00D+00 WtEn= 0.00D+00
 Coeff-Com:  0.169D+00 0.155D+00 0.675D+00
 Coeff:      0.169D+00 0.155D+00 0.675D+00
 Gap=     0.176 Goal=   None    Shift=    0.000
 RMSDP=4.85D-07 MaxDP=1.06D-05 DE=-2.38D-08 OVMax= 1.35D-05

 Cycle  11  Pass 1  IDiag  1:
 E= -149.888269182110     Delta-E=       -0.000000000585 Rises=F Damp=F
 DIIS: error= 5.97D-07 at cycle   4 NSaved=   4.
 NSaved= 4 IEnMin= 4 EnMin= -149.888269182110     IErMin= 4 ErrMin= 5.97D-07
 ErrMax= 5.97D-07  0.00D+00 EMaxC= 1.00D-01 BMatC= 4.42D-11 BMatP= 6.19D-10
 IDIUse=1 WtCom= 1.00D+00 WtEn= 0.00D+00
 Coeff-Com:  0.136D-01 0.461D-01 0.302D+00 0.638D+00
 Coeff:      0.136D-01 0.461D-01 0.302D+00 0.638D+00
 Gap=     0.176 Goal=   None    Shift=    0.000
 RMSDP=1.20D-07 MaxDP=2.56D-06 DE=-5.85D-10 OVMax= 2.19D-06

 Cycle  12  Pass 1  IDiag  1:
 E= -149.888269182150     Delta-E=       -0.000000000040 Rises=F Damp=F
 DIIS: error= 1.51D-07 at cycle   5 NSaved=   5.
 NSaved= 5 IEnMin= 5 EnMin= -149.888269182150     IErMin= 5 ErrMin= 1.51D-07
 ErrMax= 1.51D-07  0.00D+00 EMaxC= 1.00D-01 BMatC= 4.42D-12 BMatP= 4.42D-11
 IDIUse=1 WtCom= 1.00D+00 WtEn= 0.00D+00
 Coeff-Com: -0.430D-02 0.137D-01 0.113D+00 0.324D+00 0.554D+00
 Coeff:     -0.430D-02 0.137D-01 0.113D+00 0.324D+00 0.554D+00
 Gap=     0.176 Goal=   None    Shift=    0.000
 RMSDP=3.85D-08 MaxDP=1.20D-06 DE=-4.01D-11 OVMax= 5.71D-07

 Cycle  13  Pass 1  IDiag  1:
 E= -149.888269182152     Delta-E=       -0.000000000002 Rises=F Damp=F
 DIIS: error= 5.03D-08 at cycle   6 NSaved=   6.
 NSaved= 6 IEnMin= 6 EnMin= -149.888269182152     IErMin= 6 ErrMin= 5.03D-08
 ErrMax= 5.03D-08  0.00D+00 EMaxC= 1.00D-01 BMatC= 3.84D-13 BMatP= 4.42D-12
 IDIUse=1 WtCom= 1.00D+00 WtEn= 0.00D+00
 Coeff-Com: -0.305D-02 0.564D-02 0.504D-01 0.154D+00 0.322D+00 0.472D+00
 Coeff:     -0.305D-02 0.564D-02 0.504D-01 0.154D+00 0.322D+00 0.472D+00
 Gap=     0.176 Goal=   None    Shift=    0.000
 RMSDP=9.15D-09 MaxDP=2.14D-07 DE=-1.76D-12 OVMax= 2.31D-07

 SCF Done:  E(RTPSS-TPSS) =  -149.888269182     A.U. after   13 cycles
            NFock= 13  Conv=0.92D-08     -V/T= 2.0093
 KE= 1.485012816225D+02 PE=-4.951185556430D+02 EE= 1.235370985788D+02
 Leave Link  502 at Mon Mar 21 20:27:03 2022, MaxMem=  8589934592 cpu:              28.9 elap:               3.8
 (Enter /home/sabyasachi/g16/l801.exe)
 DoSCS=F DFT=T ScalE2(SS,OS)=  1.000000  1.000000
 ExpMin= 6.71D-02 ExpMax= 1.71D+03 ExpMxC= 2.58D+02 IAcc=3 IRadAn=         5 AccDes= 0.00D+00
 HarFok:  IExCor=  205 AccDes= 0.00D+00 IRadAn=         5 IDoV=-2 UseB2=F ITyADJ=14
 ICtDFT= 12500011 ScaDFX=  1.000000  1.000000  1.000000  1.000000
 Largest valence mixing into a core orbital is  7.78D-05
 Largest core mixing into a valence orbital is  2.36D-05
 Range of M.O.s used for correlation:     4    92
 NBasis=    92 NAE=    12 NBE=    12 NFC=     3 NFV=     0
 NROrb=     89 NOA=     9 NOB=     9 NVA=    80 NVB=    80

 **** Warning!!: The largest alpha MO coefficient is  0.14168145D+02

 Leave Link  801 at Mon Mar 21 20:27:04 2022, MaxMem=  8589934592 cpu:               0.5 elap:               0.1
 (Enter /home/sabyasachi/g16/l914.exe)
 RHF ground state
 Keep J ints in memory in canonical form, NReq=583186283.
 FoFCou: FMM=F IPFlag=           0 FMFlag=           0 FMFlg1=           0
         NFxFlg=           0 DoJE=F BraDBF=F KetDBF=F FulRan=T
         wScrn=  0.000000 ICntrl=       600 IOpCl=  0 I1Cent=           0 NGrid=           0
         NMat0=    1 NMatS0=   4278 NMatT0=    0 NMatD0=    1 NMtDS0=    0 NMtDT0=    0
 Symmetry not used in FoFCou.
 Two-electron integral symmetry not used.
 MDV=  8589934592 DFT=T DoStab=F Mixed=F DoRPA=T DoScal=T NonHer=F
 Making orbital integer symmetry assigments:
 Orbital symmetries:
       Occupied  (A) (A) (A) (A) (A) (A) (A) (A) (A) (A) (A) (A)
       Virtual   (A) (A) (A) (A) (A) (A) (A) (A) (A) (A) (A) (A)
                 (A) (A) (A) (A) (A) (A) (A) (A) (A) (A) (A) (A)
                 (A) (A) (A) (A) (A) (A) (A) (A) (A) (A) (A) (A)
                 (A) (A) (A) (A) (A) (A) (A) (A) (A) (A) (A) (A)
                 (A) (A) (A) (A) (A) (A) (A) (A) (A) (A) (A) (A)
                 (A) (A) (A) (A) (A) (A) (A) (A) (A) (A) (A) (A)
                 (A) (A) (A) (A) (A) (A) (A) (A)
   720 initial guesses have been made.
 Convergence on wavefunction:    0.001000000000000
 Davidson Disk Diagonalization:  ConvIn= 1.00D-03 SkipCon=T Conv= 1.00D-03.
 Max sub-space:  2880 roots to seek:  1440 dimension of matrix:         1440
 *** WARNING: Number of orthogonal guesses is          720
 Iteration     1 Dimension   720 NMult     0 NNew    720
 CISAX will form   720 AO SS matrices at one time.
 NMat=   720 NSing=   720 JSym2X= 0.
 New state      1 was old state      2
 New state      2 was old state      1
 New state      4 was old state      5
 New state      5 was old state      4
 New state      8 was old state      9
 New state      9 was old state      8
 New state     10 was old state     11
 New state     11 was old state     12
 New state     12 was old state     13
 New state     13 was old state     14
 New state     14 was old state     15
 New state     15 was old state     16
 New state     16 was old state     17
 New state     17 was old state     10
 New state     18 was old state     19
 New state     19 was old state     18
 New state     21 was old state     22
 New state     22 was old state     23
 New state     23 was old state     21
 New state     36 was old state     37
 New state     37 was old state     36
 New state     41 was old state     42
 New state     42 was old state     41
 New state     49 was old state     51
 New state     50 was old state     49
 New state     51 was old state     52
 New state     52 was old state     50
 New state     54 was old state     55
 New state     55 was old state     56
 New state     56 was old state     57
 New state     57 was old state     58
 New state     58 was old state     59
 New state     59 was old state     60
 New state     60 was old state     61
 New state     61 was old state     54
 New state     64 was old state     66
 New state     65 was old state     64
 New state     66 was old state     68
 New state     67 was old state     70
 New state     68 was old state     69
 New state     69 was old state     65
 New state     70 was old state     71
 New state     71 was old state     67
 New state     72 was old state     74
 New state     73 was old state     72
 New state     74 was old state     75
 New state     75 was old state     76
 New state     76 was old state     79
 New state     77 was old state     80
 New state     78 was old state     77
 New state     79 was old state     83
 New state     80 was old state     82
 New state     82 was old state     78
 New state     83 was old state     85
 New state     84 was old state     87
 New state     85 was old state     84
 New state     86 was old state     88
 New state     87 was old state     86
 New state     88 was old state     89
 New state     89 was old state     91
 New state     90 was old state     94
 New state     91 was old state     92
 New state     92 was old state     90
 New state     94 was old state     95
 New state     95 was old state     96
 New state     96 was old state     98
 New state     98 was old state     99
 New state     99 was old state    100
 New state    100 was old state    101
 New state    101 was old state    102
 New state    102 was old state    103
 New state    103 was old state    105
 New state    104 was old state    106
 New state    105 was old state    104
 New state    106 was old state    107
 New state    107 was old state    109
 New state    109 was old state    111
 New state    110 was old state    112
 New state    111 was old state    110
 New state    112 was old state    113
 New state    113 was old state    115
 New state    114 was old state    116
 New state    115 was old state    114
 New state    116 was old state    117
 New state    117 was old state    119
 New state    119 was old state    121
 New state    121 was old state    122
 New state    122 was old state    127
 New state    123 was old state    124
 New state    124 was old state    123
 New state    125 was old state    126
 New state    126 was old state    128
 New state    127 was old state    129
 New state    128 was old state    130
 New state    129 was old state    125
 New state    130 was old state    131
 New state    131 was old state    135
 New state    135 was old state    136
 New state    136 was old state    137
 New state    137 was old state    140
 New state    140 was old state    143
 New state    141 was old state    142
 New state    142 was old state    144
 New state    143 was old state    141
 New state    144 was old state    146
 New state    146 was old state    148
 New state    148 was old state    150
 New state    149 was old state    153
 New state    150 was old state    152
 New state    152 was old state    158
 New state    153 was old state    154
 New state    154 was old state    156
 New state    156 was old state    149
 New state    158 was old state    160
 New state    160 was old state    161
 New state    161 was old state    163
 New state    162 was old state    165
 New state    163 was old state    167
 New state    165 was old state    162
 New state    167 was old state    171
 New state    168 was old state    169
 New state    169 was old state    168
 New state    170 was old state    175
 New state    171 was old state    172
 New state    172 was old state    170
 New state    173 was old state    174
 New state    174 was old state    173
 New state    175 was old state    178
 New state    178 was old state    179
 New state    179 was old state    183
 New state    181 was old state    184
 New state    182 was old state    185
 New state    183 was old state    182
 New state    184 was old state    181
 New state    185 was old state    186
 New state    186 was old state    190
 New state    187 was old state    188
 New state    188 was old state    194
 New state    189 was old state    191
 New state    190 was old state    192
 New state    191 was old state    189
 New state    192 was old state    193
 New state    193 was old state    195
 New state    194 was old state    196
 New state    195 was old state    197
 New state    196 was old state    199
 New state    197 was old state    204
 New state    198 was old state    200
 New state    199 was old state    203
 New state    200 was old state    201
 New state    201 was old state    205
 New state    203 was old state    209
 New state    204 was old state    198
 New state    205 was old state    206
 New state    206 was old state    207
 New state    207 was old state    208
 New state    208 was old state    211
 New state    209 was old state    210
 New state    210 was old state    212
 New state    211 was old state    215
 New state    212 was old state    213
 New state    213 was old state    214
 New state    214 was old state    217
 New state    215 was old state    225
 New state    217 was old state    218
 New state    218 was old state    223
 New state    223 was old state    224
 New state    224 was old state    226
 New state    225 was old state    230
 New state    226 was old state    229
 New state    227 was old state    231
 New state    228 was old state    227
 New state    229 was old state    228
 New state    230 was old state    233
 New state    231 was old state    235
 New state    233 was old state    234
 New state    234 was old state    238
 New state    235 was old state    237
 New state    236 was old state    241
 New state    237 was old state    239
 New state    238 was old state    236
 New state    239 was old state    242
 New state    240 was old state    243
 New state    241 was old state    240
 New state    242 was old state    244
 New state    243 was old state    246
 New state    244 was old state    245
 New state    245 was old state    247
 New state    246 was old state    248
 New state    247 was old state    252
 New state    248 was old state    249
 New state    249 was old state    251
 New state    251 was old state    253
 New state    252 was old state    255
 New state    253 was old state    259
 New state    255 was old state    256
 New state    256 was old state    258
 New state    257 was old state    271
 New state    258 was old state    257
 New state    259 was old state    260
 New state    260 was old state    264
 New state    261 was old state    262
 New state    262 was old state    263
 New state    263 was old state    265
 New state    264 was old state    261
 New state    265 was old state    268
 New state    266 was old state    267
 New state    267 was old state    270
 New state    268 was old state    272
 New state    269 was old state    277
 New state    270 was old state    269
 New state    271 was old state    274
 New state    272 was old state    273
 New state    273 was old state    275
 New state    274 was old state    278
 New state    275 was old state    276
 New state    276 was old state    279
 New state    277 was old state    266
 New state    278 was old state    280
 New state    279 was old state    284
 New state    280 was old state    283
 New state    283 was old state    285
 New state    284 was old state    286
 New state    285 was old state    287
 New state    286 was old state    292
 New state    287 was old state    288
 New state    288 was old state    290
 New state    290 was old state    291
 New state    291 was old state    295
 New state    292 was old state    293
 New state    293 was old state    294
 New state    294 was old state    297
 New state    295 was old state    296
 New state    296 was old state    298
 New state    297 was old state    302
 New state    298 was old state    299
 New state    299 was old state    300
 New state    300 was old state    303
 New state    302 was old state    305
 New state    303 was old state    304
 New state    304 was old state    306
 New state    305 was old state    309
 New state    306 was old state    310
 New state    309 was old state    311
 New state    310 was old state    312
 New state    311 was old state    318
 New state    312 was old state    314
 New state    314 was old state    315
 New state    315 was old state    319
 New state    316 was old state    317
 New state    317 was old state    316
 New state    318 was old state    320
 New state    319 was old state    321
 New state    320 was old state    322
 New state    321 was old state    323
 New state    322 was old state    325
 New state    323 was old state    324
 New state    324 was old state    329
 New state    325 was old state    326
 New state    326 was old state    330
 New state    327 was old state    328
 New state    328 was old state    332
 New state    329 was old state    327
 New state    330 was old state    331
 New state    331 was old state    333
 New state    332 was old state    336
 New state    333 was old state    335
 New state    335 was old state    338
 New state    336 was old state    339
 New state    338 was old state    340
 New state    339 was old state    341
 New state    340 was old state    342
 New state    341 was old state    343
 New state    342 was old state    344
 New state    343 was old state    345
 No map to state    344
 New state    345 was old state    347
 New state    346 was old state    348
 New state    347 was old state    346
 New state    348 was old state    349
 New state    349 was old state    350
 New state    350 was old state    352
 New state    352 was old state    353
 New state    353 was old state    354
 New state    354 was old state    355
 New state    355 was old state    356
 New state    356 was old state    359
 New state    359 was old state    360
 New state    360 was old state    361
 New state    361 was old state    364
 New state    364 was old state    365
 New state    365 was old state    367
 New state    366 was old state    370
 New state    367 was old state    369
 New state    369 was old state    371
 New state    370 was old state    372
 New state    371 was old state    373
 New state    372 was old state    381
 New state    373 was old state    374
 New state    374 was old state    377
 New state    377 was old state    379
 New state    378 was old state    380
 New state    379 was old state    378
 New state    380 was old state    385
 New state    381 was old state    382
 New state    382 was old state    383
 New state    383 was old state    389
 New state    385 was old state    386
 New state    386 was old state    388
 New state    388 was old state    391
 New state    389 was old state    392
 New state    391 was old state    394
 New state    392 was old state    393
 New state    393 was old state    398
 New state    394 was old state    397
 New state    395 was old state    396
 New state    396 was old state    395
 New state    397 was old state    400
 New state    398 was old state    399
 New state    399 was old state    403
 New state    400 was old state    401
 New state    401 was old state    404
 New state    402 was old state    405
 New state    403 was old state    407
 New state    404 was old state    402
 New state    405 was old state    406
 New state    406 was old state    408
 New state    407 was old state    411
 New state    408 was old state    410
 New state    410 was old state    413
 New state    411 was old state    412
 New state    412 was old state    415
 No map to state    413
 New state    415 was old state    416
 New state    416 was old state    417
 New state    417 was old state    418
 New state    418 was old state    419
 New state    419 was old state    420
 New state    420 was old state    421
 New state    421 was old state    422
 New state    422 was old state    425
 New state    423 was old state    424
 New state    424 was old state    423
 New state    425 was old state    426
 New state    426 was old state    428
 New state    427 was old state    431
 New state    428 was old state    427
 New state    431 was old state    432
 New state    432 was old state    433
 New state    433 was old state    434
 New state    434 was old state    437
 New state    435 was old state    436
 New state    436 was old state    435
 New state    437 was old state    438
 New state    438 was old state    443
 New state    439 was old state    441
 New state    440 was old state    439
 New state    441 was old state    440
 New state    442 was old state    445
 New state    443 was old state    444
 New state    444 was old state    446
 New state    445 was old state    442
 New state    446 was old state    456
 New state    449 was old state    450
 New state    450 was old state    449
 New state    456 was old state    458
 New state    457 was old state    459
 New state    458 was old state    460
 New state    459 was old state    462
 New state    460 was old state    457
 New state    462 was old state    466
 New state    466 was old state    467
 New state    467 was old state    470
 New state    468 was old state    469
 New state    469 was old state    471
 New state    470 was old state    472
 New state    471 was old state    468
 New state    472 was old state    473
 New state    473 was old state    474
 New state    474 was old state    475
 New state    475 was old state    481
 New state    477 was old state    478
 New state    478 was old state    479
 New state    479 was old state    480
 New state    480 was old state    484
 New state    481 was old state    477
 New state    482 was old state    485
 New state    483 was old state    482
 New state    484 was old state    483
 New state    485 was old state    486
 New state    486 was old state    494
 New state    491 was old state    493
 New state    492 was old state    491
 New state    493 was old state    492
 New state    494 was old state    495
 New state    495 was old state    496
 New state    496 was old state    497
 New state    497 was old state    498
 New state    498 was old state    499
 New state    499 was old state    502
 New state    502 was old state    503
 New state    503 was old state    504
 New state    504 was old state    505
 New state    505 was old state    511
 New state    511 was old state    513
 New state    513 was old state    514
 New state    514 was old state    519
 New state    519 was old state    520
 New state    520 was old state    521
 New state    521 was old state    523
 New state    523 was old state    525
 New state    525 was old state    526
 New state    526 was old state    527
 New state    527 was old state    528
 New state    528 was old state    529
 New state    529 was old state    532
 New state    530 was old state    531
 New state    531 was old state    534
 New state    532 was old state    530
 New state    534 was old state    539
 New state    536 was old state    537
 New state    537 was old state    536
 New state    539 was old state    542
 New state    540 was old state    541
 New state    541 was old state    540
 New state    542 was old state    543
 New state    543 was old state    544
 No map to state    544
 New state    545 was old state    546
 New state    546 was old state    545
 New state    547 was old state    548
 New state    548 was old state    547
 New state    550 was old state    552
 New state    551 was old state    550
 New state    552 was old state    553
 New state    553 was old state    554
 New state    554 was old state    555
 New state    555 was old state    556
 New state    556 was old state    551
 New state    563 was old state    564
 New state    564 was old state    563
 New state    565 was old state    566
 New state    566 was old state    567
 New state    567 was old state    565
 New state    578 was old state    580
 New state    580 was old state    578
 New state    587 was old state    588
 New state    588 was old state    587
 New state    589 was old state    590
 New state    590 was old state    592
 New state    591 was old state    589
 New state    592 was old state    593
 New state    593 was old state    591
 New state    595 was old state    596
 New state    596 was old state    595
 New state    602 was old state    603
 New state    603 was old state    604
 New state    604 was old state    602
 New state    607 was old state    608
 New state    608 was old state    609
 New state    609 was old state    607
 New state    610 was old state    611
 New state    611 was old state    610
 New state    614 was old state    616
 New state    615 was old state    614
 New state    616 was old state    615
 New state    622 was old state    623
 New state    623 was old state    622
 New state    635 was old state    636
 New state    636 was old state    635
 New state    638 was old state    640
 New state    639 was old state    638
 New state    640 was old state    639
 New state    641 was old state    643
 New state    642 was old state    641
 New state    643 was old state    642
 New state    647 was old state    648
 New state    648 was old state    647
 New state    649 was old state    650
 New state    650 was old state    649
 New state    651 was old state    652
 New state    652 was old state    651
 New state    654 was old state    655
 New state    655 was old state    654
 New state    656 was old state    657
 New state    657 was old state    656
 New state    659 was old state    661
 New state    661 was old state    659
 New state    664 was old state    665
 New state    665 was old state    666
 New state    666 was old state    667
 New state    667 was old state    664
 New state    668 was old state    669
 New state    669 was old state    668
 New state    678 was old state    679
 New state    679 was old state    678
 New state    684 was old state    685
 New state    685 was old state    684
 New state    690 was old state    691
 New state    691 was old state    690
 New state    693 was old state    694
 New state    694 was old state    693
 New state    699 was old state    700
 New state    700 was old state    699
 New state    703 was old state    704
 New state    704 was old state    703
 New state    709 was old state    710
 New state    710 was old state    709
 Excitation Energies [eV] at current iteration:
 Root      1 :     5.836760245875523
 Root      2 :     5.962845044273808
 Root      3 :     6.238910980738919
 Root      4 :     6.957628143381428
 Root      5 :     7.005643450937737
 Root      6 :     7.661259249077170
 Root      7 :     7.740806799879549
 Root      8 :     8.494495513220743
 Root      9 :     8.524735064730432
 Root     10 :     8.789706627372455
 Root     11 :     9.213080148846144
 Root     12 :     9.345349528513369
 Root     13 :     9.531775320258996
 Root     14 :     9.568551094233730
 Root     15 :     9.964198192418920
 Root     16 :    10.035228657611850
 Root     17 :    10.245550326767040
 Root     18 :    10.375621185216240
 Root     19 :    10.504147586204670
 Root     20 :    10.750688516292430
 Root     21 :    10.883969495318780
 Root     22 :    10.915248246300860
 Root     23 :    10.950491383769000
 Root     24 :    11.176721317727830
 Root     25 :    11.393533246643240
 Root     26 :    11.477913277413730
 Root     27 :    11.539593032658240
 Root     28 :    11.644583876749840
 Root     29 :    11.741653277756740
 Root     30 :    11.873425054961020
 Root     31 :    11.958577969781050
 Root     32 :    12.110376043740030
 Root     33 :    12.326673357808760
 Root     34 :    12.428893587276870
 Root     35 :    12.483464320725450
 Root     36 :    12.521791680254480
 Root     37 :    12.534712772357340
 Root     38 :    12.686450184357810
 Root     39 :    12.809462990961500
 Root     40 :    12.991047429739750
 Root     41 :    13.135803129073150
 Root     42 :    13.197385779700610
 Root     43 :    13.222778657053810
 Root     44 :    13.360306376088540
 Root     45 :    13.571524772671870
 Root     46 :    13.609124786676520
 Root     47 :    13.862322892975870
 Root     48 :    13.970698187762070
 Root     49 :    14.086174606971000
 Root     50 :    14.119413911885880
 Root     51 :    14.220798379844190
 Root     52 :    14.304555427754860
 Root     53 :    14.365128910360540
 Root     54 :    14.479554758695140
 Root     55 :    14.596227435724820
 Root     56 :    14.664692243319260
 Root     57 :    14.786079129533730
 Root     58 :    14.825862201926630
 Root     59 :    14.871531547944950
 Root     60 :    14.985612521160460
 Root     61 :    15.049562779048880
 Root     62 :    15.054617832412460
 Root     63 :    15.165309557825090
 Root     64 :    15.275359088062560
 Root     65 :    15.327439078153450
 Root     66 :    15.408186124233880
 Root     67 :    15.482333930140780
 Root     68 :    15.509778095537660
 Root     69 :    15.594131128422660
 Root     70 :    15.657316082280310
 Root     71 :    15.703367503590360
 Root     72 :    15.819639125886020
 Root     73 :    15.848773858493100
 Root     74 :    15.888726918150120
 Root     75 :    16.032238691673920
 Root     76 :    16.070041133333740
 Root     77 :    16.108590539404990
 Root     78 :    16.129317395083860
 Root     79 :    16.255402447281000
 Root     80 :    16.258965317077360
 Root     81 :    16.294740619368430
 Root     82 :    16.334218627926380
 Root     83 :    16.354906246464910
 Root     84 :    16.441985006521210
 Root     85 :    16.593063020073770
 Root     86 :    16.632100370110590
 Root     87 :    16.680922523016250
 Root     88 :    16.793005967404980
 Root     89 :    16.825905771833590
 Root     90 :    16.918648125076830
 Root     91 :    16.987568416589350
 Root     92 :    17.019219542733510
 Root     93 :    17.113966910406280
 Root     94 :    17.213485769206550
 Root     95 :    17.378035459562190
 Root     96 :    17.417239778430830
 Root     97 :    17.447612654157330
 Root     98 :    17.663259273681840
 Root     99 :    17.695580609503190
 Root    100 :    17.757024152305120
 Root    101 :    17.835862068495550
 Root    102 :    18.046261168038920
 Root    103 :    18.081913979803850
 Root    104 :    18.100665221608140
 Root    105 :    18.136659639317580
 Root    106 :    18.216147882377450
 Root    107 :    18.315207472459040
 Root    108 :    18.421699817240680
 Root    109 :    18.472919637457230
 Root    110 :    18.486841355053510
 Root    111 :    18.561241423524940
 Root    112 :    18.577492957957530
 Root    113 :    18.720212752480330
 Root    114 :    18.828528821617920
 Root    115 :    18.838410049573020
 Root    116 :    18.885509189138220
 Root    117 :    18.919187599761800
 Root    118 :    18.964193717343750
 Root    119 :    19.021998413097190
 Root    120 :    19.036602609212570
 Root    121 :    19.110062606124590
 Root    122 :    19.165594558438140
 Root    123 :    19.277389526003490
 Root    124 :    19.349866809457930
 Root    125 :    19.382366977596960
 Root    126 :    19.473819501574760
 Root    127 :    19.574000471199510
 Root    128 :    19.623938927579050
 Root    129 :    19.700754208098890
 Root    130 :    19.718830979519490
 Root    131 :    19.793342925886770
 Root    132 :    19.811361880559920
 Root    133 :    19.906174486409450
 Root    134 :    19.982117952485110
 Root    135 :    20.095553919444120
 Root    136 :    20.109011673423410
 Root    137 :    20.177951889763010
 Root    138 :    20.209032327523740
 Root    139 :    20.284323196654330
 Root    140 :    20.363421610346410
 Root    141 :    20.418587790690330
 Root    142 :    20.479292288247610
 Root    143 :    20.521064567656030
 Root    144 :    20.590198040291680
 Root    145 :    20.652913740236660
 Root    146 :    20.862548819103300
 Root    147 :    20.904157040457770
 Root    148 :    21.016952674842770
 Root    149 :    21.064863945286260
 Root    150 :    21.146976819406260
 Root    151 :    21.186755656862840
 Root    152 :    21.258409379878480
 Root    153 :    21.265595184407850
 Root    154 :    21.347794481811650
 Root    155 :    21.427809652916780
 Root    156 :    21.551617154088940
 Root    157 :    21.594211325217010
 Root    158 :    21.677699030580090
 Root    159 :    21.762810091657040
 Root    160 :    21.799902224838240
 Root    161 :    21.862612057993070
 Root    162 :    21.938756331338460
 Root    163 :    21.978980481628360
 Root    164 :    22.074515670227040
 Root    165 :    22.107551805783100
 Root    166 :    22.111872929137070
 Root    167 :    22.149278528495250
 Root    168 :    22.256214269592560
 Root    169 :    22.313505606986490
 Root    170 :    22.384743183326490
 Root    171 :    22.464760374901320
 Root    172 :    22.506581262503620
 Root    173 :    22.566186871498790
 Root    174 :    22.594065847117370
 Root    175 :    22.716736181345610
 Root    176 :    22.818397604650490
 Root    177 :    22.897834683570560
 Root    178 :    22.935148192271520
 Root    179 :    23.016865583538120
 Root    180 :    23.081003604987140
 Root    181 :    23.159648723568570
 Root    182 :    23.170993194998150
 Root    183 :    23.244354806401110
 Root    184 :    23.377154805022810
 Root    185 :    23.487642882344540
 Root    186 :    23.539576025128820
 Root    187 :    23.589074417653770
 Root    188 :    23.656103733273040
 Root    189 :    23.763186477434330
 Root    190 :    23.779241223650950
 Root    191 :    23.827382551402840
 Root    192 :    23.842917761347400
 Root    193 :    23.908352689779270
 Root    194 :    23.989408170677970
 Root    195 :    24.125498795865570
 Root    196 :    24.209102658939380
 Root    197 :    24.300829420508050
 Root    198 :    24.391666517116800
 Root    199 :    24.442502289354540
 Root    200 :    24.590885807102110
 Root    201 :    24.710195160930490
 Root    202 :    24.738378675852800
 Root    203 :    24.794126441485800
 Root    204 :    24.931540971546510
 Root    205 :    24.986003423602370
 Root    206 :    25.002634177251260
 Root    207 :    25.070672662230380
 Root    208 :    25.175167479757360
 Root    209 :    25.193657414888210
 Root    210 :    25.219130599166000
 Root    211 :    25.292801869783570
 Root    212 :    25.362690542235480
 Root    213 :    25.397889282384270
 Root    214 :    25.451366446159740
 Root    215 :    25.591167451632000
 Root    216 :    25.618538180887270
 Root    217 :    25.748047961762230
 Root    218 :    25.772638651463250
 Root    219 :    25.811794953158340
 Root    220 :    25.861530753143950
 Root    221 :    25.901228180301510
 Root    222 :    25.973861194702020
 Root    223 :    26.048109641272140
 Root    224 :    26.092799858896030
 Root    225 :    26.126217742711370
 Root    226 :    26.174671411083460
 Root    227 :    26.247772762608610
 Root    228 :    26.335708860524860
 Root    229 :    26.387825753431200
 Root    230 :    26.457745057643770
 Root    231 :    26.547765523126710
 Root    232 :    26.579427354185020
 Root    233 :    26.672826857472720
 Root    234 :    26.785401737403540
 Root    235 :    26.810423605989600
 Root    236 :    26.892591206546960
 Root    237 :    26.977626658514620
 Root    238 :    27.050462285396170
 Root    239 :    27.065197022952880
 Root    240 :    27.196064905219140
 Root    241 :    27.375404643572110
 Root    242 :    27.494977491122060
 Root    243 :    27.589041965926670
 Root    244 :    27.599433778403480
 Root    245 :    27.636369168834370
 Root    246 :    27.731815382944480
 Root    247 :    27.850991483633760
 Root    248 :    27.924901998268840
 Root    249 :    28.182425272832140
 Root    250 :    28.234401711428700
 Root    251 :    28.313479594354600
 Root    252 :    28.428928796073420
 Root    253 :    28.520267483607640
 Root    254 :    28.582747071429230
 Root    255 :    28.615084917622160
 Root    256 :    28.686122905553750
 Root    257 :    28.702325890866490
 Root    258 :    28.746243140361110
 Root    259 :    28.817556561678760
 Root    260 :    28.961393283830360
 Root    261 :    29.059046316408740
 Root    262 :    29.141486206878670
 Root    263 :    29.201817246669250
 Root    264 :    29.308251674696490
 Root    265 :    29.414277148249250
 Root    266 :    29.508299659628490
 Root    267 :    29.659319967595020
 Root    268 :    29.707766126545420
 Root    269 :    29.780804315574880
 Root    270 :    29.859515995451790
 Root    271 :    29.871759138322690
 Root    272 :    29.907407274020780
 Root    273 :    29.958954237057160
 Root    274 :    30.045623706295190
 Root    275 :    30.127216706589970
 Root    276 :    30.228458532643930
 Root    277 :    30.250885957255320
 Root    278 :    30.279982847291080
 Root    279 :    30.408320194518070
 Root    280 :    30.434144040270500
 Root    281 :    30.513546552335220
 Root    282 :    30.761363254274930
 Root    283 :    30.824900502477840
 Root    284 :    30.883840423072030
 Root    285 :    30.928646988271040
 Root    286 :    30.987765991209240
 Root    287 :    31.085625856976450
 Root    288 :    31.114758472802230
 Root    289 :    31.206674521793840
 Root    290 :    31.265131245250180
 Root    291 :    31.323939804712430
 Root    292 :    31.663876027420650
 Root    293 :    31.804788015604100
 Root    294 :    31.833763694642450
 Root    295 :    31.869208398752280
 Root    296 :    31.904257446261480
 Root    297 :    31.993930427934220
 Root    298 :    32.039614439363230
 Root    299 :    32.341094272247690
 Root    300 :    32.535580277849410
 Root    301 :    32.590686588502180
 Root    302 :    32.633461056764910
 Root    303 :    32.706649062843950
 Root    304 :    32.740020419890850
 Root    305 :    32.833896735028130
 Root    306 :    32.879385866142930
 Root    307 :    33.058264183543760
 Root    308 :    33.276044271621490
 Root    309 :    33.356648181803620
 Root    310 :    33.574220490474790
 Root    311 :    33.713503863854580
 Root    312 :    33.792958248533190
 Root    313 :    33.825046546757020
 Root    314 :    33.883632889066480
 Root    315 :    33.937443467069510
 Root    316 :    34.071732882940040
 Root    317 :    34.116934768099850
 Root    318 :    34.171648319167090
 Root    319 :    34.194004896835690
 Root    320 :    34.475049885389200
 Root    321 :    34.571365182992870
 Root    322 :    34.648984834863450
 Root    323 :    34.667745284489890
 Root    324 :    34.713130113763680
 Root    325 :    34.836011284407210
 Root    326 :    34.885391069774880
 Root    327 :    35.036328646163360
 Root    328 :    35.117231914656210
 Root    329 :    35.172626144739010
 Root    330 :    35.218267818911930
 Root    331 :    35.272733214591710
 Root    332 :    35.448357221289270
 Root    333 :    35.674849266879910
 Root    334 :    35.710470045595170
 Root    335 :    35.856473613296300
 Root    336 :    35.880329472797630
 Root    337 :    35.927850845988680
 Root    338 :    36.029053131212980
 Root    339 :    36.192484310888610
 Root    340 :    36.282401143741500
 Root    341 :    36.374472587766580
 Root    342 :    36.677694750746320
 Root    343 :    36.814741361617630
 Root    344 :    36.883668039087150
 Root    345 :    36.999120919698280
 Root    346 :    37.183524711340910
 Root    347 :    37.291802893288990
 Root    348 :    37.438030339737810
 Root    349 :    37.501765480310550
 Root    350 :    37.552198586244090
 Root    351 :    37.811209986545500
 Root    352 :    37.829212754686010
 Root    353 :    37.882567024999910
 Root    354 :    37.915487989624210
 Root    355 :    37.994863176074230
 Root    356 :    38.124417919345750
 Root    357 :    38.331417809952420
 Root    358 :    38.388117800668330
 Root    359 :    38.527416975139180
 Root    360 :    38.579770617367450
 Root    361 :    38.759674399655220
 Root    362 :    38.865503757977870
 Root    363 :    39.079355630322190
 Root    364 :    39.151442740612590
 Root    365 :    39.443560356943420
 Root    366 :    39.500977493621110
 Root    367 :    39.622858985646570
 Root    368 :    39.683510003549810
 Root    369 :    39.727186798137740
 Root    370 :    39.751522043362140
 Root    371 :    40.053930338637090
 Root    372 :    40.090449079016720
 Root    373 :    40.214240350762430
 Root    374 :    40.610086114801920
 Root    375 :    40.788233303366170
 Root    376 :    40.867062621524930
 Root    377 :    40.886019747584830
 Root    378 :    40.986236048566540
 Root    379 :    41.096089489733600
 Root    380 :    41.202750242201970
 Root    381 :    41.332802517371700
 Root    382 :    41.441261223115160
 Root    383 :    41.530364091415270
 Root    384 :    41.682395846015710
 Root    385 :    41.752668440932150
 Root    386 :    41.842025233574880
 Root    387 :    41.878702043049940
 Root    388 :    41.962785860208190
 Root    389 :    42.032155517092550
 Root    390 :    42.077394866331950
 Root    391 :    42.334943527931170
 Root    392 :    42.513022824443210
 Root    393 :    42.803727310304780
 Root    394 :    42.878793125020980
 Root    395 :    42.936440494900790
 Root    396 :    42.996573502782230
 Root    397 :    43.376159700304030
 Root    398 :    43.552423260447460
 Root    399 :    43.870176272467680
 Root    400 :    43.983695435865290
 Root    401 :    44.176680561864800
 Root    402 :    44.232715181185220
 Root    403 :    44.396917692862600
 Root    404 :    44.401038066418010
 Root    405 :    44.673196180325970
 Root    406 :    44.762348932207070
 Root    407 :    44.818214784599230
 Root    408 :    44.966393860204780
 Root    409 :    45.001246471040720
 Root    410 :    45.218043331913720
 Root    411 :    45.338127742790820
 Root    412 :    45.439340999073690
 Root    413 :    45.705160789883700
 Root    414 :    45.722132292604860
 Root    415 :    45.851952444482490
 Root    416 :    46.503118979728550
 Root    417 :    46.575641145516680
 Root    418 :    46.776591672984770
 Root    419 :    46.800262267365920
 Root    420 :    46.914802133415390
 Root    421 :    47.052164432235730
 Root    422 :    47.400941329585810
 Root    423 :    47.476291545536140
 Root    424 :    47.631202788909230
 Root    425 :    47.719943811980090
 Root    426 :    47.899475787214810
 Root    427 :    47.981092323032350
 Root    428 :    48.040837324276770
 Root    429 :    48.400087053705690
 Root    430 :    48.488346234629170
 Root    431 :    48.697752671315310
 Root    432 :    48.828727754023350
 Root    433 :    48.946092603522980
 Root    434 :    49.174936645477200
 Root    435 :    49.250908331961560
 Root    436 :    49.394743928043870
 Root    437 :    49.746108679299180
 Root    438 :    49.814207862061360
 Root    439 :    49.854510541622880
 Root    440 :    49.894195489967850
 Root    441 :    49.998365004373230
 Root    442 :    50.239704607056830
 Root    443 :    50.474355172987470
 Root    444 :    50.578049072138310
 Root    445 :    50.745774610907730
 Root    446 :    50.762364606746910
 Root    447 :    51.242641634036000
 Root    448 :    51.341231332886810
 Root    449 :    51.490930410924130
 Root    450 :    51.626050291156180
 Root    451 :    51.805294384042420
 Root    452 :    51.946554918188430
 Root    453 :    52.071387386140730
 Root    454 :    52.354052926213420
 Root    455 :    52.534778839207870
 Root    456 :    52.691536021125880
 Root    457 :    52.867491664840150
 Root    458 :    52.979074773571580
 Root    459 :    53.117660609471510
 Root    460 :    53.164475814747400
 Root    461 :    53.507356100632460
 Root    462 :    53.734700770546450
 Root    463 :    53.764949249111550
 Root    464 :    53.844847295671040
 Root    465 :    53.985753740583960
 Root    466 :    54.068664901437020
 Root    467 :    54.333297698000930
 Root    468 :    54.495807135302190
 Root    469 :    54.538444783794150
 Root    470 :    54.609197220737290
 Root    471 :    54.741205649092310
 Root    472 :    54.834576073101110
 Root    473 :    54.938142266091100
 Root    474 :    55.080454051146240
 Root    475 :    55.286661172286060
 Root    476 :    55.852775448140570
 Root    477 :    56.073809419210410
 Root    478 :    56.141851829458470
 Root    479 :    56.298801621392520
 Root    480 :    56.452189830874420
 Root    481 :    56.604016155259810
 Root    482 :    56.761647201494730
 Root    483 :    56.874340958333310
 Root    484 :    56.884216023417840
 Root    485 :    56.907297252505900
 Root    486 :    57.070906533697620
 Root    487 :    57.250355184648340
 Root    488 :    57.292428839729930
 Root    489 :    57.486592197462660
 Root    490 :    57.574788063958110
 Root    491 :    57.698300149736910
 Root    492 :    57.810326370768340
 Root    493 :    58.017206052830690
 Root    494 :    58.418404813766400
 Root    495 :    58.629973227511040
 Root    496 :    58.956297750751940
 Root    497 :    58.974259518161850
 Root    498 :    59.018311475025520
 Root    499 :    59.162978329520890
 Root    500 :    59.479889880139720
 Root    501 :    59.554917060927660
 Root    502 :    59.751765033151050
 Root    503 :    59.782914982581960
 Root    504 :    59.994261828828070
 Root    505 :    60.113011328657020
 Root    506 :    60.556004811044090
 Root    507 :    60.594994323769900
 Root    508 :    60.720357398259370
 Root    509 :    60.881938200189570
 Root    510 :    61.072987113743590
 Root    511 :    61.220498609876290
 Root    512 :    61.235677542150500
 Root    513 :    61.371122273055650
 Root    514 :    61.491326961719260
 Root    515 :    61.672531198642700
 Root    516 :    61.805920626224830
 Root    517 :    61.915399692866130
 Root    518 :    61.949004402010000
 Root    519 :    62.274324854079420
 Root    520 :    62.491037071735650
 Root    521 :    62.590383892121470
 Root    522 :    62.703713396096420
 Root    523 :    62.809396261681010
 Root    524 :    62.887497453899410
 Root    525 :    62.950837864185190
 Root    526 :    63.322278723888080
 Root    527 :    63.350581043662850
 Root    528 :    63.402544942071830
 Root    529 :    63.663618574417680
 Root    530 :    63.844214765139480
 Root    531 :    63.954535889322700
 Root    532 :    64.014091327668340
 Root    533 :    64.201282133129990
 Root    534 :    64.277492419471170
 Root    535 :    64.401911618670250
 Root    536 :    64.513806684938320
 Root    537 :    64.573846138130610
 Root    538 :    64.642332976602460
 Root    539 :    64.746572380853560
 Root    540 :    64.994756222121500
 Root    541 :    65.161352544269020
 Root    542 :    65.237544448747710
 Root    543 :    65.731699168617870
 Root    544 :    65.839303336388510
 Root    545 :    66.222222462795330
 Root    546 :    66.309352066276770
 Root    547 :    66.554485065115000
 Root    548 :    66.634042157374180
 Root    549 :    66.707013610957470
 Root    550 :    66.716285673385880
 Root    551 :    66.894347507739700
 Root    552 :    67.196300777965830
 Root    553 :    67.340232287011800
 Root    554 :    67.433931337514170
 Root    555 :    67.483198135825760
 Root    556 :    67.670102193153720
 Root    557 :    67.701658004489100
 Root    558 :    67.814285662264940
 Root    559 :    68.074319892994380
 Root    560 :    68.261032997789140
 Root    561 :    68.377867021589550
 Root    562 :    68.622434190692910
 Root    563 :    68.916223315938750
 Root    564 :    69.134768416031080
 Root    565 :    69.372324995236300
 Root    566 :    69.535773540617280
 Root    567 :    69.614746368362830
 Root    568 :    69.631244792375200
 Root    569 :    69.738523625570040
 Root    570 :    70.085251903195370
 Root    571 :    70.353863731083660
 Root    572 :    70.373436389362790
 Root    573 :    70.770251262428770
 Root    574 :    70.918621941394460
 Root    575 :    71.008312564401720
 Root    576 :    71.214494427076900
 Root    577 :    71.342918778448890
 Root    578 :    71.540243129446940
 Root    579 :    71.669058135856870
 Root    580 :    71.765230075629720
 Root    581 :    71.970790457338690
 Root    582 :    72.079196761738810
 Root    583 :    72.174914590435250
 Root    584 :    72.393479709309320
 Root    585 :    72.890741605296200
 Root    586 :    73.075728114057740
 Root    587 :    73.407378849218690
 Root    588 :    73.439991027173870
 Root    589 :    73.731535946253170
 Root    590 :    73.926055012989750
 Root    591 :    74.025627912765570
 Root    592 :    74.132896734340480
 Root    593 :    74.347243672365580
 Root    594 :    74.612192806029770
 Root    595 :    74.655462482956480
 Root    596 :    74.721592105535180
 Root    597 :    74.867348995839610
 Root    598 :    75.221132903529250
 Root    599 :    75.698146771080130
 Root    600 :    76.006844139828320
 Root    601 :    76.261631290284870
 Root    602 :    76.478952818705000
 Root    603 :    76.532487654820290
 Root    604 :    76.654650362612560
 Root    605 :    77.022507977137910
 Root    606 :    77.199599015036480
 Root    607 :    77.331353262769600
 Root    608 :    77.601912227278580
 Root    609 :    77.641949847400680
 Root    610 :    77.858243636671430
 Root    611 :    77.994411663450580
 Root    612 :    78.251122677511840
 Root    613 :    78.363742054615410
 Root    614 :    78.629796344987010
 Root    615 :    78.762177664706090
 Root    616 :    78.875312672034310
 Root    617 :    79.367543005918980
 Root    618 :    79.571510920133780
 Root    619 :    79.617290350701580
 Root    620 :    79.933127254759140
 Root    621 :    80.288711818424020
 Root    622 :    80.742781511327880
 Root    623 :    80.823463003716540
 Root    624 :    80.968421257085080
 Root    625 :    81.376627088138680
 Root    626 :    81.582163561843130
 Root    627 :    81.637544757516860
 Root    628 :    81.772844353678240
 Root    629 :    82.017199649068760
 Root    630 :    82.200902944131630
 Root    631 :    82.497798306929140
 Root    632 :    82.719751545030090
 Root    633 :    83.082164971571160
 Root    634 :    83.141572588370950
 Root    635 :    83.759681716221070
 Root    636 :    83.920795983947410
 Root    637 :    84.693436824572610
 Root    638 :    85.187280329983580
 Root    639 :    85.414396623884600
 Root    640 :    85.530323526276430
 Root    641 :    85.939403101369420
 Root    642 :    86.061776907828360
 Root    643 :    86.120905779387910
 Root    644 :    86.484722860746540
 Root    645 :    86.633885946033890
 Root    646 :    87.057505094378500
 Root    647 :    87.628507877024480
 Root    648 :    87.899846390191750
 Root    649 :    88.090890846858810
 Root    650 :    88.115042574890180
 Root    651 :    88.795120715672240
 Root    652 :    89.002567143115500
 Root    653 :    89.315553239584060
 Root    654 :    89.958329815985980
 Root    655 :    90.002445372712060
 Root    656 :    90.643723462405820
 Root    657 :    90.817886109071070
 Root    658 :    91.034318069855270
 Root    659 :    91.366596990738500
 Root    660 :    91.598946121190450
 Root    661 :    91.740462433350290
 Root    662 :    92.199567189359780
 Root    663 :    92.411528184286920
 Root    664 :    92.693473008935850
 Root    665 :    92.861870896126050
 Root    666 :    92.928983459348590
 Root    667 :    93.137048007371940
 Root    668 :    93.617713456633990
 Root    669 :    93.882614026751360
 Root    670 :    94.666026715627820
 Root    671 :    94.717494020630700
 Root    672 :    94.949580628164230
 Root    673 :    95.232705209700200
 Root    674 :    95.645433491601280
 Root    675 :    95.962913709792300
 Root    676 :    96.266318972360080
 Root    677 :    96.487825381826510
 Root    678 :    96.670380758397370
 Root    679 :    96.683919461708730
 Root    680 :    97.643300526509710
 Root    681 :    98.067192652307210
 Root    682 :    98.235793781389960
 Root    683 :    98.967136173875150
 Root    684 :    99.425616318268780
 Root    685 :    99.806574956882770
 Root    686 :    99.938531818643430
 Root    687 :   100.310907725022000
 Root    688 :   100.399776464930800
 Root    689 :   100.942827970291000
 Root    690 :   101.598101874944500
 Root    691 :   101.670173838352900
 Root    692 :   101.688256404459800
 Root    693 :   102.446213832387300
 Root    694 :   102.758511599855400
 Root    695 :   103.222486739210500
 Root    696 :   103.785316539670100
 Root    697 :   104.672753451510400
 Root    698 :   104.842277945231300
 Root    699 :   105.279017481268600
 Root    700 :   105.443455483349900
 Root    701 :   105.706827714091700
 Root    702 :   106.551276633325400
 Root    703 :   106.711350895902300
 Root    704 :   106.726640910067700
 Root    705 :   107.746316357392900
 Root    706 :   108.562511947211500
 Root    707 :   108.755537577558700
 Root    708 :   109.211518036281300
 Root    709 :   110.214506868219300
 Root    710 :   110.396836326756600
 Root    711 :   110.942746575389400
 Root    712 :   111.213636412944600
 Root    713 :   111.668612754847100
 Root    714 :   111.701641137368500
 Root    715 :   113.584792930699900
 Root    716 :   115.273503612971100
 Root    717 :   116.302327065716900
 Root    718 :   118.469312386265100
 Root    719 :   121.256757040830200
 Root    720 :   123.394224261949300
 Convergence achieved for final wavefunctions.
 ***********************************************************************
 Excited states from <AA,BB:AA,BB> singles matrix:
 ***********************************************************************
 
 1PDM for each excited state written to RWF  633
 Ground to excited state transition densities written to RWF  633
 Ground to excited state transition electric dipole moments (Au):
       state          X           Y           Z        Dip. S.      Osc.
         1         0.6850     -0.1073      0.0344      0.4820      0.0689
         2        -0.6437     -0.0203      0.0112      0.4149      0.0606
         3        -0.7242      0.0044      0.1018      0.5349      0.0818
         4         0.0682      0.0046     -0.3882      0.1554      0.0265
         5        -0.2588     -0.4244     -0.0803      0.2535      0.0435
         6         0.1333     -0.0003     -0.1563      0.0422      0.0079
         7         0.3459     -0.2169      0.0177      0.1670      0.0317
         8         0.2510      0.1001      0.0208      0.0734      0.0153
         9         0.0680      0.6753      0.0866      0.4682      0.0978
        10        -0.0959      0.1018     -0.1337      0.0374      0.0081
        11        -0.0105      0.0702     -0.1428      0.0254      0.0057
        12         0.4911      0.0090      0.0625      0.2452      0.0561
        13        -0.1456      0.0525      0.0767      0.0298      0.0070
        14        -0.3910      0.4337     -0.0272      0.3417      0.0801
        15        -0.0399      0.4097      0.1261      0.1854      0.0452
        16         0.3228     -0.0405     -0.2445      0.1656      0.0407
        17        -0.0315     -0.3355      0.2349      0.1687      0.0424
        18         0.2573     -0.0632      0.0159      0.0705      0.0179
        19         0.2349     -0.2727      0.0127      0.1297      0.0334
        20        -0.3311     -0.0461      0.0634      0.1157      0.0305
        21        -0.0505      0.0585      0.3033      0.0980      0.0261
        22         0.4068      0.0260     -0.0078      0.1662      0.0445
        23        -0.5699      0.0203     -0.0989      0.3349      0.0899
        24         0.3767     -0.1563     -0.0013      0.1664      0.0456
        25        -0.2558      0.1268     -0.1527      0.1049      0.0293
        26         0.0587     -0.0630      0.2992      0.0970      0.0273
        27         0.3927     -0.0302     -0.0703      0.1600      0.0452
        28        -0.2878     -0.0356      0.1697      0.1129      0.0322
        29         0.1123     -0.4033      0.0591      0.1788      0.0514
        30        -0.1073      0.1481     -0.0288      0.0343      0.0100
        31         0.0778     -0.0133      0.0524      0.0090      0.0026
        32        -0.0984     -0.0280      0.5477      0.3104      0.0921
        33        -0.2704     -0.4105     -0.0878      0.2493      0.0753
        34        -0.1812      0.0454     -0.0053      0.0349      0.0106
        35        -0.4342     -0.0028     -0.0146      0.1887      0.0577
        36         0.0196      0.2066     -0.0345      0.0442      0.0136
        37         0.0534      0.1589      0.0103      0.0282      0.0087
        38        -0.0710      0.2836     -0.1247      0.1010      0.0314
        39         0.1379     -0.0334      0.2596      0.0875      0.0275
        40         0.1495      0.0778      0.0502      0.0309      0.0098
        41        -0.1759      0.0961      0.0367      0.0415      0.0134
        42        -0.0303     -0.1188     -0.1284      0.0315      0.0102
        43         0.2895     -0.0033      0.5347      0.3698      0.1198
        44         0.2389     -0.0492     -0.1302      0.0764      0.0250
        45        -0.2975      0.0334      0.0184      0.0899      0.0299
        46         0.0004     -0.1312     -0.0899      0.0253      0.0084
        47        -0.2609      0.5319      0.0202      0.3515      0.1194
        48        -0.1080     -0.1792     -0.0614      0.0476      0.0163
        49        -0.2523     -0.0865      0.1352      0.0894      0.0309
        50         0.3851      0.2570     -0.2039      0.2559      0.0885
        51         0.3761      0.1416      0.1167      0.1751      0.0610
        52         0.0695     -0.1372      0.0344      0.0248      0.0087
        53         0.0134     -0.2420      0.0700      0.0637      0.0224
        54         0.0734     -0.0367     -0.1149      0.0199      0.0071
        55         0.4329     -0.1245      0.0617      0.2067      0.0739
        56         0.2080     -0.0860     -0.0066      0.0507      0.0182
        57        -0.1790      0.1857     -0.0179      0.0668      0.0242
        58         0.1378      0.0923     -0.0203      0.0279      0.0101
        59        -0.0311     -0.3926     -0.2983      0.2441      0.0889
        60        -0.0531     -0.0180     -0.1814      0.0360      0.0132
        61        -0.0738      0.0561      0.1099      0.0207      0.0076
        62        -0.0931     -0.0035      0.3890      0.1600      0.0590
        63         0.1844     -0.2193      0.1537      0.1057      0.0393
        64         0.0490     -0.0085      0.0342      0.0036      0.0014
        65        -0.1012     -0.3678      0.1766      0.1767      0.0664
        66         0.0307      0.1625     -0.0054      0.0274      0.0103
        67         0.1618     -0.1002     -0.3500      0.1587      0.0602
        68        -0.0690     -0.2491      0.3101      0.1630      0.0619
        69         0.0027      0.1859      0.0129      0.0347      0.0133
        70        -0.1023     -0.2110      0.1266      0.0710      0.0272
        71        -0.6366     -0.4838     -0.1840      0.6732      0.2590
        72         0.2178     -0.0320     -0.0382      0.0499      0.0193
        73        -0.3648      0.2005      0.0150      0.1735      0.0674
        74        -0.1941      0.1274      0.3595      0.1832      0.0713
        75        -0.0172      0.0943      0.1837      0.0429      0.0169
        76         0.0648     -0.2238     -0.2007      0.0945      0.0372
        77        -0.2047      0.3005     -0.1809      0.1650      0.0651
        78        -0.1042      0.1836      0.0709      0.0496      0.0196
        79        -0.3126     -0.0452     -0.1087      0.1116      0.0444
        80         0.0789     -0.1278     -0.0507      0.0251      0.0100
        81        -0.1164      0.1953     -0.1463      0.0731      0.0292
        82        -0.3103      0.1829     -0.0484      0.1320      0.0528
        83         0.3218     -0.0332     -0.1635      0.1314      0.0526
        84         0.2445     -0.1187      0.2367      0.1299      0.0523
        85         0.1913      0.3358      0.0295      0.1502      0.0611
        86        -0.4681     -0.4234     -0.0612      0.4021      0.1638
        87         0.4424     -0.2026     -0.1138      0.2497      0.1020
        88         0.2310      0.1847     -0.2301      0.1404      0.0578
        89         0.3079     -0.1021      0.2569      0.1712      0.0706
        90        -0.0983      0.0853     -0.0511      0.0196      0.0081
        91        -0.0956      0.3327     -0.0371      0.1212      0.0504
        92         0.0285     -0.1120     -0.0951      0.0224      0.0093
        93        -0.0563     -0.2119     -0.2883      0.1312      0.0550
        94        -0.3488      0.0679     -0.2534      0.1905      0.0803
        95         0.0652     -0.2373      0.0627      0.0645      0.0275
        96         0.0785      0.3653      0.1173      0.1534      0.0654
        97        -0.1089     -0.3117      0.3967      0.2664      0.1139
        98         0.2768     -0.0657     -0.2206      0.1296      0.0561
        99         0.1058      0.1992     -0.0361      0.0521      0.0226
       100        -0.3460     -0.0825     -0.0192      0.1269      0.0552
[...]
     15  -0.969856D-01 -0.102291D-01 -0.543631D-02  0.148651D+00  0.346706D-01
     16   0.664130D-01 -0.103881D+00  0.155862D-01  0.216527D-04 -0.266758D+00
               651           652           653           654           655 
      1  -0.146625D+03 -0.146617D+03 -0.146606D+03 -0.146582D+03 -0.146581D+03
      2   0.350059D-02  0.200833D-01 -0.121176D+00  0.310072D-01  0.385607D-01
      3  -0.128803D-01  0.679433D-01 -0.403378D-01  0.565738D-01 -0.995282D-02
      4   0.670873D-01 -0.647833D-02  0.151440D-02 -0.343464D-01  0.532375D-01
      5   0.156954D-01 -0.548313D-01  0.392578D+00 -0.107303D+00 -0.111539D+00
      6   0.433148D-01 -0.202103D+00  0.116864D+00 -0.173830D+00  0.258845D-01
      7  -0.190959D+00  0.222070D-01  0.737090D-03  0.107782D+00 -0.152465D+00
      8   0.777585D-02  0.884974D-02 -0.771369D-01 -0.964960D-01 -0.642645D-01
      9   0.188387D+00 -0.518069D-01 -0.126688D-01  0.405447D-01  0.226556D+00
     10   0.904248D-01  0.163300D+00  0.224537D+00 -0.260974D+00  0.277279D-01
     11   0.360244D+00  0.300234D+00  0.707448D+00  0.136267D+00 -0.451175D+00
     12   0.227983D-01  0.237844D+00 -0.239793D+00 -0.486822D-01 -0.121734D+00
     13   0.148454D+00 -0.347355D-01  0.261488D-01  0.227022D+00 -0.113562D+00
     14  -0.221409D+00 -0.267816D+00 -0.180833D+00 -0.454583D-01 -0.185986D+00
     15  -0.276725D+00  0.113912D+00 -0.658512D-01 -0.243590D-01 -0.197243D+00
     16   0.117852D-01  0.760624D-01 -0.190838D+00 -0.112365D+00 -0.125770D+00
               656           657           658           659           660 
      1  -0.146557D+03 -0.146551D+03 -0.146543D+03 -0.146531D+03 -0.146522D+03
      2  -0.225454D-01 -0.668013D-01  0.723453D-02  0.330564D-01  0.435378D-01
      3   0.229319D-01 -0.342883D-01 -0.144657D-01 -0.516378D-01  0.753951D-01
      4   0.352643D-01  0.175556D-01 -0.993446D-02  0.815304D-02  0.921795D-02
      5   0.641536D-01  0.200226D+00 -0.239578D-01 -0.115228D+00 -0.123613D+00
      6  -0.616370D-01  0.104544D+00  0.434569D-01  0.143246D+00 -0.228593D+00
      7  -0.109966D+00 -0.675556D-01  0.356057D-01 -0.259481D-01 -0.208036D-01
      8  -0.140378D+00 -0.135159D+00 -0.187889D-01  0.316185D-02 -0.113553D-01
      9   0.225255D-01  0.831119D-01  0.430914D+00 -0.889402D-01  0.574032D-01
     10  -0.183671D+00  0.236621D+00 -0.132972D+00 -0.395234D+00 -0.112779D-01
     11   0.109696D+01  0.660663D+00 -0.239152D+00 -0.370626D+00  0.325728D+00
     12   0.197526D+00  0.529996D-01  0.238675D-01  0.271276D-01 -0.216271D+00
     13  -0.454958D-02  0.236896D+00  0.564137D-01  0.482513D-01  0.108804D+00
     14   0.664406D-02  0.455731D+00 -0.222359D+00 -0.144467D+00  0.437049D+00
     15   0.178978D-01 -0.896411D-01 -0.522529D+00  0.885721D-01 -0.153732D+00
     16  -0.204275D+00 -0.274398D+00 -0.583215D-01  0.180665D-01 -0.119757D+00
               661           662           663           664           665 
      1  -0.146517D+03 -0.146500D+03 -0.146492D+03 -0.146482D+03 -0.146476D+03
      2  -0.296000D-01 -0.159669D-01 -0.255589D-01 -0.227329D-01  0.237699D-01
      3   0.525411D-01  0.336106D-03  0.279150D-01  0.445468D-01  0.556641D-01
      4   0.373267D-01  0.117049D+00 -0.815895D-01  0.199872D-01  0.392407D-01
      5   0.827199D-01  0.491060D-01  0.882500D-01  0.739752D-01 -0.729260D-01
      6  -0.156775D+00  0.496802D-02 -0.807474D-01 -0.144831D+00 -0.176615D+00
      7  -0.104600D+00 -0.356650D+00  0.255832D+00 -0.678763D-01 -0.116220D+00
      8   0.604851D-01  0.177918D+00  0.170798D+00 -0.957890D-01 -0.247742D-01
      9   0.666929D-01  0.550828D+00 -0.875828D+00  0.141980D+00  0.196156D+00
     10  -0.582606D-01  0.199619D+00 -0.322490D-01 -0.215172D+00 -0.257760D+00
     11  -0.289044D+00  0.710556D+00 -0.673214D-01  0.182091D+00  0.929862D-01
     12   0.189198D+00  0.164225D+00  0.221309D+00 -0.256353D+00  0.518560D+00
     13   0.542487D-01  0.994370D-01 -0.269258D+00  0.910574D-01 -0.147696D+00
     14  -0.498900D+00  0.404041D+00 -0.263454D+00 -0.400879D+00 -0.309337D+00
     15   0.194578D-01 -0.553937D+00  0.857408D+00 -0.206894D+00 -0.258522D+00
     16  -0.726932D-02  0.351629D+00  0.251606D+00 -0.309290D-02 -0.519106D-01
               666           667           668           669           670 
      1  -0.146473D+03 -0.146466D+03 -0.146448D+03 -0.146438D+03 -0.146409D+03
      2  -0.194876D-01  0.162933D-01 -0.703765D-01  0.155285D-01 -0.590775D-01
      3   0.126832D-01 -0.601404D-01 -0.577625D-01 -0.371471D-01 -0.529245D-02
      4   0.153883D-01  0.844623D-01  0.144036D-02  0.233366D-01  0.114655D+00
      5   0.565731D-01 -0.468235D-01  0.210199D+00 -0.581296D-01  0.182047D+00
      6  -0.328317D-01  0.180715D+00  0.170635D+00  0.125530D+00  0.264009D-01
      7  -0.398419D-01 -0.244953D+00 -0.511444D-02 -0.699594D-01 -0.346310D+00
      8   0.110352D+00  0.132873D+00 -0.281354D-02  0.211081D-01  0.136164D+00
      9  -0.119734D+00  0.242879D+00  0.534958D-02  0.594040D-01  0.586493D+00
     10  -0.974713D-01  0.132182D+00 -0.893857D-01 -0.174347D+00  0.176467D+00
     11  -0.221980D+00  0.439130D-01 -0.829585D-01 -0.248723D+00  0.145761D+00
     12   0.235723D-01 -0.130961D+00 -0.118335D-02 -0.837344D-01 -0.477248D-01
     13  -0.135401D+00  0.212389D+00  0.114135D+00  0.538087D-02  0.197413D+00
     14  -0.214163D+00  0.205932D+00 -0.551440D-01  0.227815D+00  0.177845D+00
     15   0.102401D+00 -0.283512D+00 -0.192234D-01 -0.102264D+00 -0.714423D+00
     16   0.151684D+00  0.890419D-01  0.944675D-02 -0.406083D-01  0.235439D+00
               671           672           673           674           675 
      1  -0.146407D+03 -0.146399D+03 -0.146389D+03 -0.146373D+03 -0.146362D+03
      2   0.315928D-01  0.593078D-01 -0.571997D-01 -0.408290D-01 -0.428416D-01
      3   0.528475D-01  0.166572D-01  0.683830D-02  0.589190D-01 -0.621045D-01
      4  -0.518546D-01 -0.376179D-01  0.220021D-02  0.316677D-01 -0.284123D-01
      5  -0.993051D-01 -0.197448D+00  0.187823D+00  0.126920D+00  0.121317D+00
      6  -0.152224D+00 -0.567299D-01 -0.360822D-01 -0.188786D+00  0.192175D+00
      7   0.157741D+00  0.103228D+00 -0.223409D-02 -0.935143D-01  0.841380D-01
      8  -0.459320D-01 -0.174313D+00 -0.472676D-03 -0.377826D-02 -0.780869D-02
      9  -0.294771D+00  0.252710D+00  0.444967D-01  0.329157D+00 -0.136147D+00
     10   0.348509D-02 -0.156889D+00  0.220565D+00 -0.421744D+00 -0.208408D+00
     11  -0.503039D-01 -0.585052D+00 -0.497516D+00  0.681483D+00 -0.659128D+00
     12  -0.136687D+00 -0.201849D+00  0.237074D+00 -0.186539D+00  0.315906D-01
     13  -0.115520D+00  0.647872D-01 -0.141111D+00  0.158873D+00 -0.632937D-01
     14  -0.394519D-02 -0.592751D-01  0.249694D-01 -0.274438D+00 -0.215414D+00
     15   0.335434D+00 -0.196705D+00 -0.162565D-01 -0.506191D+00  0.166614D+00
     16  -0.328417D-01 -0.201536D+00 -0.101916D+00 -0.102347D-02  0.365662D-01
               676           677           678           679           680 
      1  -0.146351D+03 -0.146342D+03 -0.146336D+03 -0.146335D+03 -0.146300D+03
      2   0.514033D-01 -0.895211D-01  0.749414D-01  0.965023D-02  0.453326D-01
      3  -0.194659D-01 -0.769708D-01 -0.197061D-01  0.113723D-01 -0.283149D-01
      4   0.272824D-02 -0.102012D-01 -0.801210D-02 -0.393048D-01 -0.154474D-01
      5  -0.167770D+00  0.300719D+00 -0.230358D+00 -0.340645D-01 -0.144596D+00
      6   0.564876D-01  0.240257D+00  0.691536D-01 -0.268278D-01  0.660046D-01
      7  -0.117126D-01  0.376554D-01  0.297675D-01  0.125908D+00  0.472368D-01
      8  -0.326519D+00 -0.215355D+00  0.826758D-01 -0.415668D-01  0.135948D+00
      9   0.461635D+00  0.191073D+00 -0.128865D+00 -0.142485D+00 -0.248161D+00
     10   0.244708D+00  0.229871D+00  0.209409D+00  0.251164D+00  0.455012D-01
     11  -0.253997D+00  0.261376D+00  0.599239D+00 -0.716696D+00  0.124116D+00
     12  -0.290117D-01 -0.410547D+00  0.148288D-01 -0.326126D+00 -0.544309D+00
     13   0.278860D+00  0.102279D+00 -0.113134D-01 -0.108265D+00 -0.105754D+00
     14   0.394882D+00 -0.215593D+00  0.139463D+00 -0.392949D-01  0.669663D-01
     15  -0.480811D+00 -0.208080D+00  0.147333D+00  0.222619D+00  0.322284D+00
     16  -0.554546D+00 -0.391322D+00  0.742669D-01 -0.111212D+00  0.272823D+00
               681           682           683           684           685 
      1  -0.146284D+03 -0.146278D+03 -0.146251D+03 -0.146234D+03 -0.146220D+03
      2   0.166026D-01  0.744689D-01 -0.391625D-01  0.620342D-02  0.257542D-01
      3   0.325142D-02 -0.106358D+00 -0.507627D-01  0.715511D-02 -0.513245D-01
      4   0.209163D-01 -0.196998D-03  0.601497D-03 -0.109201D-01 -0.403917D-01
      5  -0.485542D-01 -0.228847D+00  0.119188D+00 -0.238803D-01 -0.753072D-01
      6  -0.861013D-02  0.314817D+00  0.164190D+00 -0.361563D-01  0.154436D+00
      7  -0.566777D-01 -0.179907D-02 -0.748605D-02  0.270949D-01  0.137109D+00
      8  -0.757582D-01 -0.140064D-01  0.510700D-01 -0.649958D-01  0.929929D-01
      9   0.154418D+00  0.678810D-01 -0.686117D-01  0.524294D-02 -0.234242D+00
     10   0.111303D-02  0.290457D+00 -0.396485D-01 -0.173448D+00  0.516990D+00
     11  -0.607707D-01 -0.147303D+00  0.119758D+00 -0.230195D+00 -0.664886D+00
     12   0.325452D-01 -0.123115D-01 -0.100045D+00 -0.115312D-01  0.216343D+00
     13   0.688740D-01  0.946600D-02  0.958213D-01 -0.106556D-01 -0.173517D+00
     14   0.644784D-01  0.356692D+00 -0.972546D-01  0.247247D-01  0.277927D+00
     15  -0.189183D+00  0.223390D-01  0.122880D+00  0.649712D-01  0.209022D+00
     16   0.637089D-01 -0.168109D+00  0.797433D-01 -0.580945D-01 -0.406480D-01
               686           687           688           689           690 
      1  -0.146216D+03 -0.146202D+03 -0.146199D+03 -0.146179D+03 -0.146155D+03
      2   0.120426D-01 -0.200938D-01  0.279315D-01  0.552559D-01  0.319427D-01
      3   0.553464D-02  0.460259D-02 -0.497398D-01  0.194455D-01 -0.299328D-01
      4   0.485530D-01  0.364473D-01  0.617086D-01 -0.681832D-02 -0.867641D-02
      5  -0.490203D-01  0.673467D-01 -0.780841D-01 -0.175765D+00 -0.995613D-01
      6  -0.245140D-01 -0.105749D-01  0.160308D+00 -0.593841D-01  0.957423D-01
      7  -0.140738D+00 -0.116346D+00 -0.200718D+00  0.229756D-01  0.238265D-01
      8   0.173440D+00 -0.537588D-01  0.652611D-01  0.330759D-01 -0.955445D-02
      9  -0.515566D-01  0.296947D+00  0.256222D+00 -0.381436D-01 -0.914763D-02
     10   0.106148D+00 -0.950256D-01  0.155993D-01  0.265019D+00  0.155675D-01
     11  -0.279790D+00  0.593461D+00 -0.102369D+01  0.259511D-01 -0.173217D+00
     12   0.924976D-01  0.490713D+00  0.286036D-01 -0.391778D-02 -0.193711D+00
     13  -0.657085D-01 -0.958095D-01  0.426820D-01  0.924724D-01  0.212815D+00
     14   0.277013D-01 -0.219592D+00  0.236240D+00  0.342190D+00 -0.272289D-01
     15   0.294486D-01 -0.412256D+00 -0.209818D+00  0.535584D-01 -0.326747D-01
     16   0.265877D+00 -0.107536D+00  0.543415D-01  0.170035D-01  0.394549D-01
               691           692           693           694           695 
      1  -0.146152D+03 -0.146151D+03 -0.146123D+03 -0.146112D+03 -0.146095D+03
      2   0.556778D-02  0.906941D-02  0.823627D-02 -0.973886D-01  0.227884D-01
      3   0.295035D-01 -0.989491D-01  0.583586D-01  0.757573D-01 -0.298606D-01
      4   0.959734D-02 -0.650499D-02 -0.338389D-01  0.124544D-01  0.788279D-01
      5  -0.649330D-02 -0.204481D-01 -0.358541D-01  0.330608D+00 -0.756545D-01
      6  -0.106189D+00  0.312439D+00 -0.201850D+00 -0.254514D+00  0.108414D+00
      7  -0.241077D-01  0.162245D-01  0.115128D+00 -0.527431D-01 -0.261688D+00
      8   0.184590D-02  0.362414D-01 -0.322870D-01 -0.161490D-01 -0.497552D-01
      9   0.186619D-01 -0.110860D+00 -0.123199D+00  0.600711D-01  0.544096D+00
     10  -0.523982D+00  0.180505D+00  0.277472D+00 -0.135674D-01  0.345243D+00
     11  -0.236156D+00  0.203289D-01 -0.301692D+00 -0.115884D+00 -0.474133D+00
     12   0.143085D-02 -0.144556D+00  0.291988D+00 -0.282403D+00 -0.161001D+00
     13   0.153757D+00  0.805593D-01 -0.476487D-01  0.494674D-01  0.210198D+00
     14  -0.540515D+00  0.707689D-01  0.469140D+00 -0.572390D+00  0.239286D+00
     15   0.516016D-02  0.133319D+00  0.126047D+00 -0.318310D-01 -0.471633D+00
     16   0.193126D-01  0.455396D-01 -0.966405D-01  0.183323D+00 -0.152092D+00
               696           697           698           699           700 
      1  -0.146074D+03 -0.146042D+03 -0.146035D+03 -0.146019D+03 -0.146013D+03
      2   0.568656D-01  0.102546D+00 -0.637684D-02  0.531682D-02  0.522944D-01
      3   0.124620D-01 -0.252653D-01  0.269806D-01 -0.281264D-01 -0.271358D-01
      4   0.492554D-01 -0.127276D-01 -0.182856D-02 -0.588039D-02 -0.126956D-01
      5  -0.185392D+00 -0.362029D+00  0.825670D-02 -0.219535D-01 -0.208781D+00
      6  -0.441806D-01  0.755938D-01 -0.942718D-01  0.911670D-01  0.966576D-01
      7  -0.157778D+00  0.371253D-01  0.349083D-02  0.208370D-01  0.462466D-01
      8   0.467417D-01 -0.279205D-02  0.526252D-01 -0.376330D-03  0.550869D-01
      9   0.259303D+00 -0.349949D-01 -0.105175D+00 -0.630546D-01 -0.165467D+00
     10  -0.783039D-01 -0.196075D+00 -0.247376D-01 -0.189936D+00  0.111333D+00
     11  -0.616599D+00 -0.115845D+00  0.326992D-01 -0.241293D+00 -0.219486D+00
     12   0.101414D-01 -0.523177D+00  0.140946D+00  0.512324D-01 -0.559661D+00
     13   0.764008D-02 -0.618978D-01 -0.299219D-01 -0.263293D-01  0.118496D+00
     14  -0.188039D+00  0.173966D+00 -0.834011D-01  0.455895D-01  0.742485D+00
     15  -0.314334D+00  0.848363D-01  0.694056D-02  0.852488D-01  0.133832D+00
     16   0.357796D-01  0.352959D-01  0.243983D-01 -0.203055D-01  0.158106D-01
               701           702           703           704           705 
      1  -0.146004D+03 -0.145973D+03 -0.145967D+03 -0.145966D+03 -0.145929D+03
      2  -0.161218D-02 -0.374422D-01 -0.279666D-01 -0.171354D-01  0.288215D-01
      3  -0.607938D-01 -0.281672D-01 -0.165542D-01  0.386848D-01  0.277002D-01
      4  -0.877083D-02 -0.282727D-01 -0.185644D-01 -0.579529D-02 -0.281966D-01
      5   0.850178D-02  0.143512D+00  0.111162D+00  0.723848D-01 -0.924320D-01
      6   0.198803D+00  0.115074D+00  0.476641D-01 -0.104726D+00 -0.101024D+00
      7   0.349162D-01  0.108034D+00  0.634751D-01  0.209594D-01  0.927811D-01
      8   0.186873D-01  0.670636D-02  0.564587D-01 -0.598479D-02 -0.142949D+00
      9  -0.471327D-01 -0.232566D+00 -0.216173D+00 -0.252570D-01  0.657034D-01
     10   0.322816D+00 -0.253525D+00 -0.737703D-01  0.119875D+00 -0.920172D-01
     11   0.715954D-01  0.406611D+00 -0.213551D+00  0.285187D+00 -0.490393D+00
     12  -0.222030D-01 -0.835268D-01  0.114589D+00  0.121487D+00  0.120713D+00
     13   0.298274D-02  0.339957D-02  0.238774D-01 -0.867321D-01  0.519589D-02
     14   0.409624D+00  0.946298D-01 -0.276970D+00  0.240905D+00 -0.180270D+00
     15   0.963424D-01  0.569998D-01  0.178456D+00 -0.273131D-01 -0.202855D+00
     16   0.377589D-01 -0.675090D-01  0.486651D-01 -0.276838D-01 -0.173203D+00
               706           707           708           709           710 
      1  -0.145899D+03 -0.145892D+03 -0.145875D+03 -0.145838D+03 -0.145831D+03
      2  -0.484723D-01  0.573604D-02 -0.574088D-01 -0.603271D-03 -0.593131D-02
      3   0.610290D-01  0.219330D-01 -0.564059D-01  0.585451D-01 -0.443554D-02
      4  -0.178656D-01 -0.153363D-01 -0.586903D-01 -0.329082D-03 -0.396561D-01
      5   0.173770D+00 -0.183586D-01  0.201879D+00  0.186800D-01  0.327512D-01
      6  -0.237461D+00 -0.733790D-01  0.213431D+00 -0.180730D+00  0.773143D-02
      7   0.633688D-01  0.538794D-01  0.205549D+00  0.177779D-02  0.134606D+00
      8   0.240739D-01  0.563781D-01  0.109909D+00 -0.290288D-01  0.245706D-01
      9  -0.201101D+00 -0.892148D-01 -0.471819D+00  0.568402D-01 -0.261390D+00
     10  -0.267981D+00  0.473867D+00  0.393660D+00  0.847318D-01 -0.112482D+00
     11   0.164213D+00 -0.781472D+00  0.808180D+00  0.517219D+00  0.327339D+00
     12   0.530090D-01  0.479818D+00  0.267659D-01  0.239856D+00 -0.297378D-01
     13  -0.353348D-01 -0.427182D-01 -0.690363D-01 -0.662364D-01  0.811492D-01
     14  -0.122803D+00  0.357409D+00  0.494196D+00 -0.765853D-01 -0.163303D+00
     15   0.146853D+00  0.169463D+00  0.323011D+00 -0.862741D-01  0.186160D+00
     16   0.109693D+00 -0.415577D-01 -0.180832D-01  0.656586D-02  0.362479D-01
               711           712           713           714           715 
      1  -0.145811D+03 -0.145801D+03 -0.145785D+03 -0.145783D+03 -0.145714D+03
      2  -0.103881D+00 -0.848465D-02 -0.298818D-01  0.279210D-02  0.874449D-01
      3  -0.662061D-01  0.261152D-01  0.367751D-01 -0.394365D-02  0.508236D-01
      4   0.983308D-02  0.171755D-01 -0.415008D-02 -0.360727D-01 -0.125465D-01
      5   0.394516D+00  0.296321D-01  0.114128D+00  0.157170D-01 -0.354824D+00
      6   0.230257D+00 -0.913670D-01 -0.131245D+00  0.384245D-01 -0.209444D+00
      7  -0.380211D-01 -0.620424D-01  0.149031D-01  0.120696D+00  0.497860D-01
      8   0.152029D-01 -0.332624D-01 -0.315227D-01  0.427758D-01 -0.137630D-01
      9   0.604573D-01  0.181833D+00 -0.481363D-01 -0.257739D+00 -0.684523D-01
     10   0.654482D+00 -0.851895D-01 -0.651862D+00  0.188487D+00 -0.362017D+00
     11   0.848175D+00 -0.323594D+00  0.104671D+01  0.257333D+00 -0.977231D+00
     12  -0.374553D+00 -0.683244D-02 -0.465842D+00 -0.144009D+00  0.176161D+00
     13   0.510189D-01  0.570796D-01  0.154878D-01  0.100124D+00  0.379984D-01
     14   0.221679D+00  0.364408D-01 -0.329757D+00  0.227046D+00 -0.373273D+00
     15  -0.168400D+00 -0.170851D+00 -0.120887D+00  0.209258D+00  0.212836D+00
     16  -0.602206D-01 -0.583420D-02  0.138179D+00 -0.101993D-01  0.569558D-01
               716           717           718           719           720 
      1  -0.145652D+03 -0.145614D+03 -0.145535D+03 -0.145432D+03 -0.145354D+03
      2  -0.576601D-01 -0.138515D-02  0.977801D-02  0.263129D-02  0.208976D-01
      3   0.513175D-01 -0.179338D-01  0.813693D-04 -0.389380D-01 -0.706863D-02
      4  -0.130717D-01  0.266793D-02 -0.320664D-02 -0.396182D-02  0.675663D-02
      5   0.175274D+00  0.216553D-01 -0.164731D-01 -0.434378D-01 -0.715841D-02
      6  -0.174685D+00  0.459611D-01  0.166290D-01  0.122449D+00  0.491979D-01
      7   0.443166D-01 -0.636967D-02  0.866856D-02  0.183931D-01 -0.282846D-01
      8   0.599790D-02  0.338452D-01  0.104471D-01  0.118252D-01  0.453144D-02
      9  -0.111947D+00 -0.406090D-01 -0.156247D-01  0.276494D-02  0.453670D-01
     10  -0.204965D+00  0.282680D+00  0.161445D+00  0.363165D+00  0.656240D-01
     11  -0.695751D-01  0.512080D+00 -0.571296D+00 -0.476810D+00 -0.323359D+00
     12   0.191489D+00  0.199378D+00 -0.463961D+00  0.137886D+00  0.147517D+00
     13  -0.433326D-01 -0.275578D-01  0.816450D-01 -0.212696D-01 -0.239340D-01
     14  -0.281500D+00  0.182610D+00 -0.230073D+00  0.302306D+00 -0.434271D-01
     15   0.467319D-01  0.271672D-01  0.103424D+00  0.602486D-01  0.790211D-02
     16   0.968877D-01 -0.646373D-01  0.430154D-01 -0.141675D+00 -0.281945D-01
 Unable to Open any file for archive entry.
 1\1\GINC-HEL10\SP\RTPSSTPSS TD-FC\Gen\C1H4N2\SABYASACHI\21-Mar-2022\0\
 \#P TD(Nstates=10000) tpsstpss/Gen SCF(maxcycles=100) Int(Grid=ultrafi
 ne)\\xGDB7_00001_tier4.com\\0,1\N,0,1.106441,0.142513,-0.090982\N,0,-0
 .080753,-0.51252,0.006066\C,0,-1.148696,0.167456,0.008166\H,0,1.854749
 ,-0.409916,0.291533\H,0,1.109677,1.100453,0.242713\H,0,-2.089851,-0.36
 6199,0.035249\H,0,-1.162208,1.260974,-0.02408\\Version=EM64L-G16RevC.0
 1\State=1-A\HF=-149.8882692\RMSD=9.152e-09\PG=C01 [X(C1H4N2)]\\@
 The archive entry for this job was punched.


 NOT WHAT WE DID SHALL BE THE TEST
 WHEN ACT AND WILL ARE DONE,
 BUT WHAT OUR LORD INFERS WE WOULD-
 HAD WE DIVINER BEEN.
           EMILY DICKINSON  POEMS NO. CLXXV
 Job cpu time:       0 days  0 hours 22 minutes 25.4 seconds.
 Elapsed time:       0 days  0 hours  2 minutes 48.6 seconds.
 File lengths (MBytes):  RWF=    259 Int=      0 D2E=      0 Chk=    150 Scr=      1
 Normal termination of Gaussian 16 at Mon Mar 21 20:29:47 2022.
