 Entering Gaussian System, Link 0=g16
 Input=000008.com
 Output=000008.log
 Initial command:
 /home/sabyasachi/g16/l1.exe "/scratch/sabyasachi/PBS_7976538.helios/Gau-160553.inp" -scrdir="/scratch/sabyasachi/PBS_7976538.helios/"
 Entering Link 1 = /home/sabyasachi/g16/l1.exe PID=    160554.
  
 Copyright (c) 1988-2019, Gaussian, Inc.  All Rights Reserved.
  
 This is part of the Gaussian(R) 16 program.  It is based on
 the Gaussian(R) 09 system (copyright 2009, Gaussian, Inc.),
 the Gaussian(R) 03 system (copyright 2003, Gaussian, Inc.),
 the Gaussian(R) 98 system (copyright 1998, Gaussian, Inc.),
 the Gaussian(R) 94 system (copyright 1995, Gaussian, Inc.),
 the Gaussian 92(TM) system (copyright 1992, Gaussian, Inc.),
 the Gaussian 90(TM) system (copyright 1990, Gaussian, Inc.),
 the Gaussian 88(TM) system (copyright 1988, Gaussian, Inc.),
 the Gaussian 86(TM) system (copyright 1986, Carnegie Mellon
 University), and the Gaussian 82(TM) system (copyright 1983,
 Carnegie Mellon University). Gaussian is a federally registered
 trademark of Gaussian, Inc.
  
 This software contains proprietary and confidential information,
 including trade secrets, belonging to Gaussian, Inc.
  
 This software is provided under written license and may be
 used, copied, transmitted, or stored only in accord with that
 written license.
  
 The following legend is applicable only to US Government
 contracts under FAR:
  
                    RESTRICTED RIGHTS LEGEND
  
 Use, reproduction and disclosure by the US Government is
 subject to restrictions as set forth in subparagraphs (a)
 and (c) of the Commercial Computer Software - Restricted
 Rights clause in FAR 52.227-19.
  
 Gaussian, Inc.
 340 Quinnipiac St., Bldg. 40, Wallingford CT 06492
  
  
 ---------------------------------------------------------------
 Warning -- This program may not be used in any manner that
 competes with the business of Gaussian, Inc. or will provide
 assistance to any competitor of Gaussian, Inc.  The licensee
 of this program is prohibited from giving any competitor of
 Gaussian, Inc. access to this program.  By using this program,
 the user acknowledges that Gaussian, Inc. is engaged in the
 business of creating and licensing software in the field of
 computational chemistry and represents and warrants to the
 licensee that it is not a competitor of Gaussian, Inc. and that
 it will not use this program in any manner prohibited above.
 ---------------------------------------------------------------
  

 Cite this work as:
 Gaussian 16, Revision C.01,
 M. J. Frisch, G. W. Trucks, H. B. Schlegel, G. E. Scuseria, 
 M. A. Robb, J. R. Cheeseman, G. Scalmani, V. Barone, 
 G. A. Petersson, H. Nakatsuji, X. Li, M. Caricato, A. V. Marenich, 
 J. Bloino, B. G. Janesko, R. Gomperts, B. Mennucci, H. P. Hratchian, 
 J. V. Ortiz, A. F. Izmaylov, J. L. Sonnenberg, D. Williams-Young, 
 F. Ding, F. Lipparini, F. Egidi, J. Goings, B. Peng, A. Petrone, 
 T. Henderson, D. Ranasinghe, V. G. Zakrzewski, J. Gao, N. Rega, 
 G. Zheng, W. Liang, M. Hada, M. Ehara, K. Toyota, R. Fukuda, 
 J. Hasegawa, M. Ishida, T. Nakajima, Y. Honda, O. Kitao, H. Nakai, 
 T. Vreven, K. Throssell, J. A. Montgomery, Jr., J. E. Peralta, 
 F. Ogliaro, M. J. Bearpark, J. J. Heyd, E. N. Brothers, K. N. Kudin, 
 V. N. Staroverov, T. A. Keith, R. Kobayashi, J. Normand, 
 K. Raghavachari, A. P. Rendell, J. C. Burant, S. S. Iyengar, 
 J. Tomasi, M. Cossi, J. M. Millam, M. Klene, C. Adamo, R. Cammi, 
 J. W. Ochterski, R. L. Martin, K. Morokuma, O. Farkas, 
 J. B. Foresman, and D. J. Fox, Gaussian, Inc., Wallingford CT, 2019.
 
 ******************************************
 Gaussian 16:  EM64L-G16RevC.01  3-Jul-2019
                21-Mar-2022 
 ******************************************
 %mem=64gb
 %nproc=8
 Will use up to    8 processors via shared memory.
 ----------------------------------------------------------------------
 #P TD(Nstates=10000) tpsstpss/Gen SCF(maxcycles=100) Int(Grid=ultrafin
 e)
 ----------------------------------------------------------------------
 1/38=1,172=1/1;
 2/12=2,17=6,18=5,40=1/2;
 3/5=7,11=9,25=1,30=1,74=2523,75=-5/1,2,3,8;
 4//1;
 5/5=2,7=100,38=5/2;
 8/6=1,10=1,108=10000/1;
 9/41=10000,42=1,70=2/14;
 6/7=2,8=2,9=2,10=2/1;
 99/5=1,9=1/99;
 Leave Link    1 at Mon Mar 21 20:23:14 2022, MaxMem=  8589934592 cpu:               0.4 elap:               0.1
 (Enter /home/sabyasachi/g16/l101.exe)
 ---------------------
 xGDB7_00001_tier4.com
 ---------------------
 Symbolic Z-matrix:
 Charge =  0 Multiplicity = 1
 6                    -0.63015  0.         0. 
 9                     0.74851   0.       0. 
 1                    -0.98525   0.89968   0.50542 
 1                    -0.98522  -0.88756   0.52642 
 1                    -0.98525  -0.01213  -1.03184 
 
 ITRead=  0  0  0  0  0
 MicOpt= -1 -1 -1 -1 -1
 NAtoms=      5 NQM=        5 NQMF=       0 NMMI=      0 NMMIF=      0
                NMic=       0 NMicF=      0.
                    Isotopes and Nuclear Properties:
 (Nuclear quadrupole moments (NQMom) in fm**2, nuclear magnetic moments (NMagM)
  in nuclear magnetons)

  Atom         1           2           3           4           5
 IAtWgt=          12          19           1           1           1
 AtmWgt=  12.0000000  18.9984033   1.0078250   1.0078250   1.0078250
 NucSpn=           0           1           1           1           1
 AtZEff=  -0.0000000  -0.0000000  -0.0000000  -0.0000000  -0.0000000
 NQMom=    0.0000000   0.0000000   0.0000000   0.0000000   0.0000000
 NMagM=    0.0000000   2.6288670   2.7928460   2.7928460   2.7928460
 AtZNuc=   6.0000000   9.0000000   1.0000000   1.0000000   1.0000000
 Leave Link  101 at Mon Mar 21 20:23:14 2022, MaxMem=  8589934592 cpu:               0.6 elap:               0.1
 (Enter /home/sabyasachi/g16/l202.exe)
                          Input orientation:                          
 ---------------------------------------------------------------------
 Center     Atomic      Atomic             Coordinates (Angstroms)
 Number     Number       Type             X           Y           Z
 ---------------------------------------------------------------------
      1          6           0       -0.630149   -0.000001    0.000003
      2          9           0        0.748512    0.000002   -0.000001
      3          1           0       -0.985250    0.899676    0.505416
      4          1           0       -0.985222   -0.887557    0.526417
      5          1           0       -0.985245   -0.012128   -1.031840
 ---------------------------------------------------------------------
                    Distance matrix (angstroms):
                    1          2          3          4          5
     1  C    0.000000
     2  F    1.378661   0.000000
     3  H    1.091310   2.017620   0.000000
     4  H    1.091304   2.017600   1.787356   0.000000
     5  H    1.091302   2.017611   1.787328   1.787328   0.000000
 Stoichiometry    CH3F
 Framework group  C1[X(CH3F)]
 Deg. of freedom     9
 Full point group                 C1      NOp   1
 Largest Abelian subgroup         C1      NOp   1
 Largest concise Abelian subgroup C1      NOp   1
                         Standard orientation:                         
 ---------------------------------------------------------------------
 Center     Atomic      Atomic             Coordinates (Angstroms)
 Number     Number       Type             X           Y           Z
 ---------------------------------------------------------------------
      1          6           0        0.630149   -0.000001   -0.000003
      2          9           0       -0.748512    0.000002    0.000001
      3          1           0        0.985250    0.897475   -0.509314
      4          1           0        0.985222   -0.889832   -0.522562
      5          1           0        0.985245   -0.007652    1.031883
 ---------------------------------------------------------------------
 Rotational constants (GHZ):         156.9708152          25.8428001          25.8427103
 Leave Link  202 at Mon Mar 21 20:23:14 2022, MaxMem=  8589934592 cpu:               0.1 elap:               0.0
 (Enter /home/sabyasachi/g16/l301.exe)
 General basis read from cards:  (5D, 7F)
 Centers:       3      4      5
 S 3 1.00
     Exponent=  1.3010701000D+01 Coefficients=  1.9682158000D-02
     Exponent=  1.9622572000D+00 Coefficients=  1.3796524000D-01
     Exponent=  4.4453796000D-01 Coefficients=  4.7831935000D-01
 S 1 1.00
     Exponent=  1.2194962000D-01 Coefficients=  1.0000000000D+00
 P 1 1.00
     Exponent=  8.0000000000D-01 Coefficients=  1.0000000000D+00
 P 1 1.00
     Exponent=  1.1704099050D-01 Coefficients=  1.0000000000D+00
 ****
 Centers:       1
 S 5 1.00
     Exponent=  1.2384016938D+03 Coefficients=  5.4568832082D-03
     Exponent=  1.8629004992D+02 Coefficients=  4.0638409211D-02
     Exponent=  4.2251176346D+01 Coefficients=  1.8025593888D-01
     Exponent=  1.1676557932D+01 Coefficients=  4.6315121755D-01
     Exponent=  3.5930506482D+00 Coefficients=  4.4087173314D-01
 S 1 1.00
     Exponent=  4.0245147363D-01 Coefficients=  1.0000000000D+00
 S 1 1.00
     Exponent=  1.3090182668D-01 Coefficients=  1.0000000000D+00
 S 1 1.00
     Exponent=  6.7053540256D-02 Coefficients=  1.0000000000D+00
 P 3 1.00
     Exponent=  9.4680970621D+00 Coefficients=  3.8387871728D-02
     Exponent=  2.0103545142D+00 Coefficients=  2.1117025112D-01
     Exponent=  5.4771004707D-01 Coefficients=  5.1328172114D-01
 P 1 1.00
     Exponent=  1.5268613795D-01 Coefficients=  1.0000000000D+00
 D 1 1.00
     Exponent=  8.0000000000D-01 Coefficients=  1.0000000000D+00
 D 1 1.00
     Exponent=  1.1713185140D-01 Coefficients=  1.0000000000D+00
 ****
 Centers:       2
 S 5 1.00
     Exponent=  2.8948325990D+03 Coefficients= -5.3408255515D-03
     Exponent=  4.3541939120D+02 Coefficients= -3.9904258866D-02
     Exponent=  9.8843328866D+01 Coefficients= -1.7912768038D-01
     Exponent=  2.7485198001D+01 Coefficients= -4.6758090825D-01
     Exponent=  8.5405498171D+00 Coefficients= -4.4653131020D-01
 S 1 1.00
     Exponent=  1.0654578038D+00 Coefficients=  1.0000000000D+00
 S 1 1.00
     Exponent=  3.3247346748D-01 Coefficients=  1.0000000000D+00
 S 1 1.00
     Exponent=  9.8097752264D-02 Coefficients=  1.0000000000D+00
 P 3 1.00
     Exponent=  2.2696633924D+01 Coefficients= -4.5212874436D-02
     Exponent=  4.9872339257D+00 Coefficients= -2.3754317067D-01
     Exponent=  1.3491613954D+00 Coefficients= -5.1287353587D-01
 P 1 1.00
     Exponent=  3.4829881977D-01 Coefficients=  1.0000000000D+00
 P 1 1.00
     Exponent=  8.3372148304D-02 Coefficients=  1.0000000000D+00
 D 1 1.00
     Exponent=  1.4000000000D+00 Coefficients=  1.0000000000D+00
 D 1 1.00
     Exponent=  2.2301361948D-01 Coefficients=  1.0000000000D+00
 ****
 Ernie: Thresh=  0.10000D-02 Tol=  0.10000D-05 Strict=F.
 There are    71 symmetry adapted cartesian basis functions of A   symmetry.
 There are    67 symmetry adapted basis functions of A   symmetry.
    67 basis functions,    97 primitive gaussians,    71 cartesian basis functions
     9 alpha electrons        9 beta electrons
       nuclear repulsion energy        37.4250480537 Hartrees.
 IExCor= 2523 DFT=T Ex=TPSS Corr=TPSS ExCW=0 ScaHFX=  0.000000
 ScaDFX=  1.000000  1.000000  1.000000  1.000000 ScalE2=  1.000000  1.000000
 IRadAn=      5 IRanWt=     -1 IRanGd=            0 ICorTp=0 IEmpDi=  4
 NAtoms=    5 NActive=    5 NUniq=    5 SFac= 1.00D+00 NAtFMM=   60 NAOKFM=F Big=F
 Integral buffers will be    131072 words long.
 Regular integral format.
 Two-electron integral symmetry is turned on.
 Leave Link  301 at Mon Mar 21 20:23:14 2022, MaxMem=  8589934592 cpu:               0.5 elap:               0.1
 (Enter /home/sabyasachi/g16/l302.exe)
 NPDir=0 NMtPBC=     1 NCelOv=     1 NCel=       1 NClECP=     1 NCelD=      1
         NCelK=      1 NCelE2=     1 NClLst=     1 CellRange=     0.0.
 One-electron integrals computed using PRISM.
 One-electron integral symmetry used in STVInt
 NBasis=    67 RedAO= T EigKep=  6.61D-04  NBF=    67
 NBsUse=    67 1.00D-06 EigRej= -1.00D+00 NBFU=    67
 Precomputing XC quadrature grid using
 IXCGrd= 4 IRadAn=           5 IRanWt=          -1 IRanGd=           0 AccXCQ= 0.00D+00.
 Generated NRdTot=       0 NPtTot=           0 NUsed=           0 NTot=          32
 NSgBfM=    71    71    71    71    71 MxSgAt=     5 MxSgA2=     5.
 Leave Link  302 at Mon Mar 21 20:23:14 2022, MaxMem=  8589934592 cpu:               0.9 elap:               0.1
 (Enter /home/sabyasachi/g16/l303.exe)
 DipDrv:  MaxL=1.
 Leave Link  303 at Mon Mar 21 20:23:14 2022, MaxMem=  8589934592 cpu:               0.2 elap:               0.0
 (Enter /home/sabyasachi/g16/l308.exe)
 Leave Link  308 at Mon Mar 21 20:23:14 2022, MaxMem=  8589934592 cpu:               0.2 elap:               0.0
 (Enter /home/sabyasachi/g16/l401.exe)
 ExpMin= 6.71D-02 ExpMax= 2.89D+03 ExpMxC= 4.35D+02 IAcc=3 IRadAn=         5 AccDes= 0.00D+00
 Harris functional with IExCor= 1009 and IRadAn=       5 diagonalized for initial guess.
 HarFok:  IExCor= 1009 AccDes= 0.00D+00 IRadAn=         5 IDoV= 1 UseB2=F ITyADJ=14
 ICtDFT=  3500011 ScaDFX=  1.000000  1.000000  1.000000  1.000000
 FoFCou: FMM=F IPFlag=           0 FMFlag=      100000 FMFlg1=           0
         NFxFlg=           0 DoJE=T BraDBF=F KetDBF=T FulRan=T
         wScrn=  0.000000 ICntrl=       500 IOpCl=  0 I1Cent=   200000004 NGrid=           0
         NMat0=    1 NMatS0=      1 NMatT0=    0 NMatD0=    1 NMtDS0=    0 NMtDT0=    0
 Petite list used in FoFCou.
 Harris En= -139.515084539243    
 JPrj=0 DoOrth=F DoCkMO=F.
 Leave Link  401 at Mon Mar 21 20:23:14 2022, MaxMem=  8589934592 cpu:               1.8 elap:               0.3
 (Enter /home/sabyasachi/g16/l502.exe)
 Keep J ints in memory in canonical form, NReq=9750857.
 FoFCou: FMM=F IPFlag=           0 FMFlag=           0 FMFlg1=           0
         NFxFlg=           0 DoJE=F BraDBF=F KetDBF=F FulRan=T
         wScrn=  0.000000 ICntrl=       600 IOpCl=  0 I1Cent=           0 NGrid=           0
         NMat0=    1 NMatS0=   2278 NMatT0=    0 NMatD0=    1 NMtDS0=    0 NMtDT0=    0
 Symmetry not used in FoFCou.
 Two-electron integral symmetry not used.
 Closed shell SCF:
 Using DIIS extrapolation, IDIIS=  1040.
 NGot=  8589934592 LenX=  8587327203 LenY=  8587321721
 Requested convergence on RMS density matrix=1.00D-08 within 100 cycles.
 Requested convergence on MAX density matrix=1.00D-06.
 Requested convergence on             energy=1.00D-06.
 No special actions if energy rises.
 Integral accuracy reduced to 1.0D-05 until final iterations.

 Cycle   1  Pass 0  IDiag  1:
 E= -139.636526809061    
 DIIS: error= 1.66D-02 at cycle   1 NSaved=   1.
 NSaved= 1 IEnMin= 1 EnMin= -139.636526809061     IErMin= 1 ErrMin= 1.66D-02
 ErrMax= 1.66D-02  0.00D+00 EMaxC= 1.00D-01 BMatC= 2.34D-02 BMatP= 2.34D-02
 IDIUse=3 WtCom= 8.34D-01 WtEn= 1.66D-01
 Coeff-Com:  0.100D+01
 Coeff-En:   0.100D+01
 Coeff:      0.100D+01
 Gap=     0.315 Goal=   None    Shift=    0.000
 GapD=    0.315 DampG=1.000 DampE=0.500 DampFc=0.5000 IDamp=-1.
 Damping current iteration by 5.00D-01
 RMSDP=3.94D-03 MaxDP=9.07D-02              OVMax= 8.77D-02

 Cycle   2  Pass 0  IDiag  1:
 E= -139.647505088608     Delta-E=       -0.010978279548 Rises=F Damp=T
 DIIS: error= 8.14D-03 at cycle   2 NSaved=   2.
 NSaved= 2 IEnMin= 2 EnMin= -139.647505088608     IErMin= 2 ErrMin= 8.14D-03
 ErrMax= 8.14D-03  0.00D+00 EMaxC= 1.00D-01 BMatC= 1.94D-03 BMatP= 2.34D-02
 IDIUse=3 WtCom= 9.19D-01 WtEn= 8.14D-02
 Coeff-Com:  0.642D-01 0.936D+00
 Coeff-En:   0.106D+00 0.894D+00
 Coeff:      0.676D-01 0.932D+00
 Gap=     0.321 Goal=   None    Shift=    0.000
 RMSDP=1.02D-03 MaxDP=2.13D-02 DE=-1.10D-02 OVMax= 4.83D-02

 Cycle   3  Pass 0  IDiag  1:
 E= -139.660770196600     Delta-E=       -0.013265107992 Rises=F Damp=F
 DIIS: error= 2.05D-03 at cycle   3 NSaved=   3.
 NSaved= 3 IEnMin= 3 EnMin= -139.660770196600     IErMin= 3 ErrMin= 2.05D-03
 ErrMax= 2.05D-03  0.00D+00 EMaxC= 1.00D-01 BMatC= 3.86D-04 BMatP= 1.94D-03
 IDIUse=3 WtCom= 9.79D-01 WtEn= 2.05D-02
 Coeff-Com: -0.148D-01 0.281D+00 0.733D+00
 Coeff-En:   0.000D+00 0.000D+00 0.100D+01
 Coeff:     -0.145D-01 0.276D+00 0.739D+00
 Gap=     0.315 Goal=   None    Shift=    0.000
 RMSDP=2.90D-04 MaxDP=4.26D-03 DE=-1.33D-02 OVMax= 7.01D-03

 Cycle   4  Pass 0  IDiag  1:
 E= -139.660936934732     Delta-E=       -0.000166738131 Rises=F Damp=F
 DIIS: error= 1.40D-03 at cycle   4 NSaved=   4.
 NSaved= 4 IEnMin= 4 EnMin= -139.660936934732     IErMin= 4 ErrMin= 1.40D-03
 ErrMax= 1.40D-03  0.00D+00 EMaxC= 1.00D-01 BMatC= 1.59D-04 BMatP= 3.86D-04
 IDIUse=3 WtCom= 9.86D-01 WtEn= 1.40D-02
 Coeff-Com: -0.729D-02 0.105D+00 0.427D+00 0.475D+00
 Coeff-En:   0.000D+00 0.000D+00 0.264D+00 0.736D+00
 Coeff:     -0.719D-02 0.104D+00 0.424D+00 0.479D+00
 Gap=     0.318 Goal=   None    Shift=    0.000
 RMSDP=1.48D-04 MaxDP=3.19D-03 DE=-1.67D-04 OVMax= 4.29D-03

 Cycle   5  Pass 0  IDiag  1:
 E= -139.661034738897     Delta-E=       -0.000097804165 Rises=F Damp=F
 DIIS: error= 4.60D-04 at cycle   5 NSaved=   5.
 NSaved= 5 IEnMin= 5 EnMin= -139.661034738897     IErMin= 5 ErrMin= 4.60D-04
 ErrMax= 4.60D-04  0.00D+00 EMaxC= 1.00D-01 BMatC= 1.64D-05 BMatP= 1.59D-04
 IDIUse=3 WtCom= 9.95D-01 WtEn= 4.60D-03
 Coeff-Com: -0.148D-02 0.737D-02 0.119D+00 0.277D+00 0.598D+00
 Coeff-En:   0.000D+00 0.000D+00 0.000D+00 0.722D-01 0.928D+00
 Coeff:     -0.147D-02 0.734D-02 0.119D+00 0.276D+00 0.599D+00
 Gap=     0.318 Goal=   None    Shift=    0.000
 RMSDP=4.24D-05 MaxDP=7.78D-04 DE=-9.78D-05 OVMax= 9.37D-04

 Cycle   6  Pass 0  IDiag  1:
 E= -139.661046008407     Delta-E=       -0.000011269510 Rises=F Damp=F
 DIIS: error= 8.13D-06 at cycle   6 NSaved=   6.
 NSaved= 6 IEnMin= 6 EnMin= -139.661046008407     IErMin= 6 ErrMin= 8.13D-06
 ErrMax= 8.13D-06  0.00D+00 EMaxC= 1.00D-01 BMatC= 4.69D-09 BMatP= 1.64D-05
 IDIUse=1 WtCom= 1.00D+00 WtEn= 0.00D+00
 Coeff-Com: -0.202D-03 0.470D-03 0.943D-02 0.272D-01 0.609D-01 0.902D+00
 Coeff:     -0.202D-03 0.470D-03 0.943D-02 0.272D-01 0.609D-01 0.902D+00
 Gap=     0.318 Goal=   None    Shift=    0.000
 RMSDP=1.69D-06 MaxDP=1.62D-05 DE=-1.13D-05 OVMax= 2.85D-05

 Initial convergence to 1.0D-05 achieved.  Increase integral accuracy.
 Cycle   7  Pass 1  IDiag  1:
 E= -139.661042050504     Delta-E=        0.000003957903 Rises=F Damp=F
 DIIS: error= 1.86D-06 at cycle   1 NSaved=   1.
 NSaved= 1 IEnMin= 1 EnMin= -139.661042050504     IErMin= 1 ErrMin= 1.86D-06
 ErrMax= 1.86D-06  0.00D+00 EMaxC= 1.00D-01 BMatC= 5.49D-10 BMatP= 5.49D-10
 IDIUse=1 WtCom= 1.00D+00 WtEn= 0.00D+00
 Coeff-Com:  0.100D+01
 Coeff:      0.100D+01
 Gap=     0.318 Goal=   None    Shift=    0.000
 RMSDP=1.69D-06 MaxDP=1.62D-05 DE= 3.96D-06 OVMax= 1.28D-05

 Cycle   8  Pass 1  IDiag  1:
 E= -139.661042050837     Delta-E=       -0.000000000333 Rises=F Damp=F
 DIIS: error= 2.01D-06 at cycle   2 NSaved=   2.
 NSaved= 2 IEnMin= 2 EnMin= -139.661042050837     IErMin= 1 ErrMin= 1.86D-06
 ErrMax= 2.01D-06  0.00D+00 EMaxC= 1.00D-01 BMatC= 3.61D-10 BMatP= 5.49D-10
 IDIUse=1 WtCom= 1.00D+00 WtEn= 0.00D+00
 Coeff-Com:  0.429D+00 0.571D+00
 Coeff:      0.429D+00 0.571D+00
 Gap=     0.318 Goal=   None    Shift=    0.000
 RMSDP=3.20D-07 MaxDP=5.16D-06 DE=-3.33D-10 OVMax= 7.49D-06

 Cycle   9  Pass 1  IDiag  1:
 E= -139.661042051047     Delta-E=       -0.000000000210 Rises=F Damp=F
 DIIS: error= 1.31D-06 at cycle   3 NSaved=   3.
 NSaved= 3 IEnMin= 3 EnMin= -139.661042051047     IErMin= 3 ErrMin= 1.31D-06
 ErrMax= 1.31D-06  0.00D+00 EMaxC= 1.00D-01 BMatC= 1.36D-10 BMatP= 3.61D-10
 IDIUse=1 WtCom= 1.00D+00 WtEn= 0.00D+00
 Coeff-Com:  0.927D-01 0.368D+00 0.540D+00
 Coeff:      0.927D-01 0.368D+00 0.540D+00
 Gap=     0.318 Goal=   None    Shift=    0.000
 RMSDP=1.09D-07 MaxDP=2.46D-06 DE=-2.10D-10 OVMax= 2.72D-06

 Cycle  10  Pass 1  IDiag  1:
 E= -139.661042051129     Delta-E=       -0.000000000083 Rises=F Damp=F
 DIIS: error= 2.67D-07 at cycle   4 NSaved=   4.
 NSaved= 4 IEnMin= 4 EnMin= -139.661042051129     IErMin= 4 ErrMin= 2.67D-07
 ErrMax= 2.67D-07  0.00D+00 EMaxC= 1.00D-01 BMatC= 4.43D-12 BMatP= 1.36D-10
 IDIUse=1 WtCom= 1.00D+00 WtEn= 0.00D+00
 Coeff-Com:  0.140D-01 0.141D+00 0.249D+00 0.596D+00
 Coeff:      0.140D-01 0.141D+00 0.249D+00 0.596D+00
 Gap=     0.318 Goal=   None    Shift=    0.000
 RMSDP=3.51D-08 MaxDP=8.37D-07 DE=-8.28D-11 OVMax= 6.74D-07

 Cycle  11  Pass 1  IDiag  1:
 E= -139.661042051134     Delta-E=       -0.000000000004 Rises=F Damp=F
 DIIS: error= 7.79D-08 at cycle   5 NSaved=   5.
 NSaved= 5 IEnMin= 5 EnMin= -139.661042051134     IErMin= 5 ErrMin= 7.79D-08
 ErrMax= 7.79D-08  0.00D+00 EMaxC= 1.00D-01 BMatC= 4.28D-13 BMatP= 4.43D-12
 IDIUse=1 WtCom= 1.00D+00 WtEn= 0.00D+00
 Coeff-Com: -0.250D-02 0.343D-01 0.641D-01 0.290D+00 0.614D+00
 Coeff:     -0.250D-02 0.343D-01 0.641D-01 0.290D+00 0.614D+00
 Gap=     0.318 Goal=   None    Shift=    0.000
 RMSDP=8.52D-09 MaxDP=1.94D-07 DE=-4.43D-12 OVMax= 2.25D-07

 SCF Done:  E(RTPSS-TPSS) =  -139.661042051     A.U. after   11 cycles
            NFock= 11  Conv=0.85D-08     -V/T= 2.0079
 KE= 1.385647750252D+02 PE=-4.047724962173D+02 EE= 8.912163108726D+01
 Leave Link  502 at Mon Mar 21 20:23:16 2022, MaxMem=  8589934592 cpu:              13.1 elap:               1.7
 (Enter /home/sabyasachi/g16/l801.exe)
 DoSCS=F DFT=T ScalE2(SS,OS)=  1.000000  1.000000
 ExpMin= 6.71D-02 ExpMax= 2.89D+03 ExpMxC= 4.35D+02 IAcc=3 IRadAn=         5 AccDes= 0.00D+00
 HarFok:  IExCor=  205 AccDes= 0.00D+00 IRadAn=         5 IDoV=-2 UseB2=F ITyADJ=14
 ICtDFT= 12500011 ScaDFX=  1.000000  1.000000  1.000000  1.000000
 Largest valence mixing into a core orbital is  8.27D-05
 Largest core mixing into a valence orbital is  2.66D-05
 Range of M.O.s used for correlation:     3    67
 NBasis=    67 NAE=     9 NBE=     9 NFC=     2 NFV=     0
 NROrb=     65 NOA=     7 NOB=     7 NVA=    58 NVB=    58

 **** Warning!!: The largest alpha MO coefficient is  0.21870933D+02

 Leave Link  801 at Mon Mar 21 20:23:16 2022, MaxMem=  8589934592 cpu:               0.4 elap:               0.1
 (Enter /home/sabyasachi/g16/l914.exe)
 RHF ground state
 Keep J ints in memory in canonical form, NReq=194291829.
 FoFCou: FMM=F IPFlag=           0 FMFlag=           0 FMFlg1=           0
         NFxFlg=           0 DoJE=F BraDBF=F KetDBF=F FulRan=T
         wScrn=  0.000000 ICntrl=       600 IOpCl=  0 I1Cent=           0 NGrid=           0
         NMat0=    1 NMatS0=   2278 NMatT0=    0 NMatD0=    1 NMtDS0=    0 NMtDT0=    0
 Symmetry not used in FoFCou.
 Two-electron integral symmetry not used.
 MDV=  8589934592 DFT=T DoStab=F Mixed=F DoRPA=T DoScal=T NonHer=F
 Making orbital integer symmetry assigments:
 Orbital symmetries:
       Occupied  (A) (A) (A) (A) (A) (A) (A) (A) (A)
       Virtual   (A) (A) (A) (A) (A) (A) (A) (A) (A) (A) (A) (A)
                 (A) (A) (A) (A) (A) (A) (A) (A) (A) (A) (A) (A)
                 (A) (A) (A) (A) (A) (A) (A) (A) (A) (A) (A) (A)
                 (A) (A) (A) (A) (A) (A) (A) (A) (A) (A) (A) (A)
                 (A) (A) (A) (A) (A) (A) (A) (A) (A) (A)
   406 initial guesses have been made.
 Convergence on wavefunction:    0.001000000000000
 Davidson Disk Diagonalization:  ConvIn= 1.00D-03 SkipCon=T Conv= 1.00D-03.
 Max sub-space:  1624 roots to seek:   812 dimension of matrix:          812
 *** WARNING: Number of orthogonal guesses is          406
 Iteration     1 Dimension   406 NMult     0 NNew    406
 CISAX will form   406 AO SS matrices at one time.
 NMat=   406 NSing=   406 JSym2X= 0.
 New state      5 was old state      7
 New state      6 was old state      5
 New state      7 was old state      8
 New state      8 was old state      6
 New state      9 was old state     12
 New state     10 was old state      9
 New state     11 was old state     10
 New state     12 was old state     11
 New state     20 was old state     21
 New state     21 was old state     20
 New state     26 was old state     27
 New state     27 was old state     28
 New state     28 was old state     32
 New state     29 was old state     31
 New state     30 was old state     29
 New state     31 was old state     30
 New state     32 was old state     26
 New state     35 was old state     38
 New state     36 was old state     35
 New state     37 was old state     36
 New state     38 was old state     37
 New state     39 was old state     42
 New state     40 was old state     43
 New state     41 was old state     44
 New state     42 was old state     45
 New state     43 was old state     41
 New state     44 was old state     47
 New state     45 was old state     46
 New state     46 was old state     39
 New state     47 was old state     65
 New state     49 was old state     51
 New state     51 was old state     54
 New state     52 was old state     55
 New state     53 was old state     49
 New state     54 was old state     52
 New state     55 was old state     53
 New state     58 was old state     60
 New state     59 was old state     58
 New state     60 was old state     59
 New state     65 was old state     70
 New state     66 was old state     69
 New state     69 was old state     66
 New state     70 was old state     71
 New state     71 was old state     72
 New state     72 was old state     73
 New state     73 was old state     74
 New state     74 was old state     75
 New state     75 was old state     79
 New state     76 was old state     78
 New state     77 was old state     80
 New state     78 was old state     81
 New state     79 was old state     76
 New state     80 was old state     77
 New state     81 was old state    102
 New state     91 was old state     95
 New state     92 was old state     98
 New state     93 was old state     91
 New state     94 was old state     92
 New state     95 was old state     93
 New state     96 was old state    103
 New state     97 was old state    101
 New state     98 was old state     99
 New state     99 was old state    100
 New state    100 was old state    104
 New state    101 was old state     94
 New state    102 was old state     96
 New state    103 was old state     97
 New state    104 was old state    105
 New state    105 was old state    106
 New state    106 was old state    107
 New state    107 was old state    109
 New state    108 was old state    110
 New state    109 was old state    119
 New state    110 was old state    111
 New state    111 was old state    112
 New state    112 was old state    113
 New state    113 was old state    114
 New state    114 was old state    115
 New state    115 was old state    108
 New state    116 was old state    117
 New state    117 was old state    118
 New state    118 was old state    116
 New state    119 was old state    122
 New state    122 was old state    124
 New state    124 was old state    125
 New state    125 was old state    126
 New state    126 was old state    127
 New state    127 was old state    128
 New state    128 was old state    129
 New state    129 was old state    130
 New state    130 was old state    131
 New state    131 was old state    133
 New state    133 was old state    136
 New state    134 was old state    135
 New state    135 was old state    134
 New state    136 was old state    149
 New state    139 was old state    140
 New state    140 was old state    143
 New state    141 was old state    144
 New state    142 was old state    139
 New state    143 was old state    141
 New state    144 was old state    142
 New state    149 was old state    150
 New state    150 was old state    151
 New state    151 was old state    153
 New state    153 was old state    154
 New state    154 was old state    155
 New state    155 was old state    156
 New state    156 was old state    162
 New state    162 was old state    163
 New state    163 was old state    165
 New state    165 was old state    166
 New state    166 was old state    167
 New state    167 was old state    170
 New state    170 was old state    171
 New state    171 was old state    174
 New state    172 was old state    175
 New state    174 was old state    172
 New state    175 was old state    176
 New state    176 was old state    181
 New state    177 was old state    180
 New state    178 was old state    179
 New state    179 was old state    177
 New state    180 was old state    178
 New state    181 was old state    182
 New state    182 was old state    187
 New state    187 was old state    188
 New state    188 was old state    208
 New state    191 was old state    193
 New state    192 was old state    196
 New state    193 was old state    197
 New state    194 was old state    192
 New state    195 was old state    198
 New state    196 was old state    199
 New state    197 was old state    191
 New state    198 was old state    202
 New state    199 was old state    203
 New state    200 was old state    201
 New state    201 was old state    194
 New state    202 was old state    195
 New state    203 was old state    206
 New state    204 was old state    207
 New state    205 was old state    204
 New state    206 was old state    205
 New state    207 was old state    209
 New state    208 was old state    200
 New state    209 was old state    210
 New state    210 was old state    211
 New state    211 was old state    212
 New state    212 was old state    213
 New state    213 was old state    214
 New state    214 was old state    215
 New state    215 was old state    216
 New state    216 was old state    217
 New state    217 was old state    218
 New state    218 was old state    219
 New state    219 was old state    220
 New state    220 was old state    221
 New state    221 was old state    222
 New state    222 was old state    223
 New state    223 was old state    224
 New state    224 was old state    227
 New state    227 was old state    228
 No map to state    228
 New state    237 was old state    238
 New state    238 was old state    239
 New state    239 was old state    237
 New state    243 was old state    245
 New state    244 was old state    243
 New state    245 was old state    244
 New state    246 was old state    248
 New state    247 was old state    249
 New state    248 was old state    247
 New state    249 was old state    250
 New state    250 was old state    252
 New state    252 was old state    253
 New state    253 was old state    254
 New state    254 was old state    255
 New state    255 was old state    258
 New state    258 was old state    263
 New state    261 was old state    264
 New state    262 was old state    266
 New state    263 was old state    261
 New state    264 was old state    262
 New state    266 was old state    267
 New state    267 was old state    268
 New state    268 was old state    269
 New state    269 was old state    270
 New state    270 was old state    271
 New state    271 was old state    276
 New state    272 was old state    274
 New state    273 was old state    275
 New state    274 was old state    272
 New state    275 was old state    273
 New state    276 was old state    277
 New state    277 was old state    279
 New state    278 was old state    280
 New state    279 was old state    278
 New state    280 was old state    281
 New state    281 was old state    282
 New state    282 was old state    283
 New state    283 was old state    293
 New state    287 was old state    288
 New state    288 was old state    287
 New state    293 was old state    294
 New state    294 was old state    295
 New state    295 was old state    296
 New state    296 was old state    297
 New state    297 was old state    298
 New state    298 was old state    300
 New state    300 was old state    303
 New state    303 was old state    304
 New state    304 was old state    306
 New state    306 was old state    307
 New state    307 was old state    308
 New state    308 was old state    309
 New state    309 was old state    310
 New state    310 was old state    311
 New state    311 was old state    312
 New state    312 was old state    313
 New state    313 was old state    331
 New state    327 was old state    328
 New state    328 was old state    329
 New state    329 was old state    327
 New state    331 was old state    332
 New state    332 was old state    335
 New state    333 was old state    334
 New state    334 was old state    333
 New state    335 was old state    337
 New state    337 was old state    338
 New state    338 was old state    339
 New state    339 was old state    342
 New state    342 was old state    343
 New state    343 was old state    344
 No map to state    344
 New state    352 was old state    354
 New state    353 was old state    355
 New state    354 was old state    353
 New state    355 was old state    356
 New state    356 was old state    352
 New state    357 was old state    358
 New state    358 was old state    360
 New state    359 was old state    357
 New state    360 was old state    359
 New state    367 was old state    370
 New state    368 was old state    369
 New state    369 was old state    367
 New state    370 was old state    368
 New state    373 was old state    374
 New state    374 was old state    373
 New state    376 was old state    379
 New state    377 was old state    380
 New state    378 was old state    381
 New state    379 was old state    382
 New state    380 was old state    376
 New state    381 was old state    388
 New state    382 was old state    389
 New state    384 was old state    387
 New state    387 was old state    384
 New state    388 was old state    390
 New state    389 was old state    391
 New state    390 was old state    396
 New state    391 was old state    397
 New state    396 was old state    398
 New state    397 was old state    399
 New state    398 was old state    378
 New state    399 was old state    377
 New state    401 was old state    403
 New state    402 was old state    401
 New state    403 was old state    402
 Excitation Energies [eV] at current iteration:
 Root      1 :     8.658044262175070
 Root      2 :     8.658084360266134
 Root      3 :     9.493585650658600
 Root      4 :     9.493624764003966
 Root      5 :    10.607014500888540
 Root      6 :    10.607016334463970
 Root      7 :    10.620946923048060
 Root      8 :    10.814971395149160
 Root      9 :    11.846346661845150
 Root     10 :    11.850987722748850
 Root     11 :    11.851039864611240
 Root     12 :    12.076178582080180
 Root     13 :    12.137797386756250
 Root     14 :    12.137801862725170
 Root     15 :    12.413268838461020
 Root     16 :    12.413346651996740
 Root     17 :    12.678264380630490
 Root     18 :    12.722682517765990
 Root     19 :    12.722683079331610
 Root     20 :    12.751151441753440
 Root     21 :    13.104467404442650
 Root     22 :    13.280334206674810
 Root     23 :    13.280415596839020
 Root     24 :    14.046283409158880
 Root     25 :    14.299271886836730
 Root     26 :    14.320038359629490
 Root     27 :    14.320041089746320
 Root     28 :    14.522734798630040
 Root     29 :    14.522742420040020
 Root     30 :    14.603954298754750
 Root     31 :    14.603968939297780
 Root     32 :    15.089533336059660
 Root     33 :    15.396156585200830
 Root     34 :    15.396190290927040
 Root     35 :    15.524784854287910
 Root     36 :    15.550672674075170
 Root     37 :    15.550763082814650
 Root     38 :    15.644402306972920
 Root     39 :    15.885469048323230
 Root     40 :    15.885515773844760
 Root     41 :    16.033879274084010
 Root     42 :    16.033893639157680
 Root     43 :    16.085011427033640
 Root     44 :    16.229467227561050
 Root     45 :    16.236215869463180
 Root     46 :    16.236219442380240
 Root     47 :    16.397767017086860
 Root     48 :    16.434486891928670
 Root     49 :    16.486991520682300
 Root     50 :    16.487004434320490
 Root     51 :    16.653175822080150
 Root     52 :    16.653196876884480
 Root     53 :    16.660268435678780
 Root     54 :    16.690955862627640
 Root     55 :    16.690979181766290
 Root     56 :    17.288504776685740
 Root     57 :    17.288544593148680
 Root     58 :    17.514697574869360
 Root     59 :    17.661790040477230
 Root     60 :    17.661792706977550
 Root     61 :    17.741550095636970
 Root     62 :    18.170836139873350
 Root     63 :    18.266359858633610
 Root     64 :    18.266437701475700
 Root     65 :    18.938314993156710
 Root     66 :    19.004987074058650
 Root     67 :    19.030155940107350
 Root     68 :    19.030182936078520
 Root     69 :    19.057117807769430
 Root     70 :    19.144669377314120
 Root     71 :    19.144718030850200
 Root     72 :    19.317800006570240
 Root     73 :    19.406198619513000
 Root     74 :    19.406242131183650
 Root     75 :    19.863572244070730
 Root     76 :    19.863582384051870
 Root     77 :    19.906387426093120
 Root     78 :    19.942567177810960
 Root     79 :    20.079666465725980
 Root     80 :    20.079681347839210
 Root     81 :    20.115451555770790
 Root     82 :    20.187539414075100
 Root     83 :    20.187560068932320
 Root     84 :    20.270750332469290
 Root     85 :    20.270787648482220
 Root     86 :    20.440248296531950
 Root     87 :    20.440318327225120
 Root     88 :    20.716900911898290
 Root     89 :    20.968029948118260
 Root     90 :    20.968099715194900
 Root     91 :    21.158926238841400
 Root     92 :    21.260903686593040
 Root     93 :    21.339987865903140
 Root     94 :    21.347841163935550
 Root     95 :    21.347884094521540
 Root     96 :    21.441671822094160
 Root     97 :    21.441697006882760
 Root     98 :    21.548424048996720
 Root     99 :    21.548436571278580
 Root    100 :    21.597408493949710
 Root    101 :    21.775352843164870
 Root    102 :    21.775365606467370
 Root    103 :    21.791192969748760
 Root    104 :    22.074301766029120
 Root    105 :    22.074353553274240
 Root    106 :    22.675788468339220
 Root    107 :    22.776687344883430
 Root    108 :    22.776697088780670
 Root    109 :    22.877117587881890
 Root    110 :    22.989811028116610
 Root    111 :    22.989856346168760
 Root    112 :    23.058241890375010
 Root    113 :    23.058304094440550
 Root    114 :    23.287062862756280
 Root    115 :    23.501673750978330
 Root    116 :    23.932311072093410
 Root    117 :    23.932385551433670
 Root    118 :    24.281793679390130
 Root    119 :    24.694111540220670
 Root    120 :    24.930727434497840
 Root    121 :    25.277579058432630
 Root    122 :    25.295680658497150
 Root    123 :    25.295697720400880
 Root    124 :    25.480158731815990
 Root    125 :    25.480171459889770
 Root    126 :    25.589546672605480
 Root    127 :    25.589573316711080
 Root    128 :    25.642327352944430
 Root    129 :    25.642342514301800
 Root    130 :    25.953575346748360
 Root    131 :    26.371149670419640
 Root    132 :    26.574157875859450
 Root    133 :    26.581688923310220
 Root    134 :    26.866726589706600
 Root    135 :    26.866750358998650
 Root    136 :    27.042147245970110
 Root    137 :    27.083199574493440
 Root    138 :    27.083237978255940
 Root    139 :    28.168442794144470
 Root    140 :    28.359407768306450
 Root    141 :    28.359441102047770
 Root    142 :    28.410576114725000
 Root    143 :    28.464904616369800
 Root    144 :    28.464917206476950
 Root    145 :    28.656061706883510
 Root    146 :    29.284990381759010
 Root    147 :    29.285067314694470
 Root    148 :    29.683767766074790
 Root    149 :    29.923801201895400
 Root    150 :    30.063100216764490
 Root    151 :    30.366574717839370
 Root    152 :    30.366591328936530
 Root    153 :    30.438871145513240
 Root    154 :    30.546726519390760
 Root    155 :    30.546807600180030
 Root    156 :    30.576822514109790
 Root    157 :    31.009018321108990
 Root    158 :    31.009045456595060
 Root    159 :    31.465311556430920
 Root    160 :    31.465327145298180
 Root    161 :    31.690367558626260
 Root    162 :    31.860623817748350
 Root    163 :    31.953965174820330
 Root    164 :    31.953972150702840
 Root    165 :    32.192953757825070
 Root    166 :    32.192965283826520
 Root    167 :    32.319448566282550
 Root    168 :    32.417753618219510
 Root    169 :    32.417771554349140
 Root    170 :    32.549327753312930
 Root    171 :    32.664249480462570
 Root    172 :    32.664274554829150
 Root    173 :    33.092137320569020
 Root    174 :    33.092153358341610
 Root    175 :    33.536329276777690
 Root    176 :    33.754960276496100
 Root    177 :    33.775174854519150
 Root    178 :    33.775186090186170
 Root    179 :    33.777966631215600
 Root    180 :    33.777994107407720
 Root    181 :    33.953051025299940
 Root    182 :    34.598763193155750
 Root    183 :    34.668382691900690
 Root    184 :    34.668429485045760
 Root    185 :    35.037773369491570
 Root    186 :    35.037850612485070
 Root    187 :    35.064926135537180
 Root    188 :    35.469654862201790
 Root    189 :    36.067590619006020
 Root    190 :    36.067659943403800
 Root    191 :    36.199824315753680
 Root    192 :    36.256222900185160
 Root    193 :    36.256307579101820
 Root    194 :    36.406387148367490
 Root    195 :    36.538153001427510
 Root    196 :    36.538328606932680
 Root    197 :    36.615332981589840
 Root    198 :    36.925868672271830
 Root    199 :    36.925892747783900
 Root    200 :    36.986679497086360
 Root    201 :    37.143786695875330
 Root    202 :    37.143812279695340
 Root    203 :    37.390333860640450
 Root    204 :    37.390347295638970
 Root    205 :    37.600867489780090
 Root    206 :    37.600881450233680
 Root    207 :    37.629760845959020
 Root    208 :    37.816016883912800
 Root    209 :    37.893903905989700
 Root    210 :    37.893951076607720
 Root    211 :    37.990834901201180
 Root    212 :    37.990858658119600
 Root    213 :    38.569014119834660
 Root    214 :    39.103348113055390
 Root    215 :    39.377319705079180
 Root    216 :    39.377363736170930
 Root    217 :    39.504457846121300
 Root    218 :    40.632127961281370
 Root    219 :    40.632201339187260
 Root    220 :    40.859029345536370
 Root    221 :    40.859094181287500
 Root    222 :    40.959005047601410
 Root    223 :    41.400061235173530
 Root    224 :    41.891116192534910
 Root    225 :    42.171766139563130
 Root    226 :    42.171936546662760
 Root    227 :    42.230755315048030
 Root    228 :    42.274512558905850
 Root    229 :    43.248683343078180
 Root    230 :    43.248739134636130
 Root    231 :    43.557036537743340
 Root    232 :    43.557061074727940
 Root    233 :    46.939330294563110
 Root    234 :    47.908029027204460
 Root    235 :    48.333925034398430
 Root    236 :    48.334012474985460
 Root    237 :    48.879938584469050
 Root    238 :    48.944467168292220
 Root    239 :    48.944468184483500
 Root    240 :    49.780222947710350
 Root    241 :    50.152572565466040
 Root    242 :    50.152577059666480
 Root    243 :    51.920566389607930
 Root    244 :    51.920570581183730
 Root    245 :    52.138869176076260
 Root    246 :    52.530235934666750
 Root    247 :    52.650969516006340
 Root    248 :    52.650971860020180
 Root    249 :    52.658782704428970
 Root    250 :    52.709357817292900
 Root    251 :    52.709396347079280
 Root    252 :    52.883051868252370
 Root    253 :    53.109998930316620
 Root    254 :    53.110112658478260
 Root    255 :    54.353336904054590
 Root    256 :    54.503314808308350
 Root    257 :    54.503471453653840
 Root    258 :    54.832195829830570
 Root    259 :    54.889203067092260
 Root    260 :    54.889260380597290
 Root    261 :    55.626587109611650
 Root    262 :    55.626592385721540
 Root    263 :    55.690027571944850
 Root    264 :    55.690078764118940
 Root    265 :    55.805649650975380
 Root    266 :    55.999034473062950
 Root    267 :    55.999143217979330
 Root    268 :    56.427224295276000
 Root    269 :    56.427281919004370
 Root    270 :    56.636029274047220
 Root    271 :    56.847127648306900
 Root    272 :    58.403716154133900
 Root    273 :    58.403791001282540
 Root    274 :    58.592151033224030
 Root    275 :    58.592317069775510
 Root    276 :    58.838638458452040
 Root    277 :    59.071470066502080
 Root    278 :    59.578051550842920
 Root    279 :    59.578084293775050
 Root    280 :    59.642578117672260
 Root    281 :    60.354776852703370
 Root    282 :    60.354791581703080
 Root    283 :    61.062095922851830
 Root    284 :    61.432504363793650
 Root    285 :    61.432619453289200
 Root    286 :    61.974771227439840
 Root    287 :    62.998953310005580
 Root    288 :    63.267631145156870
 Root    289 :    63.290357823052680
 Root    290 :    63.290417831141980
 Root    291 :    63.579247407804000
 Root    292 :    63.579503709690830
 Root    293 :    64.042729636399710
 Root    294 :    64.042812657928780
 Root    295 :    64.151362769636580
 Root    296 :    64.742138469553310
 Root    297 :    64.892870554854770
 Root    298 :    64.892881788830550
 Root    299 :    65.007027931839870
 Root    300 :    67.749557737261640
 Root    301 :    67.883135174303580
 Root    302 :    67.883180838074850
 Root    303 :    68.489938716878780
 Root    304 :    68.489943318566560
 Root    305 :    68.648244223651560
 Root    306 :    68.892589554657420
 Root    307 :    68.892913999463800
 Root    308 :    68.990682452798720
 Root    309 :    68.990876194789040
 Root    310 :    69.271146235818190
 Root    311 :    69.808490097380940
 Root    312 :    69.808551238078690
 Root    313 :    70.298972932122670
 Root    314 :    70.807902725607990
 Root    315 :    70.808052182719390
 Root    316 :    71.619273500016820
 Root    317 :    71.619350246166080
 Root    318 :    72.651452516110480
 Root    319 :    73.337834484190130
 Root    320 :    73.337894396860760
 Root    321 :    73.932429962317700
 Root    322 :    74.050527493745210
 Root    323 :    74.050601595091010
 Root    324 :    74.317388105851510
 Root    325 :    74.317571246118420
 Root    326 :    74.525035025073150
 Root    327 :    75.090254433172480
 Root    328 :    75.403100339150530
 Root    329 :    75.403107095998220
 Root    330 :    75.466942843675910
 Root    331 :    77.131803666759140
 Root    332 :    78.682114011316240
 Root    333 :    78.744036863645500
 Root    334 :    78.887873746947960
 Root    335 :    79.129506050275300
 Root    336 :    79.129525262574280
 Root    337 :    79.440757364927580
 Root    338 :    79.441217712217210
 Root    339 :    79.735142867352680
 Root    340 :    81.482652550095680
 Root    341 :    81.482998875433140
 Root    342 :    82.424096471812690
 Root    343 :    82.424156857466810
 Root    344 :    82.687168331048680
 Root    345 :    84.497406206756550
 Root    346 :    84.497891035457160
 Root    347 :    86.039492013950980
 Root    348 :    86.039562812283110
 Root    349 :    86.753570100028940
 Root    350 :    86.964370649400760
 Root    351 :    86.964600556878300
 Root    352 :    89.392116761648380
 Root    353 :    89.585532189067610
 Root    354 :    89.585543112605390
 Root    355 :    89.839345596014250
 Root    356 :    90.506981176692550
 Root    357 :    91.862909594705490
 Root    358 :    92.953830150384590
 Root    359 :    93.279359690732280
 Root    360 :    93.300179109009330
 Root    361 :    93.300266464343510
 Root    362 :    93.313222520850830
 Root    363 :    93.651503081538910
 Root    364 :    93.651965456879140
 Root    365 :    97.386227946937610
 Root    366 :    97.386715248726570
 Root    367 :    98.464427569960380
 Root    368 :    98.466869574508120
 Root    369 :    98.641362240894820
 Root    370 :    98.641882444933500
 Root    371 :   100.960583282719800
 Root    372 :   100.960587342144500
 Root    373 :   101.245959119799300
 Root    374 :   101.245959437635700
 Root    375 :   101.903965354598700
 Root    376 :   102.650424092751000
 Root    377 :   102.655462533121700
 Root    378 :   103.063652992584100
 Root    379 :   103.063676472076400
 Root    380 :   103.661933911290300
 Root    381 :   103.996714310111300
 Root    382 :   103.996765465494700
 Root    383 :   104.771629634019700
 Root    384 :   105.268093664094200
 Root    385 :   105.268094778524300
 Root    386 :   105.580811266890300
 Root    387 :   107.710116483722400
 Root    388 :   108.649835633814100
 Root    389 :   108.649860936796600
 Root    390 :   108.848894046681600
 Root    391 :   108.848932457500100
 Root    392 :   111.130187923742000
 Root    393 :   111.130272506040000
 Root    394 :   111.734500029326600
 Root    395 :   111.735031457977800
 Root    396 :   113.791146383772700
 Root    397 :   113.791234474583900
 Root    398 :   116.588241226302200
 Root    399 :   116.588287604972200
 Root    400 :   118.424165648220400
 Root    401 :   121.920647030067000
 Root    402 :   122.348683461049100
 Root    403 :   122.348709263064400
 Root    404 :   124.873475860885400
 Root    405 :   124.873578386139200
 Root    406 :   134.607661151249800
 Convergence achieved for final wavefunctions.
 ***********************************************************************
 Excited states from <AA,BB:AA,BB> singles matrix:
 ***********************************************************************
 
 1PDM for each excited state written to RWF  633
 Ground to excited state transition densities written to RWF  633
 Ground to excited state transition electric dipole moments (Au):
       state          X           Y           Z        Dip. S.      Osc.
         1         0.0000     -0.0018     -0.3006      0.0904      0.0192
         2         0.0000     -0.3006      0.0019      0.0904      0.0192
         3         0.0000      0.0003     -0.2327      0.0541      0.0126
         4        -0.0000     -0.2327     -0.0003      0.0541      0.0126
         5        -0.0000     -0.0595     -0.3347      0.1155      0.0300
         6        -0.0000     -0.3347      0.0595      0.1156      0.0300
         7         0.0001     -0.0009     -0.0001      0.0000      0.0000
         8         0.6272     -0.0000     -0.0000      0.3934      0.1042
         9         0.0001      0.0012     -0.0003      0.0000      0.0000
        10         0.0000      0.0056     -0.2174      0.0473      0.0137
        11         0.0000     -0.2174     -0.0056      0.0473      0.0137
        12         0.1142     -0.0000     -0.0003      0.0130      0.0039
        13         0.0000     -0.3600     -0.0949      0.1386      0.0412
        14         0.0000      0.0948     -0.3600      0.1386      0.0412
        15        -0.0000      0.1489     -0.6856      0.4923      0.1497
        16        -0.0000     -0.6856     -0.1489      0.4923      0.1497
        17        -0.0776     -0.0000     -0.0001      0.0060      0.0019
        18        -0.0000      0.0081      0.0071      0.0001      0.0000
        19         0.0000     -0.0070      0.0081      0.0001      0.0000
        20         0.0000      0.0000     -0.0000      0.0000      0.0000
        21        -0.0786      0.0000      0.0000      0.0062      0.0020
        22         0.0002     -0.0483      0.1845      0.0364      0.0118
        23         0.0001      0.1845      0.0483      0.0364      0.0118
        24        -1.0729      0.0000     -0.0000      1.1511      0.3961
        25        -0.0000     -0.0009      0.0003      0.0000      0.0000
        26        -0.0000     -0.0325     -0.3626      0.1325      0.0465
        27        -0.0000     -0.3626      0.0324      0.1326      0.0465
        28        -0.0000     -0.0551      0.1285      0.0195      0.0070
        29        -0.0000      0.1285      0.0551      0.0196      0.0070
        30        -0.0000     -0.0243      0.3440      0.1189      0.0425
        31        -0.0000      0.3439      0.0244      0.1189      0.0425
        32         0.1582      0.0000      0.0000      0.0250      0.0093
        33         0.0000      0.0109      0.2467      0.0610      0.0230
        34        -0.0000      0.2467     -0.0109      0.0610      0.0230
        35         0.0000      0.0001      0.0000      0.0000      0.0000
        36         0.0000      0.0184     -0.0956      0.0095      0.0036
        37         0.0000     -0.0956     -0.0184      0.0095      0.0036
        38         0.1113     -0.0000     -0.0001      0.0124      0.0047
        39        -0.0001     -0.0196      0.1972      0.0393      0.0153
        40        -0.0001     -0.1970     -0.0195      0.0392      0.0153
        41         0.0000     -0.6365     -0.1750      0.4358      0.1712
        42        -0.0000     -0.1750      0.6365      0.4357      0.1712
        43        -0.0718     -0.0000     -0.0000      0.0052      0.0020
        44        -0.0002      0.0016      0.0006      0.0000      0.0000
        45        -0.0001      0.0538     -0.5009      0.2538      0.1010
        46         0.0001      0.5009      0.0538      0.2538      0.1010
        47        -0.8961      0.0000     -0.0000      0.8029      0.3226
        48        -0.0001      0.0007     -0.0002      0.0000      0.0000
        49        -0.0001      0.5701      0.0201      0.3254      0.1314
        50        -0.0000     -0.0201      0.5702      0.3255      0.1315
        51         0.0004      0.0019     -0.1033      0.0107      0.0044
        52         0.0001     -0.1035     -0.0019      0.0107      0.0044
        53         0.4787      0.0000     -0.0000      0.2292      0.0935
        54         0.0000      0.2194     -0.0036      0.0482      0.0197
        55         0.0001      0.0036      0.2194      0.0482      0.0197
        56        -0.0000     -0.1373     -0.0028      0.0189      0.0080
        57         0.0000     -0.0028      0.1373      0.0189      0.0080
        58        -0.0002     -0.0000     -0.0000      0.0000      0.0000
        59        -0.0001      0.0103     -0.1856      0.0345      0.0149
        60        -0.0000      0.1856      0.0103      0.0345      0.0149
        61         0.2056     -0.0000     -0.0001      0.0423      0.0184
        62        -0.2667      0.0000      0.0000      0.0712      0.0317
        63         0.0001      0.0089     -0.0395      0.0016      0.0007
        64         0.0000     -0.0395     -0.0089      0.0016      0.0007
        65         0.1017     -0.0001     -0.0000      0.0103      0.0048
        66         0.0001     -0.0003      0.0002      0.0000      0.0000
        67         0.0000      0.0420     -0.1902      0.0380      0.0177
        68        -0.0001     -0.1904     -0.0420      0.0380      0.0177
        69        -0.5388      0.0000     -0.0000      0.2903      0.1355
        70         0.0000     -0.0674      0.3927      0.1587      0.0745
        71        -0.0001      0.3926      0.0674      0.1587      0.0744
        72         0.0955      0.0000      0.0000      0.0091      0.0043
        73         0.0000     -0.0132      0.2620      0.0688      0.0327
        74         0.0000      0.2619      0.0132      0.0688      0.0327
        75        -0.0000      0.0206     -0.0651      0.0047      0.0023
        76         0.0001      0.0652      0.0207      0.0047      0.0023
        77         0.0000     -0.0001     -0.0000      0.0000      0.0000
        78        -0.0886     -0.0000     -0.0001      0.0078      0.0038
        79        -0.0000      0.2447     -0.0905      0.0681      0.0335
        80         0.0000      0.0905      0.2447      0.0681      0.0335
        81        -0.5043      0.0000     -0.0000      0.2543      0.1253
        82        -0.0000     -0.1700      0.0587      0.0324      0.0160
        83         0.0000     -0.0587     -0.1700      0.0324      0.0160
        84        -0.0000     -0.0028      0.1689      0.0285      0.0142
        85        -0.0000      0.1689      0.0027      0.0285      0.0142
        86        -0.0000     -0.0998      0.4506      0.2130      0.1067
        87        -0.0000      0.4506      0.0998      0.2130      0.1067
        88         0.1957      0.0000      0.0000      0.0383      0.0194
        89        -0.0000     -0.0653     -0.0167      0.0045      0.0023
        90        -0.0000     -0.0167      0.0653      0.0045      0.0023
        91        -0.0002     -0.0000      0.0000      0.0000      0.0000
        92         0.0001     -0.0000      0.0000      0.0000      0.0000
        93         0.3104      0.0000      0.0002      0.0964      0.0504
        94         0.0011      0.0088     -0.0609      0.0038      0.0020
        95        -0.0005      0.0609      0.0088      0.0038      0.0020
        96        -0.0000      0.0429     -0.2178      0.0493      0.0259
        97         0.0000      0.2178      0.0429      0.0493      0.0259
        98         0.0000      0.0720     -0.1773      0.0366      0.0193
        99        -0.0000      0.1773      0.0720      0.0366      0.0193
       100        -0.0002      0.0001     -0.0000      0.0000      0.0000
       101        -0.0000     -0.4963     -0.1997      0.2862      0.1527
       102         0.0000      0.1997     -0.4964      0.2862      0.1527
       103         0.0177     -0.0002     -0.0007      0.0003      0.0002
       104         0.0000      0.1471      0.0022      0.0217      0.0117
       105        -0.0000     -0.0022      0.1471      0.0217      0.0117
       106        -0.0001      0.0001     -0.0001      0.0000      0.0000
       107         0.0000      0.2046      0.0601      0.0455      0.0254
       108         0.0001     -0.0601      0.2046      0.0455      0.0254
       109        -0.7826      0.0000      0.0000      0.6125      0.3433
       110        -0.0002      0.0896      0.0529      0.0108      0.0061
       111         0.0002      0.0529     -0.0895      0.0108      0.0061
       112        -0.0000      0.0052     -0.0236      0.0006      0.0003
       113         0.0000     -0.0235     -0.0052      0.0006      0.0003
       114         0.4729      0.0000      0.0001      0.2237      0.1276
       115        -0.2633      0.0000     -0.0000      0.0693      0.0399
       116        -0.0000      0.0096     -0.0407      0.0017      0.0010
       117        -0.0000     -0.0407     -0.0096      0.0017      0.0010
       118         0.1351      0.0000      0.0000      0.0182      0.0109
       119        -0.3829      0.0000      0.0000      0.1466      0.0887
       120         0.0988     -0.0000     -0.0000      0.0098      0.0060
       121         0.0000     -0.0005      0.0001      0.0000      0.0000
       122         0.0000     -0.1910     -0.0142      0.0367      0.0227
       123         0.0000      0.0142     -0.1910      0.0367      0.0227
       124         0.0000     -0.0198      0.0281      0.0012      0.0007
       125         0.0000     -0.0281     -0.0198      0.0012      0.0007
       126         0.0000     -0.1200      0.1269      0.0305      0.0191
       127         0.0000     -0.1269     -0.1199      0.0305      0.0191
       128         0.0000     -0.0544      0.2311      0.0564      0.0354
       129         0.0001      0.2311      0.0543      0.0563      0.0354
       130        -0.2158     -0.0000     -0.0000      0.0466      0.0296
       131         0.0000     -0.0000      0.0000      0.0000      0.0000
       132         0.4861      0.0000      0.0000      0.2363      0.1539
       133         0.0001      0.0000      0.0000      0.0000      0.0000
       134        -0.0001     -0.0006      0.5460      0.2981      0.1962
       135         0.0000     -0.5460     -0.0006      0.2981      0.1962
       136        -0.2915      0.0001     -0.0000      0.0849      0.0563
       137         0.0002      0.0194     -0.1095      0.0124      0.0082
       138        -0.0000      0.1095      0.0194      0.0124      0.0082
       139         0.0000     -0.0000     -0.0000      0.0000      0.0000
       140        -0.0001      0.3946      0.2366      0.2117      0.1471
       141         0.0002      0.2367     -0.3947      0.2118      0.1472
       142        -0.5523     -0.0000     -0.0000      0.3050      0.2123
       143        -0.0002     -0.2635     -0.2574      0.1357      0.0946
       144         0.0002     -0.2574      0.2633      0.1356      0.0946
       145         0.0057     -0.0000      0.0000      0.0000      0.0000
       146         0.0000      0.0755     -0.3183      0.1070      0.0768
       147         0.0000     -0.3183     -0.0755      0.1070      0.0768
       148         0.0154     -0.0000     -0.0000      0.0002      0.0002
       149        -0.3408     -0.0000     -0.0000      0.1162      0.0852
       150         0.0002      0.0000     -0.0000      0.0000      0.0000
       151        -0.0000      0.0119     -0.1404      0.0199      0.0148
       152         0.0000      0.1403      0.0118      0.0198      0.0148
       153        -0.0129      0.0000     -0.0000      0.0002      0.0001
       154        -0.0000     -0.0983      0.3098      0.1057      0.0791
       155         0.0000     -0.3099     -0.0983      0.1057      0.0791
       156         0.0685     -0.0000      0.0001      0.0047      0.0035
       157        -0.0000     -0.0775      0.0623      0.0099      0.0075
       158        -0.0000     -0.0623     -0.0775      0.0099      0.0075
       159         0.0000     -0.0218     -0.3029      0.0922      0.0711
       160        -0.0000     -0.3029      0.0218      0.0922      0.0711
       161         0.0845      0.0000     -0.0000      0.0071      0.0055
       162         0.0001      0.0000     -0.0000      0.0000      0.0000
       163         0.0000      0.0007     -0.0100      0.0001      0.0001
       164        -0.0000     -0.0099     -0.0007      0.0001      0.0001
       165        -0.0000      0.1907     -0.3652      0.1698      0.1339
       166        -0.0001     -0.3652     -0.1907      0.1697      0.1339
       167         0.0922     -0.0000     -0.0000      0.0085      0.0067
       168         0.0000     -0.0814      0.0158      0.0069      0.0055
       169        -0.0000     -0.0157     -0.0813      0.0069      0.0055
       170        -0.0000     -0.0000     -0.0001      0.0000      0.0000
       171        -0.0001      0.0692      0.2814      0.0840      0.0672
       172        -0.0000      0.2813     -0.0690      0.0839      0.0672
       173        -0.0001     -0.0689      0.2015      0.0454      0.0368
       174         0.0000     -0.2016     -0.0689      0.0454      0.0368
       175        -0.1746      0.0000     -0.0000      0.0305      0.0251
       176        -0.1984      0.0000     -0.0000      0.0394      0.0326
       177        -0.0000      0.0024     -0.0301      0.0009      0.0008
       178        -0.0000     -0.0302     -0.0024      0.0009      0.0008
       179        -0.0003      0.0003      0.0046      0.0000      0.0000
       180        -0.0000     -0.0045      0.0003      0.0000      0.0000
       181        -0.0001      0.0000      0.0000      0.0000      0.0000
       182        -0.1473     -0.0000     -0.0000      0.0217      0.0184
       183         0.0000     -0.0192      0.0006      0.0004      0.0003
       184         0.0000     -0.0006     -0.0192      0.0004      0.0003
       185         0.0004      0.0504     -0.1913      0.0391      0.0336
       186         0.0002     -0.1913     -0.0504      0.0391      0.0336
       187        -0.4141     -0.0001     -0.0002      0.1715      0.1473
       188         0.4131      0.0000      0.0000      0.1706      0.1483
       189        -0.0000      0.0137     -0.0401      0.0018      0.0016
       190         0.0000      0.0401      0.0138      0.0018      0.0016
       191        -0.0000      0.0000      0.0001      0.0000      0.0000
       192        -0.0000      0.0171     -0.0497      0.0028      0.0025
       193         0.0001     -0.0497     -0.0169      0.0028      0.0024
       194        -0.0673      0.0000     -0.0001      0.0045      0.0040
       195        -0.0000      0.0378      0.1838      0.0352      0.0315
       196         0.0001      0.1838     -0.0378      0.0352      0.0315
       197         0.1657      0.0001      0.0000      0.0275      0.0246
       198        -0.0000     -0.0875     -0.2543      0.0723      0.0654
       199         0.0000     -0.2543      0.0874      0.0723      0.0654
       200        -0.0677     -0.0000      0.0000      0.0046      0.0042
       201        -0.0000      0.3029      0.0124      0.0919      0.0836
       202        -0.0000     -0.0123      0.3029      0.0919      0.0837
       203        -0.0000      0.2138      0.0245      0.0463      0.0424
       204         0.0000     -0.0245      0.2139      0.0463      0.0425
       205        -0.0000      0.0003     -0.0059      0.0000      0.0000
       206        -0.0000     -0.0059     -0.0003      0.0000      0.0000
       207         0.0002     -0.0001     -0.0000      0.0000      0.0000
       208        -0.0642      0.0000     -0.0000      0.0041      0.0038
       209        -0.0000      0.1961      0.0142      0.0387      0.0359
       210        -0.0000      0.0143     -0.1961      0.0386      0.0359
       211         0.0000      0.0668     -0.0442      0.0064      0.0060
       212         0.0000      0.0442      0.0668      0.0064      0.0060
       213        -0.0070     -0.0000     -0.0000      0.0000      0.0000
       214         0.0001     -0.0000     -0.0000      0.0000      0.0000
       215         0.0000     -0.0026      0.0122      0.0002      0.0002
       216        -0.0000     -0.0122     -0.0026      0.0002      0.0002
       217        -0.0706      0.0000      0.0000      0.0050      0.0048
       218        -0.0000      0.0168     -0.0636      0.0043      0.0043
       219         0.0000     -0.0636     -0.0168      0.0043      0.0043
       220         0.0000      0.0269      0.0123      0.0009      0.0009
       221        -0.0000      0.0123     -0.0269      0.0009      0.0009
       222         0.0071     -0.0000     -0.0000      0.0000      0.0001
       223        -0.0399      0.0000      0.0000      0.0016      0.0016
       224        -0.1418     -0.0000      0.0000      0.0201      0.0206
       225         0.0002      0.0066      0.0251      0.0007      0.0007
       226         0.0002      0.0250     -0.0066      0.0007      0.0007
       227         0.0865      0.0000     -0.0000      0.0075      0.0077
       228        -0.0866     -0.0000     -0.0000      0.0075      0.0078
       229         0.0000     -0.3528     -0.0109      0.1246      0.1320
       230        -0.0000     -0.0109      0.3527      0.1245      0.1320
       231         0.0000      0.0439     -0.0333      0.0030      0.0032
       232        -0.0000      0.0333      0.0439      0.0030      0.0032
       233        -0.0886     -0.0000      0.0000      0.0078      0.0090
       234        -0.0323     -0.0000      0.0000      0.0010      0.0012
       235        -0.0000     -0.0017      0.0046      0.0000      0.0000
       236         0.0000     -0.0046     -0.0017      0.0000      0.0000
       237         0.0000     -0.0002      0.0001      0.0000      0.0000
       238         0.0000      0.1426     -0.1111      0.0327      0.0392
       239        -0.0000      0.1111      0.1426      0.0327      0.0392
       240         0.3910      0.0000      0.0000      0.1529      0.1864
       241        -0.0000     -0.0027     -0.0426      0.0018      0.0022
       242        -0.0000     -0.0426      0.0027      0.0018      0.0022
       243        -0.0000     -0.0380      0.0077      0.0015      0.0019
       244        -0.0000      0.0077      0.0380      0.0015      0.0019
       245        -0.0001     -0.0000      0.0000      0.0000      0.0000
       246         0.0004     -0.0001      0.0000      0.0000      0.0000
       247         0.0008      0.0633     -0.0477      0.0063      0.0081
       248        -0.0028      0.0477      0.0633      0.0063      0.0081
       249         0.2362      0.0004      0.0010      0.0558      0.0720
       250        -0.0001     -0.0277      0.0807      0.0073      0.0094
       251         0.0000     -0.0808     -0.0277      0.0073      0.0094
       252         0.1265     -0.0000      0.0000      0.0160      0.0207
       253        -0.0000      0.0679     -0.3027      0.0963      0.1253
       254         0.0000      0.3027      0.0679      0.0962      0.1252
       255        -0.3485      0.0000      0.0000      0.1215      0.1618
       256         0.0001      0.0105      0.0376      0.0015      0.0020
       257         0.0001      0.0376     -0.0105      0.0015      0.0020
       258         0.0543     -0.0000      0.0000      0.0029      0.0040
       259         0.0000     -0.0166     -0.2011      0.0407      0.0548
       260        -0.0000     -0.2011      0.0166      0.0407      0.0548
       261        -0.0000      0.0461     -0.0520      0.0048      0.0066
       262         0.0000     -0.0520     -0.0461      0.0048      0.0066
       263         0.0000     -0.0911     -0.0025      0.0083      0.0113
       264        -0.0000     -0.0026      0.0911      0.0083      0.0113
       265        -0.0001      0.0000     -0.0000      0.0000      0.0000
       266        -0.0000      0.0005     -0.0004      0.0000      0.0000
       267        -0.0000     -0.0004     -0.0005      0.0000      0.0000
       268         0.0000     -0.1548     -0.0419      0.0257      0.0356
       269        -0.0000     -0.0419      0.1548      0.0257      0.0356
       270         0.0000     -0.0000      0.0000      0.0000      0.0000
       271        -0.2271      0.0000     -0.0000      0.0516      0.0718
       272         0.0000     -0.0071      0.0426      0.0019      0.0027
       273         0.0000      0.0426      0.0072      0.0019      0.0027
       274        -0.0000      0.0238     -0.1168      0.0142      0.0204
       275         0.0000      0.1168      0.0238      0.0142      0.0204
       276        -0.0199     -0.0000      0.0000      0.0004      0.0006
       277        -0.1069     -0.0000      0.0000      0.0114      0.0165
       278        -0.0000     -0.0159     -0.0781      0.0064      0.0093
       279         0.0000     -0.0781      0.0159      0.0064      0.0093
       280         0.0000      0.0002      0.0002      0.0000      0.0000
       281         0.0000      0.0085     -0.0127      0.0002      0.0003
       282         0.0000     -0.0127     -0.0085      0.0002      0.0003
       283         0.2160     -0.0000     -0.0000      0.0466      0.0698
       284         0.0000     -0.0875      0.0908      0.0159      0.0240
       285         0.0000      0.0908      0.0875      0.0159      0.0240
       286         0.0000     -0.0000      0.0000      0.0000      0.0000
       287        -0.0509      0.0001     -0.0000      0.0026      0.0040
       288         0.0000     -0.0003     -0.0004      0.0000      0.0000
       289         0.0000      0.0216     -0.0606      0.0041      0.0064
       290         0.0000      0.0607      0.0216      0.0041      0.0064
       291        -0.0000      0.0484     -0.0273      0.0031      0.0048
       292        -0.0000     -0.0273     -0.0484      0.0031      0.0048
       293        -0.0000      0.0693     -0.0532      0.0076      0.0120
       294        -0.0000     -0.0532     -0.0693      0.0076      0.0120
       295         0.0734      0.0000     -0.0001      0.0054      0.0085
       296         0.0174     -0.0000      0.0000      0.0003      0.0005
       297         0.0000     -0.0514      0.0005      0.0026      0.0042
       298        -0.0000     -0.0005     -0.0514      0.0026      0.0042
       299         0.0000     -0.0000     -0.0000      0.0000      0.0000
       300         0.0975      0.0000     -0.0000      0.0095      0.0158
       301         0.0000      0.0080     -0.1275      0.0163      0.0271
       302         0.0000     -0.1275     -0.0080      0.0163      0.0271
       303         0.0000     -0.0548      0.0102      0.0031      0.0052
       304         0.0000      0.0102      0.0548      0.0031      0.0052
       305         0.0000      0.0000     -0.0000      0.0000      0.0000
       306        -0.0000      0.0037     -0.0021      0.0000      0.0000
       307         0.0000     -0.0022     -0.0038      0.0000      0.0000
       308         0.0000     -0.0566     -0.1414      0.0232      0.0392
       309         0.0000     -0.1414      0.0566      0.0232      0.0392
       310         0.0678      0.0000      0.0000      0.0046      0.0078
       311        -0.0000      0.0034      0.1008      0.0102      0.0174
       312        -0.0000      0.1008     -0.0034      0.0102      0.0174
       313        -0.0357     -0.0000      0.0000      0.0013      0.0022
       314        -0.0000     -0.0264      0.1090      0.0126      0.0218
       315         0.0000     -0.1090     -0.0264      0.0126      0.0218
       316        -0.0000     -0.0354      0.1882      0.0367      0.0643
       317        -0.0000      0.1881      0.0354      0.0367      0.0643
       318         0.0398      0.0000      0.0000      0.0016      0.0028
       319        -0.0000      0.0102     -0.0402      0.0017      0.0031
       320        -0.0000     -0.0402     -0.0102      0.0017      0.0031
       321         0.0109     -0.0000     -0.0000      0.0001      0.0002
       322         0.0000      0.1102     -0.1718      0.0416      0.0756
       323        -0.0000     -0.1718     -0.1102      0.0416      0.0755
       324        -0.0000      0.0308      0.0915      0.0093      0.0170
       325         0.0000      0.0914     -0.0308      0.0093      0.0169
       326        -0.0000      0.0000     -0.0000      0.0000      0.0000
       327         0.0001      0.0000     -0.0000      0.0000      0.0000
       328         0.0003     -0.0113     -0.0074      0.0002      0.0003
       329         0.0005      0.0074     -0.0113      0.0002      0.0003
       330        -0.1300      0.0000     -0.0001      0.0169      0.0313
       331        -0.1416     -0.0000     -0.0000      0.0200      0.0379
       332         0.0001      0.0000     -0.0000      0.0000      0.0000
       333        -0.0493     -0.0000      0.0000      0.0024      0.0047
       334         0.1932      0.0000      0.0000      0.0373      0.0721
       335        -0.0000     -0.0071     -0.0285      0.0009      0.0017
       336         0.0000     -0.0285      0.0071      0.0009      0.0017
       337         0.0000     -0.0044      0.1406      0.0198      0.0385
       338         0.0000     -0.1405     -0.0044      0.0198      0.0385
       339        -0.1036     -0.0000      0.0000      0.0107      0.0210
       340        -0.0000     -0.0900      0.0530      0.0109      0.0218
       341        -0.0000      0.0530      0.0900      0.0109      0.0218
       342        -0.0000      0.0089     -0.0507      0.0026      0.0053
       343        -0.0000     -0.0507     -0.0089      0.0026      0.0053
       344         0.1104     -0.0000      0.0000      0.0122      0.0247
       345         0.0000      0.0012     -0.0586      0.0034      0.0071
       346        -0.0000      0.0586      0.0012      0.0034      0.0071
       347        -0.0000      0.0145     -0.0526      0.0030      0.0063
       348        -0.0000     -0.0526     -0.0145      0.0030      0.0063
       349         0.0072     -0.0000     -0.0000      0.0001      0.0001
       350        -0.0000     -0.0302     -0.0727      0.0062      0.0132
       351        -0.0000     -0.0727      0.0302      0.0062      0.0132
       352         0.0958      0.0000     -0.0000      0.0092      0.0201
       353         0.0000      0.0120      0.0214      0.0006      0.0013
       354         0.0001     -0.0213      0.0120      0.0006      0.0013
       355        -0.0001     -0.0000     -0.0000      0.0000      0.0000
       356         0.0196     -0.0000      0.0000      0.0004      0.0009
       357         0.0314      0.0000      0.0000      0.0010      0.0022
       358         0.0740      0.0000     -0.0001      0.0055      0.0125
       359        -0.0293      0.0003     -0.0007      0.0009      0.0020
       360        -0.0000     -0.1339     -0.0015      0.0179      0.0410
       361        -0.0001     -0.0015      0.1340      0.0179      0.0410
       362        -0.0001     -0.0028     -0.0006      0.0000      0.0000
       363         0.0000     -0.0103      0.0015      0.0001      0.0003
       364        -0.0000     -0.0015     -0.0103      0.0001      0.0002
       365         0.0000      0.0001      0.0012      0.0000      0.0000
       366        -0.0000     -0.0012      0.0001      0.0000      0.0000
       367         0.0044      0.0000     -0.0000      0.0000      0.0000
       368        -0.0000      0.0000      0.0000      0.0000      0.0000
       369         0.0000     -0.0884      0.0121      0.0080      0.0192
       370        -0.0000     -0.0121     -0.0883      0.0080      0.0192
       371         0.0000     -0.0642      0.1771      0.0355      0.0878
       372        -0.0000     -0.1771     -0.0642      0.0355      0.0878
       373        -0.0000     -0.0407     -0.0061      0.0017      0.0042
       374         0.0000     -0.0061      0.0407      0.0017      0.0042
       375        -0.0000      0.0000     -0.0000      0.0000      0.0000
       376        -0.0075      0.0000      0.0000      0.0001      0.0001
       377        -0.0001     -0.0000      0.0000      0.0000      0.0000
       378         0.0000     -0.0026      0.0003      0.0000      0.0000
       379        -0.0000      0.0003      0.0026      0.0000      0.0000
       380        -0.1380     -0.0000      0.0000      0.0191      0.0484
       381         0.0000      0.0587     -0.1279      0.0198      0.0505
       382        -0.0000      0.1279      0.0587      0.0198      0.0505
       383         0.0734     -0.0000      0.0000      0.0054      0.0138
       384        -0.0000      0.0010      0.0002      0.0000      0.0000
       385        -0.0000     -0.0002      0.0010      0.0000      0.0000
       386        -0.0000      0.0000     -0.0000      0.0000      0.0000
       387         0.3157      0.0000      0.0000      0.0996      0.2629
       388        -0.0000      0.0386     -0.0023      0.0015      0.0040
       389         0.0000     -0.0023     -0.0386      0.0015      0.0040
       390        -0.0000     -0.1048      0.3149      0.1101      0.2937
       391         0.0000     -0.3149     -0.1048      0.1101      0.2937
       392        -0.0000      0.0130     -0.0313      0.0011      0.0031
       393        -0.0000      0.0313      0.0130      0.0011      0.0031
       394         0.0000     -0.0565      0.0074      0.0032      0.0089
       395         0.0000     -0.0074     -0.0565      0.0032      0.0089
       396        -0.0000      0.0712     -0.3311      0.1147      0.3198
       397        -0.0000     -0.3311     -0.0712      0.1147      0.3198
       398        -0.0000     -0.1182      0.3064      0.1079      0.3081
       399        -0.0000      0.3064      0.1182      0.1079      0.3081
       400         0.3813      0.0000      0.0000      0.1454      0.4218
       401        -0.1741     -0.0000     -0.0000      0.0303      0.0905
       402        -0.0000      0.0004      0.0000      0.0000      0.0000
       403         0.0000      0.0000     -0.0004      0.0000      0.0000
       404         0.0000      0.0324     -0.0677      0.0056      0.0172
       405        -0.0000      0.0677      0.0324      0.0056      0.0172
       406        -0.0327     -0.0000     -0.0000      0.0011      0.0035
 Ground to excited state transition velocity dipole moments (Au):
       state          X           Y           Z        Dip. S.      Osc.
         1        -0.0000      0.0006      0.0971      0.0094      0.0198
         2        -0.0000      0.0971     -0.0006      0.0094      0.0198
         3        -0.0000     -0.0001      0.0879      0.0077      0.0148
[...]
      6   0.868184D-01  0.130309D-01  0.365698D+00  0.130024D-04  0.266072D+00
      7   0.212163D-01  0.365743D+00 -0.130465D-01  0.613582D-04  0.155136D+00
      8  -0.906530D-04  0.585604D-05 -0.601356D-04 -0.493663D-03 -0.292284D-05
      9   0.195656D-01 -0.679261D-01  0.235252D-02  0.166139D-04 -0.197035D+00
     10  -0.808141D-01  0.234739D-02  0.679616D-01 -0.303992D-04  0.338072D+00
     11   0.707690D-04  0.407432D-03  0.000000D+00 -0.229257D+01 -0.241563D-03
     12  -0.949339D-02  0.274301D+00 -0.183494D-04 -0.894086D+00  0.767740D-02
     13   0.950710D-02 -0.273891D+00  0.356662D-04 -0.894092D+00 -0.765346D-02
     14  -0.254129D+00  0.477796D-02  0.137069D+00  0.131861D-04  0.259082D+00
     15  -0.625617D-01  0.136956D+00 -0.478339D-02 -0.363332D-04  0.150935D+00
     16  -0.352449D-01  0.410967D-04  0.274132D+00  0.168566D-04  0.122609D-01
               341           342           343           344           345 
      1  -0.136667D+03 -0.136632D+03 -0.136632D+03 -0.136622D+03 -0.136556D+03
      2   0.188727D-04  0.353672D-05  0.104917D-04 -0.110417D+00 -0.194539D-04
      3   0.525836D-01  0.914890D-02 -0.506479D-01 -0.141012D-04  0.142531D-02
      4  -0.901848D-01  0.506491D-01  0.914923D-02 -0.162973D-04  0.586362D-01
      5  -0.496414D-04 -0.107692D-04 -0.277289D-04  0.325059D+00  0.514347D-04
      6  -0.155148D+00 -0.240322D-01  0.133040D+00  0.425703D-04 -0.377373D-02
      7   0.266057D+00 -0.133037D+00 -0.240324D-01  0.455300D-04 -0.154195D+00
      8   0.103377D-04 -0.284637D-05  0.224340D-05 -0.821711D-05  0.193071D-04
      9  -0.338053D+00 -0.642230D-01 -0.116078D-01 -0.582324D-04  0.119443D+00
     10  -0.197062D+00  0.116289D-01 -0.642343D-01  0.346274D-04 -0.268214D-02
     11  -0.671071D-04  0.263752D-04  0.117333D-04  0.878312D+00 -0.261590D-04
     12   0.122857D-01 -0.101908D+00 -0.143793D-01 -0.172119D+00  0.192788D+00
     13  -0.122321D-01  0.101908D+00  0.143808D-01 -0.172010D+00 -0.192852D+00
     14  -0.150969D+00  0.433396D-01 -0.241669D+00  0.458058D-04 -0.455792D-03
     15   0.259065D+00  0.241671D+00  0.433260D-01 -0.328325D-05 -0.388454D-02
     16  -0.765869D-02 -0.143797D-01  0.101924D+00  0.151101D-04 -0.293857D-02
               346           347           348           349           350 
      1  -0.136556D+03 -0.136499D+03 -0.136499D+03 -0.136473D+03 -0.136465D+03
      2   0.615085D-05  0.391977D-04  0.212680D-04 -0.716555D-02  0.365346D-05
      3   0.586342D-01  0.146949D-01 -0.525420D-01 -0.330700D-05 -0.298443D-01
      4  -0.142558D-02  0.525575D-01  0.146911D-01  0.117492D-04  0.728483D-01
      5  -0.166364D-04 -0.114448D-03 -0.618324D-04  0.498905D-01 -0.839751D-05
      6  -0.154190D+00 -0.277308D-01  0.989461D-01  0.694112D-05  0.111129D+00
      7   0.377546D-02 -0.989877D-01 -0.277214D-01 -0.279273D-04 -0.271138D+00
      8  -0.130322D-04  0.000000D+00  0.130940D-05  0.116746D-04  0.363868D-05
      9  -0.268893D-02 -0.655787D-01 -0.182299D-01  0.216484D-04  0.422260D+00
     10  -0.119440D+00  0.182415D-01 -0.656478D-01  0.110716D-04  0.173093D+00
     11   0.243481D-04 -0.236983D-03 -0.595455D-04 -0.608958D+00 -0.817161D-05
     12   0.296141D-02  0.964017D-01  0.226558D-01  0.160036D+00 -0.373790D-01
     13  -0.292523D-02 -0.963873D-01 -0.226340D-01  0.159963D+00  0.373912D-01
     14  -0.387718D-02  0.417150D-01 -0.150310D+00 -0.255384D-04  0.257432D+00
     15   0.456263D-03  0.150225D+00  0.416986D-01  0.373517D-04 -0.627966D+00
     16   0.192824D+00  0.226435D-01 -0.963869D-01 -0.205438D-04  0.164250D-01
               351           352           353           354           355 
      1  -0.136465D+03 -0.136376D+03 -0.136369D+03 -0.136369D+03 -0.136360D+03
      2   0.333303D-05 -0.958275D-01 -0.343160D-04 -0.799205D-04  0.130940D-03
      3  -0.728485D-01  0.290607D-05  0.119467D-01 -0.214014D-01 -0.199012D-04
      4  -0.298463D-01  0.251256D-04 -0.214049D-01 -0.119462D-01  0.622718D-05
      5  -0.114725D-04  0.249729D+00  0.769864D-04  0.206504D-03 -0.448363D-03
      6   0.271140D+00 -0.193968D-04 -0.491698D-01  0.878113D-01  0.890152D-04
      7   0.111134D+00 -0.103553D-03  0.878228D-01  0.491684D-01 -0.263473D-04
      8   0.346157D-05 -0.335887D-03 -0.150677D-04  0.112222D-04 -0.154191D-01
      9  -0.173093D+00 -0.551165D-03  0.401861D+00  0.226919D+00 -0.150034D-03
     10   0.422265D+00  0.185178D-03  0.226904D+00 -0.401832D+00 -0.542188D-03
     11  -0.430065D-04 -0.598928D+00 -0.804204D-03 -0.537372D-03  0.112647D-02
     12   0.165150D-01 -0.231420D-01  0.654544D-01  0.404425D-01 -0.921977D-03
     13  -0.165115D-01 -0.229880D-01 -0.654386D-01 -0.404416D-01 -0.883576D-03
     14   0.627978D+00  0.906909D-04  0.112118D+00 -0.198271D+00 -0.280830D-03
     15   0.257429D+00  0.287886D-03 -0.198284D+00 -0.112112D+00  0.793601D-04
     16   0.373727D-01 -0.279067D-04 -0.404423D-01  0.654439D-01  0.855241D-04
               356           357           358           359           360 
      1  -0.136335D+03 -0.136285D+03 -0.136245D+03 -0.136233D+03 -0.136232D+03
      2  -0.196267D-01 -0.313652D-01 -0.739930D-01  0.293313D-01  0.434432D-04
      3  -0.340749D-05  0.208468D-05  0.247366D-04  0.266226D-03 -0.133927D+00
      4  -0.470515D-05 -0.721887D-05  0.684445D-04  0.734961D-03  0.204494D-02
      5   0.107578D+00  0.806771D-01  0.274064D+00 -0.141334D+00 -0.224051D-03
      6   0.115413D-04 -0.448985D-05 -0.680052D-04 -0.749939D-03  0.377361D+00
      7   0.126513D-04  0.188427D-04 -0.188738D-03 -0.207327D-02 -0.576930D-02
      8  -0.252540D-04 -0.124897D-05 -0.497205D-03 -0.231731D-03  0.393840D-03
      9   0.569943D-04  0.268965D-04 -0.119874D-03 -0.105421D-02 -0.302705D-02
     10   0.489479D-05  0.887897D-05  0.415912D-04  0.479503D-03 -0.215774D+00
     11   0.290873D+00 -0.447073D+00 -0.289912D-01 -0.916580D+00 -0.171324D-02
     12  -0.584642D+00  0.128970D+00 -0.508038D+00  0.797038D+00  0.263511D-02
     13  -0.584677D+00  0.128897D+00 -0.507936D+00  0.797500D+00  0.286744D-03
     14   0.000000D+00 -0.169339D-04  0.240372D-04  0.536882D-03 -0.251321D+00
     15  -0.137537D-04  0.126980D-04  0.127301D-03  0.118419D-02  0.338581D-02
     16  -0.863051D-05 -0.175400D-04 -0.224346D-04 -0.923025D-04  0.475107D-01
               361           362           363           364           365 
      1  -0.136232D+03 -0.136232D+03 -0.136219D+03 -0.136219D+03 -0.136082D+03
      2   0.121768D-03  0.947941D-04 -0.687082D-05  0.113503D-04 -0.547035D-05
      3  -0.205431D-02 -0.283481D-02 -0.103462D-01 -0.145037D-02  0.473948D-04
      4  -0.133959D+00  0.586792D-03 -0.144752D-02  0.102816D-01 -0.121553D-02
      5  -0.618373D-03 -0.312912D-03  0.216790D-04 -0.340827D-04  0.161896D-04
      6   0.579725D-02  0.799356D-02  0.249318D-01  0.342057D-02  0.804355D-03
      7   0.377447D+00 -0.165146D-02  0.341235D-02 -0.247490D-01  0.416108D-01
      8  -0.840439D-04 -0.189439D-01  0.127123D-05  0.000000D+00  0.000000D+00
      9   0.215830D+00 -0.115444D-02  0.313036D-02 -0.236402D-01 -0.219569D+00
     10  -0.304044D-02 -0.440689D-02 -0.237537D-01 -0.311888D-02  0.565544D-02
     11  -0.483467D-02 -0.209753D-02 -0.103312D-03  0.727566D-04  0.185198D-04
     12   0.515291D-01  0.214921D-03  0.256478D-01 -0.140665D+00 -0.311343D-01
     13  -0.436530D-01  0.551106D-03 -0.256437D-01  0.140692D+00  0.311140D-01
     14  -0.342700D-02 -0.523951D-02  0.236359D+00  0.349288D-01  0.104035D-01
     15  -0.251242D+00  0.136354D-02  0.349174D-01 -0.236491D+00  0.415329D+00
     16  -0.117579D-02  0.936838D-03  0.140700D+00  0.256335D-01  0.402231D-04
               366           367           368           369           370 
      1  -0.136082D+03 -0.136043D+03 -0.136042D+03 -0.136036D+03 -0.136036D+03
      2   0.119253D-05 -0.442194D-02  0.353615D-04 -0.244317D-05  0.492401D-05
      3  -0.122036D-02  0.000000D+00  0.386717D-05 -0.884050D-01 -0.117373D-01
      4  -0.467834D-04  0.000000D+00  0.000000D+00 -0.117373D-01  0.884001D-01
      5   0.000000D+00  0.312985D-02 -0.101419D-03  0.844520D-05 -0.151835D-04
      6   0.416232D-01  0.000000D+00 -0.121239D-04  0.219934D+00  0.291727D-01
      7  -0.807638D-03  0.000000D+00  0.192518D-05  0.291717D-01 -0.219922D+00
      8   0.000000D+00 -0.107828D-03  0.233190D-02  0.190292D-05 -0.236365D-05
      9   0.566637D-02  0.246519D-05 -0.261853D-05  0.529458D-01 -0.403903D+00
     10   0.219553D+00  0.000000D+00 -0.155007D-04 -0.403904D+00 -0.529536D-01
     11   0.566082D-04 -0.109424D+00  0.887878D-03 -0.117217D-04  0.294226D-04
     12  -0.906165D-04  0.175655D-01 -0.622768D-03 -0.203230D-01  0.119649D+00
     13  -0.730717D-05  0.175697D-01 -0.622193D-03  0.203157D-01 -0.119634D+00
     14   0.415318D+00  0.000000D+00 -0.135336D-04 -0.289417D+00 -0.378128D-01
     15  -0.104229D-01  0.000000D+00  0.137167D-05 -0.377960D-01  0.289412D+00
     16  -0.311318D-01  0.000000D+00  0.000000D+00 -0.119641D+00 -0.203203D-01
               371           372           373           374           375 
      1  -0.135951D+03 -0.135951D+03 -0.135940D+03 -0.135940D+03 -0.135916D+03
      2  -0.335225D-05  0.000000D+00  0.388270D-05 -0.447256D-05  0.258435D-04
      3  -0.649973D-01 -0.176804D+00 -0.406836D-01 -0.631046D-02  0.773298D-05
      4  -0.176804D+00  0.649982D-01  0.630913D-02 -0.406850D-01  0.452058D-05
      5   0.142982D-04 -0.393072D-05 -0.135027D-04  0.151700D-04 -0.838661D-04
      6   0.217820D+00  0.592492D+00  0.141109D+00  0.218829D-01 -0.207090D-04
      7   0.592493D+00 -0.217823D+00 -0.218759D-01  0.141112D+00 -0.145600D-04
      8  -0.562972D-05  0.000000D+00 -0.161312D-05  0.000000D+00  0.114648D-01
      9  -0.597173D+00  0.220079D+00  0.205100D-01 -0.132035D+00  0.391299D-04
     10   0.220090D+00  0.597183D+00  0.132006D+00  0.204681D-01  0.167644D-04
     11   0.937302D-04 -0.450960D-04 -0.635507D-04  0.714795D-04 -0.237138D-03
     12  -0.257058D-02  0.887086D-03 -0.361632D-02  0.312327D-01  0.202685D-03
     13   0.256531D-02 -0.850237D-03  0.362168D-02 -0.312349D-01  0.194789D-03
     14   0.193478D+00  0.525159D+00 -0.160420D-01 -0.268239D-02  0.182907D-04
     15   0.525154D+00 -0.193475D+00  0.266262D-02 -0.160254D-01 -0.143412D-04
     16  -0.864660D-03 -0.256820D-02  0.312409D-01  0.362476D-02  0.000000D+00
               376           377           378           379           380 
      1  -0.135889D+03 -0.135889D+03 -0.135874D+03 -0.135874D+03 -0.135852D+03
      2   0.754501D-02  0.141179D-03 -0.112417D-05  0.701361D-05  0.138039D+00
      3   0.632879D-05 -0.172549D-04 -0.263066D-02  0.249481D-03 -0.589445D-05
      4  -0.743892D-05 -0.446558D-05 -0.251741D-03 -0.263774D-02 -0.100991D-05
      5  -0.191117D-01 -0.507545D-03  0.421634D-05 -0.228008D-04 -0.448654D+00
      6  -0.205838D-04  0.569643D-04  0.360176D-02 -0.353236D-03  0.193554D-04
      7   0.246953D-04  0.152906D-04  0.360829D-03  0.362534D-02 -0.198669D-05
      8   0.515880D-04  0.243551D-02 -0.274431D-05  0.199998D-05  0.147370D-03
      9  -0.345444D-04 -0.213424D-04  0.168982D-02  0.198668D-01 -0.346160D-04
     10  -0.226404D-04  0.676969D-04 -0.198797D-01  0.170645D-02 -0.756720D-05
     11   0.960469D-01 -0.938998D-03  0.365623D-04 -0.814023D-04 -0.195013D+01
     12   0.533679D-02 -0.701263D-03 -0.128669D-01 -0.987104D-01  0.355618D-01
     13   0.534776D-02 -0.705815D-03  0.128544D-01  0.987047D-01  0.355521D-01
     14  -0.228559D-04  0.668793D-04 -0.242205D-01  0.174441D-02 -0.128667D-04
     15   0.321548D-04  0.203861D-04 -0.172982D-02 -0.242139D-01  0.260116D-04
     16   0.237293D-05  0.684784D-05 -0.987063D-01  0.128591D-01  0.000000D+00
               381           382           383           384           385 
      1  -0.135839D+03 -0.135839D+03 -0.135811D+03 -0.135793D+03 -0.135793D+03
      2  -0.407865D-05  0.970034D-05 -0.734253D-01  0.153925D-04  0.125883D-04
      3   0.592922D-01  0.127623D+00 -0.847266D-05  0.983923D-03 -0.232180D-03
      4   0.127617D+00 -0.592943D-01  0.000000D+00 -0.232696D-03 -0.979365D-03
      5   0.860849D-05 -0.336905D-04  0.247050D+00 -0.520446D-04 -0.426592D-04
      6  -0.187177D+00 -0.402912D+00  0.276468D-04 -0.906135D-02  0.214398D-02
      7  -0.402891D+00  0.187185D+00  0.000000D+00  0.214504D-02  0.904710D-02
      8   0.000000D+00  0.614989D-05 -0.264403D-04 -0.303434D-05 -0.208601D-05
      9   0.479899D+00 -0.222399D+00  0.255674D-04 -0.420946D-02 -0.180410D-01
     10  -0.222384D+00 -0.479924D+00 -0.122451D-04 -0.180594D-01  0.420417D-02
     11   0.251355D-05 -0.143375D-03  0.704288D+00 -0.163998D-03 -0.142410D-03
     12   0.162278D-01 -0.695316D-02 -0.110177D+00  0.549016D-02  0.263620D-01
     13  -0.161020D-01  0.698599D-02 -0.110167D+00 -0.548547D-02 -0.263562D-01
     14  -0.136403D+00 -0.295046D+00  0.000000D+00  0.111980D+00 -0.262869D-01
     15  -0.295015D+00  0.136418D+00 -0.394637D-04 -0.262884D-01 -0.111994D+00
     16   0.697165D-02  0.161667D-01  0.570257D-05 -0.263624D-01  0.549177D-02
               386           387           388           389           390 
      1  -0.135781D+03 -0.135703D+03 -0.135668D+03 -0.135668D+03 -0.135661D+03
      2   0.397197D-05 -0.315654D+00  0.000000D+00 -0.143325D-05  0.346934D-05
      3   0.307407D-04  0.708120D-05  0.386024D-01 -0.213427D-02 -0.106182D+00
      4   0.105828D-04 -0.224739D-04  0.213191D-02  0.385996D-01 -0.314431D+00
      5  -0.343405D-04  0.109362D+01  0.000000D+00  0.691250D-05 -0.111611D-04
      6  -0.102349D-03 -0.239345D-04 -0.124424D+00  0.684697D-02  0.362902D+00
      7  -0.360002D-04  0.785290D-04 -0.683874D-02 -0.124413D+00  0.107484D+01
      8   0.129214D-01  0.194204D-04  0.000000D+00  0.000000D+00 -0.221441D-05
      9   0.407522D-04 -0.693228D-04  0.481419D-02  0.774225D-01 -0.160798D+01
     10  -0.150293D-03 -0.173587D-04 -0.774513D-01  0.482466D-02  0.542968D+00
     11   0.355753D-03  0.315815D+01  0.000000D+00  0.423200D-04 -0.155335D-04
     12  -0.541284D-03  0.834780D-01  0.207508D-01  0.228547D+00  0.229726D-01
     13  -0.532628D-03  0.834975D-01 -0.207683D-01 -0.228599D+00 -0.229437D-01
     14  -0.156400D-03 -0.164816D-04 -0.930394D-01  0.566476D-02  0.565603D+00
     15  -0.381122D-04  0.799823D-04 -0.565707D-02 -0.930108D-01  0.167528D+01
     16   0.168138D-05  0.187830D-05  0.228570D+00 -0.207613D-01  0.648320D-02
               391           392           393           394           395 
      1  -0.135661D+03 -0.135577D+03 -0.135577D+03 -0.135555D+03 -0.135555D+03
      2  -0.676882D-05  0.213298D-05  0.000000D+00  0.000000D+00 -0.105922D-05
      3  -0.314426D+00  0.131478D-01  0.312169D-01 -0.565180D-01 -0.718507D-02
      4   0.106181D+00  0.312263D-01 -0.131429D-01 -0.718640D-02  0.565145D-01
      5   0.244686D-04 -0.870198D-05  0.000000D+00  0.266720D-05  0.497294D-05
      6   0.107482D+01 -0.389078D-01 -0.924419D-01  0.183557D+00  0.232438D-01
      7  -0.362898D+00 -0.924718D-01  0.388894D-01  0.232474D-01 -0.183546D+00
      8   0.433607D-05  0.000000D+00  0.380959D-05  0.000000D+00  0.000000D+00
      9   0.542964D+00  0.157040D+00 -0.659820D-01  0.425439D-02 -0.419601D-01
     10   0.160798D+01 -0.660148D-01 -0.157010D+00 -0.419473D-01 -0.425698D-02
     11   0.807808D-04 -0.170234D-04 -0.456685D-05 -0.147671D-05  0.209474D-04
     12  -0.648343D-02 -0.300517D-01  0.120839D-01 -0.306120D-01  0.188948D+00
     13   0.646705D-02  0.300554D-01 -0.120914D-01  0.306298D-01 -0.188997D+00
     14   0.167529D+01 -0.137231D+00 -0.323688D+00 -0.855986D-01 -0.102556D-01
     15  -0.565597D+00 -0.323710D+00  0.137197D+00 -0.102628D-01  0.856043D-01
     16   0.229584D-01 -0.120914D-01 -0.300595D-01 -0.188960D+00 -0.306225D-01
               396           397           398           399           400 
      1  -0.135479D+03 -0.135479D+03 -0.135377D+03 -0.135377D+03 -0.135309D+03
      2   0.109765D-04  0.722527D-05  0.208326D-04  0.186450D-04 -0.381280D+00
      3   0.726469D-01 -0.330795D+00 -0.119553D+00  0.305892D+00  0.212608D-05
      4   0.330788D+00  0.726484D-01 -0.305893D+00 -0.119555D+00 -0.618342D-05
      5  -0.433253D-04 -0.278395D-04 -0.816260D-04 -0.732056D-04  0.147843D+01
      6  -0.261065D+00  0.118845D+01  0.445353D+00 -0.113948D+01 -0.821702D-05
      7  -0.118843D+01 -0.261070D+00  0.113949D+01  0.445358D+00  0.279360D-04
      8   0.413164D-05  0.183649D-05 -0.315876D-05 -0.743364D-05 -0.236223D-05
      9   0.143141D+01  0.313601D+00 -0.167958D+01 -0.656626D+00 -0.265004D-04
     10  -0.313603D+00  0.143142D+01  0.656619D+00 -0.167957D+01 -0.700160D-05
     11  -0.894501D-04 -0.584214D-04 -0.203909D-03 -0.187404D-03  0.353444D+01
     12   0.474718D-01  0.845923D-02  0.385481D-01  0.133824D-01 -0.228199D-01
     13  -0.475027D-01 -0.844265D-02 -0.384775D-01 -0.133732D-01 -0.228607D-01
     14  -0.350128D+00  0.159878D+01  0.782731D+00 -0.200203D+01 -0.123749D-05
     15  -0.159877D+01 -0.350130D+00  0.200205D+01  0.782737D+00  0.545056D-04
     16   0.844198D-02 -0.475004D-01  0.133856D-01 -0.384968D-01 -0.416508D-05
               401           402           403           404           405 
      1  -0.135181D+03 -0.135165D+03 -0.135165D+03 -0.135072D+03 -0.135072D+03
      2   0.174086D+00  0.000000D+00 -0.107525D-05 -0.121565D-05  0.000000D+00
      3  -0.180278D-05  0.439503D-03  0.120274D-04  0.326556D-01  0.675995D-01
      4   0.000000D+00 -0.196232D-04  0.435947D-03  0.675995D-01 -0.326560D-01
      5  -0.794874D+00 -0.123105D-05  0.412171D-05  0.640716D-05 -0.249233D-05
      6   0.597509D-05  0.780158D-03 -0.102198D-03 -0.125412D+00 -0.259769D+00
      7  -0.632236D-05  0.143193D-03  0.799510D-03 -0.259769D+00  0.125414D+00
      8  -0.757991D-05  0.000000D+00 -0.209845D-05 -0.516172D-05 -0.837975D-05
      9   0.787720D-05 -0.151849D-02 -0.357362D-01  0.350456D+00 -0.170069D+00
     10   0.208364D-05  0.357021D-01 -0.145540D-02 -0.170072D+00 -0.350458D+00
     11  -0.356869D+01  0.000000D+00  0.119849D-04  0.348884D-04 -0.151314D-04
     12   0.151616D+00 -0.550927D-01 -0.748282D+00 -0.268661D-01  0.118081D-01
     13   0.151602D+00  0.550791D-01  0.748288D+00  0.268080D-01 -0.118082D-01
     14  -0.131268D-04  0.180049D-01 -0.662804D-03  0.763084D-01  0.158175D+00
     15   0.000000D+00  0.770248D-03  0.180558D-01  0.158178D+00 -0.763085D-01
     16  -0.676475D-05 -0.748291D+00  0.550912D-01 -0.118016D-01 -0.268394D-01
               406 
      1  -0.134714D+03
      2   0.326659D-01
      3   0.000000D+00
      4   0.000000D+00
      5  -0.219533D+00
      6   0.000000D+00
      7  -0.331678D-05
      8  -0.504961D-05
      9   0.286379D-05
     10   0.122147D-05
     11  -0.142871D+00
     12  -0.214285D+00
     13  -0.214295D+00
     14  -0.491980D-05
     15   0.486774D-05
     16  -0.465612D-05
 Unable to Open any file for archive entry.
 1\1\GINC-HEL24\SP\RTPSSTPSS TD-FC\Gen\C1H3F1\SABYASACHI\21-Mar-2022\0\
 \#P TD(Nstates=10000) tpsstpss/Gen SCF(maxcycles=100) Int(Grid=ultrafi
 ne)\\xGDB7_00001_tier4.com\\0,1\C,0,-0.630149,-0.000001,0.000003\F,0,0
 .748512,0.000002,-0.000001\H,0,-0.98525,0.899676,0.505416\H,0,-0.98522
 2,-0.887557,0.526417\H,0,-0.985245,-0.012128,-1.03184\\Version=EM64L-G
 16RevC.01\State=1-A\HF=-139.6610421\RMSD=8.518e-09\PG=C01 [X(C1H3F1)]\
 \@
 The archive entry for this job was punched.


 WE HAVE SEEN THAT MAN ON THE AVERAGE DOES NOT LIVE ABOVE
 TWO-AND-TWENTY YEARS.  DURING THESE TWO AND TWENTY
 YEARS HE IS LIABLE TO TWO AND TWENTY THOUSAND EVILS,
 MANY OF WHICH ARE INCURABLE.  YET EVEN IN THIS DREADFUL STATE
 MEN STILL STRUT AND POSE ON THE STAGE OF LIFE.
 THEY MAKE LOVE AT THE RISK OF DESTRUCTION,
 INTRIGUE, CARRY ON WAR, AND FORM PROJECTS, JUST AS IF THEY
 WERE TO LIVE IN LUXURY AND HAPPINESS FOR A THOUSAND
 AGES.

                                              -- VOLTAIRE
 Job cpu time:       0 days  0 hours  6 minutes  2.1 seconds.
 Elapsed time:       0 days  0 hours  0 minutes 45.5 seconds.
 File lengths (MBytes):  RWF=     85 Int=      0 D2E=      0 Chk=     46 Scr=      1
 Normal termination of Gaussian 16 at Mon Mar 21 20:23:59 2022.
