 Entering Gaussian System, Link 0=g16
 Input=000031.com
 Output=000031.log
 Initial command:
 /home/sabyasachi/g16/l1.exe "/scratch/sabyasachi/PBS_7976561.helios/Gau-114255.inp" -scrdir="/scratch/sabyasachi/PBS_7976561.helios/"
 Entering Link 1 = /home/sabyasachi/g16/l1.exe PID=    114256.
  
 Copyright (c) 1988-2019, Gaussian, Inc.  All Rights Reserved.
  
 This is part of the Gaussian(R) 16 program.  It is based on
 the Gaussian(R) 09 system (copyright 2009, Gaussian, Inc.),
 the Gaussian(R) 03 system (copyright 2003, Gaussian, Inc.),
 the Gaussian(R) 98 system (copyright 1998, Gaussian, Inc.),
 the Gaussian(R) 94 system (copyright 1995, Gaussian, Inc.),
 the Gaussian 92(TM) system (copyright 1992, Gaussian, Inc.),
 the Gaussian 90(TM) system (copyright 1990, Gaussian, Inc.),
 the Gaussian 88(TM) system (copyright 1988, Gaussian, Inc.),
 the Gaussian 86(TM) system (copyright 1986, Carnegie Mellon
 University), and the Gaussian 82(TM) system (copyright 1983,
 Carnegie Mellon University). Gaussian is a federally registered
 trademark of Gaussian, Inc.
  
 This software contains proprietary and confidential information,
 including trade secrets, belonging to Gaussian, Inc.
  
 This software is provided under written license and may be
 used, copied, transmitted, or stored only in accord with that
 written license.
  
 The following legend is applicable only to US Government
 contracts under FAR:
  
                    RESTRICTED RIGHTS LEGEND
  
 Use, reproduction and disclosure by the US Government is
 subject to restrictions as set forth in subparagraphs (a)
 and (c) of the Commercial Computer Software - Restricted
 Rights clause in FAR 52.227-19.
  
 Gaussian, Inc.
 340 Quinnipiac St., Bldg. 40, Wallingford CT 06492
  
  
 ---------------------------------------------------------------
 Warning -- This program may not be used in any manner that
 competes with the business of Gaussian, Inc. or will provide
 assistance to any competitor of Gaussian, Inc.  The licensee
 of this program is prohibited from giving any competitor of
 Gaussian, Inc. access to this program.  By using this program,
 the user acknowledges that Gaussian, Inc. is engaged in the
 business of creating and licensing software in the field of
 computational chemistry and represents and warrants to the
 licensee that it is not a competitor of Gaussian, Inc. and that
 it will not use this program in any manner prohibited above.
 ---------------------------------------------------------------
  

 Cite this work as:
 Gaussian 16, Revision C.01,
 M. J. Frisch, G. W. Trucks, H. B. Schlegel, G. E. Scuseria, 
 M. A. Robb, J. R. Cheeseman, G. Scalmani, V. Barone, 
 G. A. Petersson, H. Nakatsuji, X. Li, M. Caricato, A. V. Marenich, 
 J. Bloino, B. G. Janesko, R. Gomperts, B. Mennucci, H. P. Hratchian, 
 J. V. Ortiz, A. F. Izmaylov, J. L. Sonnenberg, D. Williams-Young, 
 F. Ding, F. Lipparini, F. Egidi, J. Goings, B. Peng, A. Petrone, 
 T. Henderson, D. Ranasinghe, V. G. Zakrzewski, J. Gao, N. Rega, 
 G. Zheng, W. Liang, M. Hada, M. Ehara, K. Toyota, R. Fukuda, 
 J. Hasegawa, M. Ishida, T. Nakajima, Y. Honda, O. Kitao, H. Nakai, 
 T. Vreven, K. Throssell, J. A. Montgomery, Jr., J. E. Peralta, 
 F. Ogliaro, M. J. Bearpark, J. J. Heyd, E. N. Brothers, K. N. Kudin, 
 V. N. Staroverov, T. A. Keith, R. Kobayashi, J. Normand, 
 K. Raghavachari, A. P. Rendell, J. C. Burant, S. S. Iyengar, 
 J. Tomasi, M. Cossi, J. M. Millam, M. Klene, C. Adamo, R. Cammi, 
 J. W. Ochterski, R. L. Martin, K. Morokuma, O. Farkas, 
 J. B. Foresman, and D. J. Fox, Gaussian, Inc., Wallingford CT, 2019.
 
 ******************************************
 Gaussian 16:  EM64L-G16RevC.01  3-Jul-2019
                21-Mar-2022 
 ******************************************
 %mem=64gb
 %nproc=8
 Will use up to    8 processors via shared memory.
 ----------------------------------------------------------------------
 #P TD(Nstates=10000) tpsstpss/Gen SCF(maxcycles=100) Int(Grid=ultrafin
 e)
 ----------------------------------------------------------------------
 1/38=1,172=1/1;
 2/12=2,17=6,18=5,40=1/2;
 3/5=7,11=9,25=1,30=1,74=2523,75=-5/1,2,3,8;
 4//1;
 5/5=2,7=100,38=5/2;
 8/6=1,10=1,108=10000/1;
 9/41=10000,42=1,70=2/14;
 6/7=2,8=2,9=2,10=2/1;
 99/5=1,9=1/99;
 Leave Link    1 at Mon Mar 21 20:16:04 2022, MaxMem=  8589934592 cpu:               0.4 elap:               0.1
 (Enter /home/sabyasachi/g16/l101.exe)
 ---------------------
 xGDB7_00001_tier4.com
 ---------------------
 Symbolic Z-matrix:
 Charge =  0 Multiplicity = 1
 6                     0.51685   0.69483   0. 
 6                    -0.86017   0.1002    0. 
 6                     0.34331  -0.79502   0. 
 1                     0.86651   1.16486   0.90918 
 1                     0.86651   1.16486  -0.90918 
 1                    -1.44205   0.16796  -0.90918 
 1                    -1.44205   0.16797   0.90918 
 1                     0.57557  -1.33284  -0.90918 
 1                     0.57557  -1.33284   0.90918 
 
 ITRead=  0  0  0  0  0  0  0  0  0
 MicOpt= -1 -1 -1 -1 -1 -1 -1 -1 -1
 NAtoms=      9 NQM=        9 NQMF=       0 NMMI=      0 NMMIF=      0
                NMic=       0 NMicF=      0.
                    Isotopes and Nuclear Properties:
 (Nuclear quadrupole moments (NQMom) in fm**2, nuclear magnetic moments (NMagM)
  in nuclear magnetons)

  Atom         1           2           3           4           5           6           7           8           9
 IAtWgt=          12          12          12           1           1           1           1           1           1
 AtmWgt=  12.0000000  12.0000000  12.0000000   1.0078250   1.0078250   1.0078250   1.0078250   1.0078250   1.0078250
 NucSpn=           0           0           0           1           1           1           1           1           1
 AtZEff=  -0.0000000  -0.0000000  -0.0000000  -0.0000000  -0.0000000  -0.0000000  -0.0000000  -0.0000000  -0.0000000
 NQMom=    0.0000000   0.0000000   0.0000000   0.0000000   0.0000000   0.0000000   0.0000000   0.0000000   0.0000000
 NMagM=    0.0000000   0.0000000   0.0000000   2.7928460   2.7928460   2.7928460   2.7928460   2.7928460   2.7928460
 AtZNuc=   6.0000000   6.0000000   6.0000000   1.0000000   1.0000000   1.0000000   1.0000000   1.0000000   1.0000000
 Leave Link  101 at Mon Mar 21 20:16:04 2022, MaxMem=  8589934592 cpu:               0.6 elap:               0.1
 (Enter /home/sabyasachi/g16/l202.exe)
                          Input orientation:                          
 ---------------------------------------------------------------------
 Center     Atomic      Atomic             Coordinates (Angstroms)
 Number     Number       Type             X           Y           Z
 ---------------------------------------------------------------------
      1          6           0        0.516845    0.694830    0.000000
      2          6           0       -0.860166    0.100195    0.000000
      3          6           0        0.343308   -0.795021    0.000000
      4          1           0        0.866514    1.164858    0.909176
      5          1           0        0.866513    1.164859   -0.909176
      6          1           0       -1.442047    0.167964   -0.909177
      7          1           0       -1.442048    0.167965    0.909176
      8          1           0        0.575574   -1.332837   -0.909179
      9          1           0        0.575574   -1.332837    0.909179
 ---------------------------------------------------------------------
                    Distance matrix (angstroms):
                    1          2          3          4          5
     1  C    0.000000
     2  C    1.499917   0.000000
     3  C    1.499924   1.499920   0.000000
     4  H    1.081571   2.222956   2.222942   0.000000
     5  H    1.081571   2.222955   2.222943   1.818352   0.000000
     6  H    2.222937   1.081564   2.222934   3.103169   2.514607
     7  H    2.222937   1.081564   2.222935   2.514608   3.103169
     8  H    2.222946   2.222957   1.081573   3.103150   2.514584
     9  H    2.222946   2.222957   1.081573   2.514583   3.103151
                    6          7          8          9
     6  H    0.000000
     7  H    1.818353   0.000000
     8  H    2.514597   3.103163   0.000000
     9  H    3.103162   2.514598   1.818358   0.000000
 Stoichiometry    C3H6
 Framework group  CS[SG(C3),X(H6)]
 Deg. of freedom    12
 Full point group                 CS      NOp   2
 Largest Abelian subgroup         CS      NOp   2
 Largest concise Abelian subgroup CS      NOp   2
                         Standard orientation:                         
 ---------------------------------------------------------------------
 Center     Atomic      Atomic             Coordinates (Angstroms)
 Number     Number       Type             X           Y           Z
 ---------------------------------------------------------------------
      1          6           0        0.000000    0.865978    0.000000
      2          6           0        0.749967   -0.432983    0.000000
      3          6           0       -0.749954   -0.432999    0.000000
      4          1           0       -0.000033    1.451806   -0.909176
      5          1           0       -0.000033    1.451806    0.909176
      6          1           0        1.257295   -0.725894    0.909177
      7          1           0        1.257295   -0.725894   -0.909177
      8          1           0       -1.257302   -0.725899    0.909179
      9          1           0       -1.257302   -0.725899   -0.909179
 ---------------------------------------------------------------------
 Rotational constants (GHZ):          20.3211092          20.3210941          12.7163454
 Leave Link  202 at Mon Mar 21 20:16:04 2022, MaxMem=  8589934592 cpu:               0.1 elap:               0.0
 (Enter /home/sabyasachi/g16/l301.exe)
 General basis read from cards:  (5D, 7F)
 Centers:       4      5      6      7      8      9
 S 3 1.00
     Exponent=  1.3010701000D+01 Coefficients=  1.9682158000D-02
     Exponent=  1.9622572000D+00 Coefficients=  1.3796524000D-01
     Exponent=  4.4453796000D-01 Coefficients=  4.7831935000D-01
 S 1 1.00
     Exponent=  1.2194962000D-01 Coefficients=  1.0000000000D+00
 P 1 1.00
     Exponent=  8.0000000000D-01 Coefficients=  1.0000000000D+00
 P 1 1.00
     Exponent=  1.1704099050D-01 Coefficients=  1.0000000000D+00
 ****
 Centers:       1      2      3
 S 5 1.00
     Exponent=  1.2384016938D+03 Coefficients=  5.4568832082D-03
     Exponent=  1.8629004992D+02 Coefficients=  4.0638409211D-02
     Exponent=  4.2251176346D+01 Coefficients=  1.8025593888D-01
     Exponent=  1.1676557932D+01 Coefficients=  4.6315121755D-01
     Exponent=  3.5930506482D+00 Coefficients=  4.4087173314D-01
 S 1 1.00
     Exponent=  4.0245147363D-01 Coefficients=  1.0000000000D+00
 S 1 1.00
     Exponent=  1.3090182668D-01 Coefficients=  1.0000000000D+00
 S 1 1.00
     Exponent=  6.7053540256D-02 Coefficients=  1.0000000000D+00
 P 3 1.00
     Exponent=  9.4680970621D+00 Coefficients=  3.8387871728D-02
     Exponent=  2.0103545142D+00 Coefficients=  2.1117025112D-01
     Exponent=  5.4771004707D-01 Coefficients=  5.1328172114D-01
 P 1 1.00
     Exponent=  1.5268613795D-01 Coefficients=  1.0000000000D+00
 D 1 1.00
     Exponent=  8.0000000000D-01 Coefficients=  1.0000000000D+00
 D 1 1.00
     Exponent=  1.1713185140D-01 Coefficients=  1.0000000000D+00
 ****
 Ernie: Thresh=  0.10000D-02 Tol=  0.10000D-05 Strict=F.
 There are    72 symmetry adapted cartesian basis functions of A'  symmetry.
 There are    42 symmetry adapted cartesian basis functions of A"  symmetry.
 There are    66 symmetry adapted basis functions of A'  symmetry.
 There are    42 symmetry adapted basis functions of A"  symmetry.
   108 basis functions,   156 primitive gaussians,   114 cartesian basis functions
    12 alpha electrons       12 beta electrons
       nuclear repulsion energy        76.0150796331 Hartrees.
 IExCor= 2523 DFT=T Ex=TPSS Corr=TPSS ExCW=0 ScaHFX=  0.000000
 ScaDFX=  1.000000  1.000000  1.000000  1.000000 ScalE2=  1.000000  1.000000
 IRadAn=      5 IRanWt=     -1 IRanGd=            0 ICorTp=0 IEmpDi=  4
 NAtoms=    9 NActive=    9 NUniq=    6 SFac= 2.25D+00 NAtFMM=   60 NAOKFM=F Big=F
 Integral buffers will be    131072 words long.
 Regular integral format.
 Two-electron integral symmetry is turned on.
 Leave Link  301 at Mon Mar 21 20:16:04 2022, MaxMem=  8589934592 cpu:               0.5 elap:               0.1
 (Enter /home/sabyasachi/g16/l302.exe)
 NPDir=0 NMtPBC=     1 NCelOv=     1 NCel=       1 NClECP=     1 NCelD=      1
         NCelK=      1 NCelE2=     1 NClLst=     1 CellRange=     0.0.
 One-electron integrals computed using PRISM.
 One-electron integral symmetry used in STVInt
 NBasis=   108 RedAO= T EigKep=  1.77D-04  NBF=    66    42
 NBsUse=   108 1.00D-06 EigRej= -1.00D+00 NBFU=    66    42
 Precomputing XC quadrature grid using
 IXCGrd= 4 IRadAn=           5 IRanWt=          -1 IRanGd=           0 AccXCQ= 0.00D+00.
 Generated NRdTot=       0 NPtTot=           0 NUsed=           0 NTot=          32
 NSgBfM=   114   114   114   114   114 MxSgAt=     9 MxSgA2=     9.
 Leave Link  302 at Mon Mar 21 20:16:05 2022, MaxMem=  8589934592 cpu:               1.1 elap:               0.2
 (Enter /home/sabyasachi/g16/l303.exe)
 DipDrv:  MaxL=1.
 Leave Link  303 at Mon Mar 21 20:16:05 2022, MaxMem=  8589934592 cpu:               0.2 elap:               0.0
 (Enter /home/sabyasachi/g16/l308.exe)
 Leave Link  308 at Mon Mar 21 20:16:05 2022, MaxMem=  8589934592 cpu:               0.2 elap:               0.1
 (Enter /home/sabyasachi/g16/l401.exe)
 ExpMin= 6.71D-02 ExpMax= 1.24D+03 ExpMxC= 1.86D+02 IAcc=3 IRadAn=         5 AccDes= 0.00D+00
 Harris functional with IExCor= 1009 and IRadAn=       5 diagonalized for initial guess.
 HarFok:  IExCor= 1009 AccDes= 0.00D+00 IRadAn=         5 IDoV= 1 UseB2=F ITyADJ=14
 ICtDFT=  3500011 ScaDFX=  1.000000  1.000000  1.000000  1.000000
 FoFCou: FMM=F IPFlag=           0 FMFlag=      100000 FMFlg1=           0
         NFxFlg=           0 DoJE=T BraDBF=F KetDBF=T FulRan=T
         wScrn=  0.000000 ICntrl=       500 IOpCl=  0 I1Cent=   200000004 NGrid=           0
         NMat0=    1 NMatS0=      1 NMatT0=    0 NMatD0=    1 NMtDS0=    0 NMtDT0=    0
 Petite list used in FoFCou.
 Harris En= -117.744482372856    
 JPrj=0 DoOrth=F DoCkMO=F.
 Initial guess orbital symmetries:
       Occupied  (A') (A') (A') (A') (A') (A') (A") (A') (A") (A")
                 (A') (A')
       Virtual   (A') (A') (A") (A') (A') (A') (A") (A") (A') (A')
                 (A") (A') (A') (A') (A") (A") (A') (A') (A') (A')
                 (A") (A") (A') (A') (A") (A") (A') (A") (A") (A')
                 (A') (A') (A') (A') (A") (A") (A") (A') (A') (A')
                 (A') (A') (A") (A") (A") (A') (A") (A') (A') (A")
                 (A") (A') (A') (A') (A') (A") (A') (A') (A') (A')
                 (A') (A") (A") (A') (A") (A") (A') (A') (A") (A")
                 (A") (A") (A") (A') (A') (A') (A') (A") (A") (A')
                 (A') (A') (A') (A') (A") (A") (A") (A') (A') (A')
                 (A") (A') (A') (A') (A") (A")
 The electronic state of the initial guess is 1-A'.
 Leave Link  401 at Mon Mar 21 20:16:05 2022, MaxMem=  8589934592 cpu:               2.4 elap:               0.3
 (Enter /home/sabyasachi/g16/l502.exe)
 Keep J ints in memory in symmetry-blocked form, NReq=26033091.
 FoFCou: FMM=F IPFlag=           0 FMFlag=           0 FMFlg1=           0
         NFxFlg=           0 DoJE=F BraDBF=F KetDBF=F FulRan=T
         wScrn=  0.000000 ICntrl=       600 IOpCl=  0 I1Cent=           0 NGrid=           0
         NMat0=    1 NMatS0=   5886 NMatT0=    0 NMatD0=    1 NMtDS0=    0 NMtDT0=    0
 Petite list used in FoFCou.
 Closed shell SCF:
 Using DIIS extrapolation, IDIIS=  1040.
 NGot=  8589934592 LenX=  8581199601 LenY=  8581186164
 Requested convergence on RMS density matrix=1.00D-08 within 100 cycles.
 Requested convergence on MAX density matrix=1.00D-06.
 Requested convergence on             energy=1.00D-06.
 No special actions if energy rises.
 Integral accuracy reduced to 1.0D-05 until final iterations.

 Cycle   1  Pass 0  IDiag  1:
 E= -117.734953998840    
 DIIS: error= 3.75D-02 at cycle   1 NSaved=   1.
 NSaved= 1 IEnMin= 1 EnMin= -117.734953998840     IErMin= 1 ErrMin= 3.75D-02
 ErrMax= 3.75D-02  0.00D+00 EMaxC= 1.00D-01 BMatC= 9.30D-02 BMatP= 9.30D-02
 IDIUse=3 WtCom= 6.25D-01 WtEn= 3.75D-01
 Coeff-Com:  0.100D+01
 Coeff-En:   0.100D+01
 Coeff:      0.100D+01
 Gap=     0.180 Goal=   None    Shift=    0.000
 GapD=    0.180 DampG=1.000 DampE=0.500 DampFc=0.5000 IDamp=-1.
 Damping current iteration by 5.00D-01
 RMSDP=7.50D-03 MaxDP=1.30D-01              OVMax= 1.93D-01

 Cycle   2  Pass 0  IDiag  1:
 E= -117.766741002135     Delta-E=       -0.031787003295 Rises=F Damp=T
 DIIS: error= 1.16D-02 at cycle   2 NSaved=   2.
 NSaved= 2 IEnMin= 2 EnMin= -117.766741002135     IErMin= 2 ErrMin= 1.16D-02
 ErrMax= 1.16D-02  0.00D+00 EMaxC= 1.00D-01 BMatC= 9.49D-03 BMatP= 9.30D-02
 IDIUse=3 WtCom= 8.84D-01 WtEn= 1.16D-01
 Coeff-Com:  0.199D+00 0.801D+00
 Coeff-En:   0.334D+00 0.666D+00
 Coeff:      0.214D+00 0.786D+00
 Gap=     0.280 Goal=   None    Shift=    0.000
 RMSDP=2.29D-03 MaxDP=2.13D-02 DE=-3.18D-02 OVMax= 1.27D-01

 Cycle   3  Pass 0  IDiag  1:
 E= -117.842350034149     Delta-E=       -0.075609032014 Rises=F Damp=F
 DIIS: error= 2.88D-03 at cycle   3 NSaved=   3.
 NSaved= 3 IEnMin= 3 EnMin= -117.842350034149     IErMin= 3 ErrMin= 2.88D-03
 ErrMax= 2.88D-03  0.00D+00 EMaxC= 1.00D-01 BMatC= 4.53D-04 BMatP= 9.49D-03
 IDIUse=3 WtCom= 9.71D-01 WtEn= 2.88D-02
 Coeff-Com:  0.266D-01 0.170D+00 0.804D+00
 Coeff-En:   0.000D+00 0.000D+00 0.100D+01
 Coeff:      0.259D-01 0.165D+00 0.809D+00
 Gap=     0.285 Goal=   None    Shift=    0.000
 RMSDP=8.89D-04 MaxDP=1.92D-02 DE=-7.56D-02 OVMax= 6.60D-03

 Cycle   4  Pass 0  IDiag  1:
 E= -117.842755333612     Delta-E=       -0.000405299462 Rises=F Damp=F
 DIIS: error= 5.34D-04 at cycle   4 NSaved=   4.
 NSaved= 4 IEnMin= 4 EnMin= -117.842755333612     IErMin= 4 ErrMin= 5.34D-04
 ErrMax= 5.34D-04  0.00D+00 EMaxC= 1.00D-01 BMatC= 2.29D-05 BMatP= 4.53D-04
 IDIUse=3 WtCom= 9.95D-01 WtEn= 5.34D-03
 Coeff-Com: -0.314D-02 0.784D-02 0.192D+00 0.803D+00
 Coeff-En:   0.000D+00 0.000D+00 0.000D+00 0.100D+01
 Coeff:     -0.312D-02 0.780D-02 0.191D+00 0.804D+00
 Gap=     0.284 Goal=   None    Shift=    0.000
 RMSDP=1.68D-04 MaxDP=3.61D-03 DE=-4.05D-04 OVMax= 1.44D-03

 Cycle   5  Pass 0  IDiag  1:
 E= -117.842779359167     Delta-E=       -0.000024025555 Rises=F Damp=F
 DIIS: error= 1.22D-05 at cycle   5 NSaved=   5.
 NSaved= 5 IEnMin= 5 EnMin= -117.842779359167     IErMin= 5 ErrMin= 1.22D-05
 ErrMax= 1.22D-05  0.00D+00 EMaxC= 1.00D-01 BMatC= 1.49D-08 BMatP= 2.29D-05
 IDIUse=1 WtCom= 1.00D+00 WtEn= 0.00D+00
 Coeff-Com:  0.218D-04-0.200D-03 0.265D-02 0.308D-01 0.967D+00
 Coeff:      0.218D-04-0.200D-03 0.265D-02 0.308D-01 0.967D+00
 Gap=     0.284 Goal=   None    Shift=    0.000
 RMSDP=5.08D-06 MaxDP=8.29D-05 DE=-2.40D-05 OVMax= 3.38D-05

 Initial convergence to 1.0D-05 achieved.  Increase integral accuracy.
 Cycle   6  Pass 1  IDiag  1:
 E= -117.842780831178     Delta-E=       -0.000001472011 Rises=F Damp=F
 DIIS: error= 3.49D-06 at cycle   1 NSaved=   1.
 NSaved= 1 IEnMin= 1 EnMin= -117.842780831178     IErMin= 1 ErrMin= 3.49D-06
 ErrMax= 3.49D-06  0.00D+00 EMaxC= 1.00D-01 BMatC= 1.35D-09 BMatP= 1.35D-09
 IDIUse=1 WtCom= 1.00D+00 WtEn= 0.00D+00
 Coeff-Com:  0.100D+01
 Coeff:      0.100D+01
 Gap=     0.284 Goal=   None    Shift=    0.000
 RMSDP=5.08D-06 MaxDP=8.29D-05 DE=-1.47D-06 OVMax= 3.40D-05

 Cycle   7  Pass 1  IDiag  1:
 E= -117.842780834403     Delta-E=       -0.000000003225 Rises=F Damp=F
 DIIS: error= 9.62D-07 at cycle   2 NSaved=   2.
 NSaved= 2 IEnMin= 2 EnMin= -117.842780834403     IErMin= 2 ErrMin= 9.62D-07
 ErrMax= 9.62D-07  0.00D+00 EMaxC= 1.00D-01 BMatC= 8.39D-11 BMatP= 1.35D-09
 IDIUse=1 WtCom= 1.00D+00 WtEn= 0.00D+00
 Coeff-Com:  0.592D-01 0.941D+00
 Coeff:      0.592D-01 0.941D+00
 Gap=     0.284 Goal=   None    Shift=    0.000
 RMSDP=2.83D-07 MaxDP=4.96D-06 DE=-3.22D-09 OVMax= 5.07D-06

 Cycle   8  Pass 1  IDiag  1:
 E= -117.842780834355     Delta-E=        0.000000000048 Rises=F Damp=F
 DIIS: error= 1.12D-06 at cycle   3 NSaved=   3.
 NSaved= 3 IEnMin= 2 EnMin= -117.842780834403     IErMin= 2 ErrMin= 9.62D-07
 ErrMax= 1.12D-06  0.00D+00 EMaxC= 1.00D-01 BMatC= 1.29D-10 BMatP= 8.39D-11
 IDIUse=1 WtCom= 1.00D+00 WtEn= 0.00D+00
 Coeff-Com: -0.121D-01 0.560D+00 0.452D+00
 Coeff:     -0.121D-01 0.560D+00 0.452D+00
 Gap=     0.284 Goal=   None    Shift=    0.000
 RMSDP=1.32D-07 MaxDP=2.70D-06 DE= 4.83D-11 OVMax= 3.51D-06

 Cycle   9  Pass 1  IDiag  1:
 E= -117.842780834490     Delta-E=       -0.000000000135 Rises=F Damp=F
 DIIS: error= 9.21D-08 at cycle   4 NSaved=   4.
 NSaved= 4 IEnMin= 4 EnMin= -117.842780834490     IErMin= 4 ErrMin= 9.21D-08
 ErrMax= 9.21D-08  0.00D+00 EMaxC= 1.00D-01 BMatC= 9.33D-13 BMatP= 8.39D-11
 IDIUse=1 WtCom= 1.00D+00 WtEn= 0.00D+00
 Coeff-Com: -0.540D-02 0.179D+00 0.170D+00 0.656D+00
 Coeff:     -0.540D-02 0.179D+00 0.170D+00 0.656D+00
 Gap=     0.284 Goal=   None    Shift=    0.000
 RMSDP=2.66D-08 MaxDP=6.90D-07 DE=-1.35D-10 OVMax= 4.75D-07

 Cycle  10  Pass 1  IDiag  1:
 E= -117.842780834492     Delta-E=       -0.000000000002 Rises=F Damp=F
 DIIS: error= 2.30D-08 at cycle   5 NSaved=   5.
 NSaved= 5 IEnMin= 5 EnMin= -117.842780834492     IErMin= 5 ErrMin= 2.30D-08
 ErrMax= 2.30D-08  0.00D+00 EMaxC= 1.00D-01 BMatC= 7.85D-14 BMatP= 9.33D-13
 IDIUse=1 WtCom= 1.00D+00 WtEn= 0.00D+00
 Coeff-Com: -0.189D-02 0.530D-01 0.530D-01 0.288D+00 0.608D+00
 Coeff:     -0.189D-02 0.530D-01 0.530D-01 0.288D+00 0.608D+00
 Gap=     0.284 Goal=   None    Shift=    0.000
 RMSDP=4.61D-09 MaxDP=1.05D-07 DE=-2.05D-12 OVMax= 1.31D-07

 SCF Done:  E(RTPSS-TPSS) =  -117.842780834     A.U. after   10 cycles
            NFock= 10  Conv=0.46D-08     -V/T= 2.0123
 KE= 1.164052859394D+02 PE=-4.235327845206D+02 EE= 1.132696381136D+02
 Leave Link  502 at Mon Mar 21 20:16:08 2022, MaxMem=  8589934592 cpu:              20.9 elap:               2.7
 (Enter /home/sabyasachi/g16/l801.exe)
 DoSCS=F DFT=T ScalE2(SS,OS)=  1.000000  1.000000
 ExpMin= 6.71D-02 ExpMax= 1.24D+03 ExpMxC= 1.86D+02 IAcc=3 IRadAn=         5 AccDes= 0.00D+00
 HarFok:  IExCor=  205 AccDes= 0.00D+00 IRadAn=         5 IDoV=-2 UseB2=F ITyADJ=14
 ICtDFT= 12500011 ScaDFX=  1.000000  1.000000  1.000000  1.000000
 Largest valence mixing into a core orbital is  8.45D-05
 Largest core mixing into a valence orbital is  2.48D-05
 Range of M.O.s used for correlation:     4   108
 NBasis=   108 NAE=    12 NBE=    12 NFC=     3 NFV=     0
 NROrb=    105 NOA=     9 NOB=     9 NVA=    96 NVB=    96

 **** Warning!!: The largest alpha MO coefficient is  0.36506885D+02

 Leave Link  801 at Mon Mar 21 20:16:08 2022, MaxMem=  8589934592 cpu:               0.6 elap:               0.1
 (Enter /home/sabyasachi/g16/l914.exe)
 RHF ground state
 Keep J ints in memory in symmetry-blocked form, NReq=917749159.
 FoFCou: FMM=F IPFlag=           0 FMFlag=           0 FMFlg1=           0
         NFxFlg=           0 DoJE=F BraDBF=F KetDBF=F FulRan=T
         wScrn=  0.000000 ICntrl=       600 IOpCl=  0 I1Cent=           0 NGrid=           0
         NMat0=    1 NMatS0=   5886 NMatT0=    0 NMatD0=    1 NMtDS0=    0 NMtDT0=    0
 Petite list used in FoFCou.
 MDV=  8589934592 DFT=T DoStab=F Mixed=F DoRPA=T DoScal=T NonHer=F
 Making orbital integer symmetry assigments:
 Orbital symmetries:
       Occupied  (A') (A') (A') (A') (A') (A') (A") (A') (A") (A")
                 (A') (A')
       Virtual   (A') (A') (A') (A") (A') (A') (A") (A") (A') (A')
                 (A') (A') (A") (A") (A") (A') (A') (A') (A') (A')
                 (A") (A") (A") (A") (A') (A') (A') (A') (A') (A")
                 (A") (A') (A') (A') (A") (A") (A") (A') (A') (A')
                 (A') (A') (A") (A") (A") (A") (A') (A') (A') (A")
                 (A") (A') (A') (A') (A') (A") (A') (A') (A') (A')
                 (A') (A") (A") (A") (A") (A') (A') (A') (A") (A")
                 (A") (A") (A") (A') (A') (A') (A') (A") (A") (A')
                 (A') (A') (A') (A') (A") (A") (A") (A') (A') (A')
                 (A") (A') (A') (A') (A") (A")
   864 initial guesses have been made.
 Convergence on wavefunction:    0.001000000000000
 Davidson Disk Diagonalization:  ConvIn= 1.00D-03 SkipCon=T Conv= 1.00D-03.
 Max sub-space:  3456 roots to seek:  1728 dimension of matrix:         1728
 *** WARNING: Number of orthogonal guesses is          864
 Iteration     1 Dimension   864 NMult     0 NNew    864
 CISAX will form   864 AO SS matrices at one time.
 NMat=   864 NSing=   864 JSym2X=-1.
 New state      3 was old state      4
 New state      4 was old state      3
 New state      5 was old state      6
 New state      6 was old state      5
 New state     13 was old state     15
 New state     14 was old state     16
 New state     15 was old state     18
 New state     16 was old state     17
 New state     17 was old state     19
 New state     18 was old state     20
 New state     19 was old state     22
 New state     20 was old state     21
 New state     21 was old state     23
 New state     22 was old state     24
 New state     23 was old state     13
 New state     24 was old state     14
 New state     25 was old state     26
 New state     26 was old state     25
 New state     27 was old state     28
 New state     28 was old state     29
 New state     29 was old state     30
 New state     30 was old state     27
 New state     33 was old state     34
 New state     34 was old state     33
 New state     37 was old state     38
 New state     38 was old state     39
 New state     39 was old state     37
 New state     40 was old state     44
 New state     41 was old state     45
 New state     42 was old state     40
 New state     43 was old state     47
 New state     44 was old state     46
 New state     45 was old state     41
 New state     46 was old state     43
 New state     47 was old state     48
 New state     48 was old state     49
 New state     49 was old state     52
 New state     50 was old state     42
 New state     51 was old state     50
 New state     52 was old state     51
 New state     54 was old state     55
 New state     55 was old state     56
 New state     56 was old state     54
 New state     60 was old state     61
 New state     61 was old state     64
 New state     62 was old state     63
 New state     63 was old state     65
 New state     64 was old state     66
 New state     65 was old state     60
 New state     66 was old state     70
 New state     67 was old state     62
 New state     69 was old state     71
 New state     70 was old state     69
 New state     71 was old state     72
 New state     72 was old state     67
 New state     75 was old state     76
 New state     76 was old state     75
 New state     77 was old state     78
 New state     78 was old state     77
 New state     79 was old state     80
 New state     80 was old state     81
 New state     81 was old state     82
 New state     82 was old state     79
 New state     91 was old state     93
 New state     92 was old state     94
 New state     93 was old state     91
 New state     94 was old state     92
 New state     95 was old state     99
 New state     96 was old state     97
 New state     97 was old state    100
 New state     98 was old state    101
 New state     99 was old state    102
 New state    100 was old state     98
 New state    101 was old state    107
 New state    102 was old state    108
 New state    104 was old state    106
 New state    105 was old state    104
 New state    106 was old state    110
 New state    107 was old state    111
 New state    108 was old state    105
 New state    109 was old state    127
 New state    110 was old state    126
 New state    111 was old state    109
 New state    116 was old state    120
 New state    117 was old state    119
 New state    118 was old state    121
 New state    119 was old state    122
 New state    120 was old state    116
 New state    121 was old state    124
 New state    122 was old state    125
 New state    123 was old state    117
 New state    124 was old state    118
 New state    125 was old state    129
 New state    126 was old state    128
 New state    127 was old state    130
 New state    128 was old state    131
 New state    129 was old state    132
 New state    130 was old state    133
 New state    131 was old state    123
 New state    132 was old state    138
 New state    133 was old state    139
 New state    134 was old state    140
 New state    135 was old state    141
 New state    138 was old state    144
 New state    139 was old state    143
 New state    140 was old state    145
 New state    141 was old state    146
 New state    143 was old state    155
 New state    144 was old state    156
 New state    145 was old state    147
 New state    146 was old state    150
 New state    147 was old state    148
 New state    148 was old state    134
 New state    149 was old state    135
 New state    150 was old state    149
 New state    151 was old state    157
 New state    152 was old state    159
 New state    153 was old state    158
 New state    154 was old state    151
 No map to state    155
 New state    156 was old state    154
 New state    157 was old state    152
 New state    158 was old state    153
 New state    159 was old state    170
 New state    163 was old state    164
 New state    164 was old state    163
 New state    165 was old state    166
 New state    166 was old state    167
 New state    167 was old state    165
 New state    168 was old state    173
 New state    169 was old state    171
 New state    170 was old state    168
 New state    171 was old state    174
 New state    173 was old state    169
 New state    174 was old state    194
 New state    175 was old state    179
 New state    176 was old state    180
 New state    177 was old state    175
 New state    178 was old state    184
 New state    179 was old state    183
 New state    180 was old state    186
 New state    181 was old state    185
 New state    182 was old state    187
 New state    183 was old state    177
 New state    184 was old state    178
 New state    185 was old state    190
 New state    186 was old state    191
 New state    187 was old state    188
 New state    188 was old state    189
 New state    189 was old state    182
 New state    190 was old state    181
 New state    191 was old state    192
 New state    192 was old state    195
 New state    193 was old state    207
 New state    194 was old state    197
 New state    195 was old state    199
 New state    196 was old state    198
 New state    197 was old state    208
 New state    198 was old state    176
 New state    199 was old state    202
 New state    200 was old state    203
 New state    202 was old state    204
 New state    203 was old state    213
 New state    204 was old state    193
 New state    205 was old state    209
 New state    206 was old state    210
 New state    207 was old state    211
 New state    208 was old state    212
 New state    209 was old state    206
 New state    210 was old state    205
 New state    211 was old state    216
 New state    212 was old state    196
 New state    213 was old state    217
 New state    215 was old state    219
 New state    216 was old state    215
 New state    217 was old state    220
 New state    218 was old state    223
 New state    219 was old state    218
 New state    220 was old state    221
 New state    221 was old state    200
 New state    223 was old state    225
 New state    224 was old state    226
 New state    225 was old state    227
 New state    226 was old state    228
 New state    227 was old state    233
 New state    228 was old state    224
 New state    229 was old state    232
 New state    230 was old state    234
 New state    231 was old state    236
 New state    232 was old state    230
 New state    233 was old state    238
 New state    234 was old state    239
 New state    235 was old state    229
 New state    236 was old state    231
 New state    238 was old state    251
 New state    239 was old state    252
 New state    240 was old state    244
 New state    241 was old state    245
 New state    242 was old state    247
 New state    243 was old state    248
 New state    244 was old state    249
 New state    245 was old state    250
 New state    246 was old state    253
 New state    247 was old state    254
 New state    248 was old state    263
 New state    249 was old state    262
 New state    250 was old state    242
 New state    251 was old state    255
 New state    252 was old state    256
 New state    253 was old state    246
 New state    254 was old state    257
 New state    255 was old state    258
 New state    256 was old state    260
 New state    257 was old state    261
 New state    258 was old state    272
 New state    259 was old state    273
 New state    260 was old state    264
 New state    261 was old state    259
 New state    262 was old state    266
 New state    263 was old state    267
 New state    264 was old state    269
 New state    265 was old state    268
 New state    266 was old state    270
 New state    267 was old state    271
 New state    268 was old state    274
 New state    269 was old state    275
 New state    270 was old state    265
 New state    271 was old state    307
 New state    272 was old state    308
 New state    273 was old state    278
 New state    274 was old state    279
 New state    275 was old state    283
 New state    278 was old state    282
 New state    279 was old state    281
 New state    281 was old state    284
 New state    282 was old state    285
 New state    283 was old state    287
 New state    284 was old state    301
 New state    285 was old state    300
 New state    286 was old state    289
 New state    287 was old state    290
 New state    288 was old state    291
 New state    289 was old state    243
 New state    290 was old state    286
 New state    291 was old state    292
 New state    292 was old state    293
 New state    293 was old state    295
 New state    295 was old state    296
 New state    296 was old state    297
 New state    297 was old state    321
 New state    298 was old state    306
 New state    299 was old state    298
 New state    300 was old state    299
 New state    301 was old state    303
 New state    302 was old state    304
 New state    303 was old state    305
 New state    304 was old state    309
 New state    305 was old state    310
 New state    306 was old state    313
 New state    307 was old state    314
 New state    308 was old state    311
 New state    309 was old state    312
 New state    310 was old state    316
 New state    311 was old state    315
 New state    312 was old state    318
 New state    313 was old state    325
 New state    314 was old state    327
 New state    315 was old state    328
 New state    316 was old state    319
 New state    317 was old state    320
 New state    318 was old state    317
 New state    319 was old state    330
 New state    320 was old state    329
 New state    321 was old state    322
 New state    322 was old state    331
 New state    323 was old state    326
 New state    324 was old state    332
 New state    325 was old state    324
 New state    326 was old state    323
 New state    327 was old state    336
 New state    328 was old state    337
 New state    329 was old state    340
 New state    330 was old state    333
 New state    331 was old state    338
 New state    332 was old state    339
 New state    333 was old state    335
 No map to state    335
 No map to state    336
 New state    337 was old state    302
 No map to state    338
 New state    339 was old state    344
 New state    340 was old state    387
 New state    344 was old state    345
 New state    345 was old state    346
 New state    346 was old state    347
 New state    347 was old state    348
 No map to state    348
 New state    351 was old state    353
 New state    352 was old state    354
 New state    353 was old state    358
 New state    354 was old state    357
 New state    355 was old state    351
 New state    356 was old state    352
 New state    357 was old state    356
 New state    358 was old state    355
 New state    359 was old state    360
 New state    360 was old state    359
 New state    361 was old state    362
 New state    362 was old state    361
 New state    369 was old state    371
 New state    370 was old state    372
 New state    371 was old state    373
 New state    372 was old state    374
 New state    373 was old state    375
 New state    374 was old state    378
 New state    375 was old state    376
 New state    376 was old state    377
 New state    377 was old state    369
 New state    378 was old state    370
 New state    380 was old state    381
 New state    381 was old state    385
 New state    382 was old state    384
 New state    383 was old state    386
 New state    384 was old state    380
 New state    385 was old state    382
 New state    386 was old state    383
 New state    387 was old state    401
 New state    389 was old state    390
 New state    390 was old state    389
 New state    391 was old state    393
 New state    393 was old state    391
 New state    395 was old state    396
 New state    396 was old state    397
 New state    397 was old state    398
 New state    398 was old state    395
 New state    401 was old state    403
 New state    402 was old state    406
 New state    403 was old state    405
 New state    404 was old state    402
 New state    405 was old state    404
 New state    406 was old state    413
 New state    410 was old state    412
 New state    411 was old state    414
 New state    412 was old state    415
 New state    413 was old state    410
 New state    414 was old state    411
 No map to state    415
 New state    421 was old state    425
 New state    422 was old state    428
 New state    423 was old state    426
 New state    424 was old state    421
 New state    425 was old state    427
 New state    426 was old state    429
 New state    427 was old state    430
 New state    428 was old state    438
 New state    429 was old state    439
 New state    430 was old state    431
 New state    431 was old state    432
 New state    432 was old state    433
 New state    433 was old state    434
 New state    434 was old state    435
 New state    435 was old state    436
 New state    436 was old state    437
 New state    437 was old state    442
 New state    438 was old state    443
 New state    439 was old state    440
 New state    440 was old state    441
 New state    441 was old state    444
 New state    442 was old state    445
 New state    443 was old state    451
 New state    444 was old state    450
 New state    445 was old state    422
 New state    446 was old state    448
 New state    447 was old state    449
 New state    448 was old state    446
 New state    449 was old state    447
 New state    450 was old state    460
 New state    451 was old state    459
 New state    459 was old state    462
 New state    460 was old state    461
 New state    461 was old state    472
 New state    462 was old state    473
 New state    466 was old state    467
 New state    467 was old state    466
 New state    469 was old state    471
 New state    470 was old state    469
 New state    471 was old state    470
 New state    472 was old state    474
 New state    473 was old state    475
 New state    474 was old state    478
 New state    475 was old state    479
 New state    478 was old state    480
 New state    479 was old state    481
 New state    480 was old state    484
 New state    481 was old state    482
 New state    482 was old state    489
 New state    483 was old state    490
 New state    484 was old state    483
 New state    485 was old state    487
 New state    486 was old state    485
 New state    487 was old state    486
 New state    488 was old state    491
 New state    489 was old state    488
 New state    490 was old state    507
 New state    491 was old state    506
 New state    496 was old state    501
 New state    497 was old state    498
 New state    498 was old state    496
 New state    499 was old state    497
 New state    500 was old state    502
 New state    501 was old state    500
 New state    502 was old state    503
 New state    503 was old state    504
 New state    504 was old state    505
 New state    505 was old state    508
 New state    506 was old state    509
 New state    507 was old state    499
 New state    508 was old state    510
 New state    509 was old state    511
 New state    510 was old state    526
 New state    511 was old state    525
 New state    517 was old state    519
 New state    518 was old state    517
 New state    519 was old state    518
 New state    520 was old state    521
 New state    521 was old state    520
 New state    524 was old state    528
 New state    525 was old state    530
 New state    526 was old state    524
 New state    528 was old state    529
 New state    529 was old state    531
 New state    530 was old state    532
 New state    531 was old state    535
 New state    532 was old state    533
 New state    533 was old state    538
 New state    534 was old state    539
 New state    535 was old state    536
 New state    536 was old state    537
 New state    537 was old state    534
 New state    538 was old state    561
 New state    539 was old state    540
 New state    540 was old state    541
 New state    541 was old state    547
 New state    547 was old state    548
 New state    548 was old state    549
 New state    549 was old state    551
 New state    551 was old state    552
 New state    552 was old state    553
 New state    553 was old state    554
 New state    554 was old state    555
 No map to state    555
 New state    557 was old state    558
 New state    558 was old state    557
 New state    559 was old state    560
 New state    560 was old state    559
 New state    561 was old state    563
 New state    563 was old state    567
 New state    564 was old state    568
 New state    565 was old state    566
 New state    566 was old state    564
 New state    567 was old state    565
 New state    568 was old state    576
 New state    570 was old state    572
 New state    572 was old state    570
 New state    573 was old state    575
 New state    574 was old state    577
 New state    575 was old state    578
 New state    576 was old state    586
 New state    577 was old state    573
 New state    578 was old state    574
 New state    579 was old state    580
 New state    580 was old state    579
 New state    582 was old state    583
 New state    583 was old state    585
 New state    584 was old state    582
 New state    585 was old state    584
 New state    586 was old state    587
 New state    587 was old state    588
 New state    588 was old state    621
 New state    589 was old state    591
 New state    590 was old state    589
 New state    591 was old state    590
 New state    594 was old state    596
 New state    595 was old state    597
 New state    596 was old state    594
 New state    597 was old state    595
 New state    603 was old state    608
 New state    604 was old state    609
 New state    605 was old state    604
 New state    608 was old state    603
 New state    609 was old state    605
 New state    610 was old state    612
 New state    611 was old state    613
 New state    612 was old state    614
 New state    613 was old state    615
 New state    614 was old state    617
 New state    615 was old state    616
 New state    616 was old state    610
 New state    617 was old state    611
 New state    621 was old state    622
 New state    622 was old state    623
 New state    623 was old state    625
 New state    625 was old state    629
 No map to state    629
 New state    632 was old state    635
 New state    635 was old state    636
 New state    636 was old state    632
 New state    643 was old state    644
 New state    644 was old state    645
 New state    645 was old state    643
 New state    650 was old state    654
 New state    651 was old state    655
 New state    654 was old state    650
 New state    655 was old state    651
 New state    656 was old state    659
 New state    657 was old state    660
 New state    658 was old state    656
 New state    659 was old state    657
 New state    660 was old state    662
 New state    661 was old state    658
 New state    662 was old state    661
 New state    665 was old state    671
 New state    666 was old state    672
 New state    667 was old state    669
 New state    668 was old state    670
 New state    669 was old state    678
 New state    670 was old state    677
 New state    671 was old state    673
 New state    672 was old state    667
 New state    673 was old state    668
 New state    675 was old state    676
 New state    676 was old state    675
 New state    677 was old state    680
 New state    678 was old state    679
 New state    679 was old state    665
 New state    680 was old state    666
 New state    687 was old state    688
 New state    688 was old state    687
 New state    694 was old state    695
 New state    695 was old state    696
 New state    696 was old state    698
 New state    697 was old state    699
 New state    698 was old state    697
 New state    699 was old state    694
 New state    704 was old state    705
 New state    705 was old state    704
 New state    714 was old state    715
 New state    715 was old state    714
 New state    718 was old state    720
 New state    719 was old state    721
 New state    720 was old state    718
 New state    721 was old state    719
 New state    723 was old state    724
 New state    724 was old state    725
 New state    725 was old state    723
 New state    726 was old state    727
 New state    727 was old state    728
 New state    728 was old state    726
 New state    729 was old state    731
 New state    730 was old state    729
 New state    731 was old state    730
 New state    735 was old state    737
 New state    736 was old state    735
 New state    737 was old state    736
 New state    740 was old state    741
 New state    741 was old state    742
 New state    742 was old state    740
 New state    749 was old state    750
 New state    750 was old state    751
 New state    751 was old state    752
 New state    752 was old state    753
 New state    753 was old state    749
 New state    754 was old state    756
 New state    755 was old state    757
 New state    756 was old state    754
 New state    757 was old state    755
 New state    765 was old state    767
 New state    766 was old state    765
 New state    767 was old state    766
 New state    769 was old state    771
 New state    770 was old state    769
 New state    771 was old state    770
 New state    780 was old state    781
 New state    781 was old state    780
 New state    791 was old state    798
 New state    792 was old state    797
 New state    793 was old state    791
 New state    794 was old state    792
 New state    795 was old state    793
 New state    796 was old state    794
 New state    797 was old state    796
 New state    798 was old state    795
 New state    801 was old state    803
 New state    802 was old state    804
 New state    803 was old state    801
 New state    804 was old state    802
 New state    812 was old state    813
 New state    813 was old state    812
 New state    815 was old state    818
 New state    816 was old state    817
 New state    817 was old state    816
 New state    818 was old state    815
 New state    821 was old state    823
 New state    822 was old state    821
 New state    823 was old state    822
 New state    832 was old state    834
 New state    833 was old state    835
 New state    834 was old state    837
 New state    835 was old state    832
 New state    836 was old state    833
 New state    837 was old state    836
 New state    840 was old state    842
 New state    841 was old state    843
 New state    842 was old state    845
 New state    843 was old state    840
 New state    844 was old state    841
 New state    845 was old state    844
 New state    847 was old state    849
 New state    848 was old state    847
 New state    849 was old state    848
 New state    859 was old state    860
 New state    860 was old state    859
 Excitation Energies [eV] at current iteration:
 Root      1 :     7.767425069681642
 Root      2 :     7.767594340588905
 Root      3 :     8.354869471485852
 Root      4 :     8.360898088334498
 Root      5 :     8.425332111929858
 Root      6 :     8.425341463078803
 Root      7 :     8.616027281165048
 Root      8 :     8.616202679439386
 Root      9 :     9.514484860695555
 Root     10 :     9.514577896859661
 Root     11 :     9.886923223242697
 Root     12 :     9.887093850268787
 Root     13 :    10.112083539323420
 Root     14 :    10.129797774460530
 Root     15 :    10.129800208857820
 Root     16 :    10.206178585904050
 Root     17 :    10.525142121417690
 Root     18 :    10.525233244168380
 Root     19 :    10.770195857985110
 Root     20 :    10.782923992601700
 Root     21 :    10.796636977813230
 Root     22 :    10.796638399150670
 Root     23 :    10.833111830071250
 Root     24 :    10.833245758387710
 Root     25 :    11.479379068811010
 Root     26 :    11.479404622311790
 Root     27 :    11.487856296085960
 Root     28 :    11.671228197933330
 Root     29 :    11.671315775049540
 Root     30 :    11.788114482321410
 Root     31 :    11.927549152321890
 Root     32 :    11.927643791021420
 Root     33 :    12.088157842944360
 Root     34 :    12.101760668489180
 Root     35 :    12.179049149485770
 Root     36 :    12.179052156584840
 Root     37 :    12.244993401811710
 Root     38 :    12.245165338548190
 Root     39 :    12.304189216144610
 Root     40 :    12.524218043436930
 Root     41 :    12.524223425044540
 Root     42 :    12.574075087412650
 Root     43 :    12.578741488532910
 Root     44 :    12.644441472940780
 Root     45 :    12.647409473894740
 Root     46 :    12.647413702079780
 Root     47 :    12.841313304898030
 Root     48 :    12.841372517307310
 Root     49 :    12.985112926625680
 Root     50 :    13.072031705676150
 Root     51 :    13.078732589464890
 Root     52 :    13.078870347414740
 Root     53 :    13.157548097025340
 Root     54 :    13.177081032888610
 Root     55 :    13.226539307267560
 Root     56 :    13.226543869688520
 Root     57 :    13.240115228382580
 Root     58 :    13.590618448626620
 Root     59 :    13.590669608422210
 Root     60 :    13.893010425628100
 Root     61 :    13.920406808987060
 Root     62 :    13.920413050000490
 Root     63 :    14.162401875432320
 Root     64 :    14.162496818451340
 Root     65 :    14.189849684067170
 Root     66 :    14.262352351607180
 Root     67 :    14.303266847094010
 Root     68 :    14.360167702751030
 Root     69 :    14.548766281079710
 Root     70 :    14.548783253782180
 Root     71 :    14.600362682608140
 Root     72 :    14.631717366316620
 Root     73 :    14.701147618060550
 Root     74 :    14.701229138304420
 Root     75 :    14.878811195295100
 Root     76 :    14.912590391149790
 Root     77 :    15.104578356300880
 Root     78 :    15.104598093699600
 Root     79 :    15.255608225168100
 Root     80 :    15.255654878183040
 Root     81 :    15.357150795126680
 Root     82 :    15.374094808720240
 Root     83 :    15.450374855039970
 Root     84 :    15.450381553880700
 Root     85 :    15.514912484579010
 Root     86 :    15.514988153320220
 Root     87 :    15.794736635771240
 Root     88 :    15.794822638304780
 Root     89 :    15.859624162795170
 Root     90 :    15.859796645786120
 Root     91 :    15.978062555404650
 Root     92 :    15.978241993635100
 Root     93 :    16.002599375892750
 Root     94 :    16.002611734817180
 Root     95 :    16.016223995302820
 Root     96 :    16.016230006873470
 Root     97 :    16.053280627535220
 Root     98 :    16.299399933022340
 Root     99 :    16.299481640920110
 Root    100 :    16.480079145466410
 Root    101 :    16.488427771046950
 Root    102 :    16.488439004203770
 Root    103 :    16.527136496825010
 Root    104 :    16.608028321239880
 Root    105 :    16.608029937022440
 Root    106 :    16.679412983357240
 Root    107 :    16.679458917265770
 Root    108 :    16.693638186394860
 Root    109 :    16.812672304713820
 Root    110 :    16.812704924975670
 Root    111 :    16.853617395475660
 Root    112 :    17.035487966358690
 Root    113 :    17.035512176492180
 Root    114 :    17.215296911653220
 Root    115 :    17.215370817135700
 Root    116 :    17.305414171926870
 Root    117 :    17.311531744267390
 Root    118 :    17.311536003577920
 Root    119 :    17.329570421398750
 Root    120 :    17.366954713670240
 Root    121 :    17.400104002803670
 Root    122 :    17.400194930453820
 Root    123 :    17.446705118957560
 Root    124 :    17.446729195038070
 Root    125 :    17.456602123002490
 Root    126 :    17.524654063190080
 Root    127 :    17.585248983427510
 Root    128 :    17.585334695298180
 Root    129 :    17.592885348215360
 Root    130 :    17.592978627807750
 Root    131 :    17.610326448851580
 Root    132 :    17.725792676979070
 Root    133 :    17.725801057687160
 Root    134 :    17.806225267061580
 Root    135 :    17.806244745002000
 Root    136 :    17.870428232017730
 Root    137 :    17.870516287823970
 Root    138 :    17.979751065685190
 Root    139 :    18.038028143573140
 Root    140 :    18.038137570752210
 Root    141 :    18.070379123218820
 Root    142 :    18.072075783918320
 Root    143 :    18.257812958504450
 Root    144 :    18.257844627436360
 Root    145 :    18.311614690639760
 Root    146 :    18.335035726107860
 Root    147 :    18.335036618926710
 Root    148 :    18.384503064882730
 Root    149 :    18.384581733016380
 Root    150 :    18.439420228619980
 Root    151 :    18.468426707797190
 Root    152 :    18.474516322010640
 Root    153 :    18.474550390551660
 Root    154 :    18.475918728356120
 Root    155 :    18.505624856682840
 Root    156 :    18.527238214108020
 Root    157 :    18.527239114900710
 Root    158 :    18.669894954411980
 Root    159 :    18.834623206327870
 Root    160 :    18.834738274970440
 Root    161 :    19.100724666125950
 Root    162 :    19.115144131207480
 Root    163 :    19.115145892624090
 Root    164 :    19.117943449819050
 Root    165 :    19.120107655033840
 Root    166 :    19.219603517577420
 Root    167 :    19.219609474753710
 Root    168 :    19.273610215582800
 Root    169 :    19.273615753747140
 Root    170 :    19.283388825876390
 Root    171 :    19.323821473814800
 Root    172 :    19.460100790542160
 Root    173 :    19.544112482049390
 Root    174 :    19.544126087801960
 Root    175 :    19.722457477806920
 Root    176 :    19.722546719851890
 Root    177 :    19.797275212391800
 Root    178 :    19.825791908158590
 Root    179 :    19.825797940175080
 Root    180 :    19.832947415084180
 Root    181 :    19.835579419336270
 Root    182 :    19.884513098721010
 Root    183 :    19.884986622614510
 Root    184 :    19.884991691606840
 Root    185 :    19.916508800327370
 Root    186 :    19.916531095294350
 Root    187 :    20.050067783838880
 Root    188 :    20.050081633496280
 Root    189 :    20.065061194322070
 Root    190 :    20.065116424681600
 Root    191 :    20.074016915044460
 Root    192 :    20.135843291200850
 Root    193 :    20.139328339367360
 Root    194 :    20.142417613029500
 Root    195 :    20.142432312982460
 Root    196 :    20.164560150834140
 Root    197 :    20.173331314483820
 Root    198 :    20.174554709596900
 Root    199 :    20.226325468479790
 Root    200 :    20.261887526049910
 Root    201 :    20.261898127851890
 Root    202 :    20.267824910751370
 Root    203 :    20.269674579758500
 Root    204 :    20.269693834507100
 Root    205 :    20.315235402106930
 Root    206 :    20.340108910441290
 Root    207 :    20.413928704502870
 Root    208 :    20.413986914055770
 Root    209 :    20.544829594070350
 Root    210 :    20.544877511595740
 Root    211 :    20.588860926120460
 Root    212 :    20.595487644830180
 Root    213 :    20.606073071591950
 Root    214 :    20.606134124807140
 Root    215 :    20.638329024831390
 Root    216 :    20.809424261210280
 Root    217 :    20.863779678967920
 Root    218 :    20.904490219879890
 Root    219 :    20.904503196407270
 Root    220 :    21.063496290303140
 Root    221 :    21.334436222651040
 Root    222 :    21.460943636414190
 Root    223 :    21.771009914423630
 Root    224 :    21.771096657926640
 Root    225 :    21.790542297981580
 Root    226 :    21.790699023355520
 Root    227 :    21.807401189658660
 Root    228 :    21.807511841837300
 Root    229 :    21.855806986152170
 Root    230 :    21.923892546155630
 Root    231 :    21.926150465783860
 Root    232 :    21.995321614322740
 Root    233 :    22.000927592553110
 Root    234 :    22.000977280002960
 Root    235 :    22.125347691971750
 Root    236 :    22.125365966186540
 Root    237 :    22.134408524866700
 Root    238 :    22.384762282743380
 Root    239 :    22.384870862311140
 Root    240 :    22.441898325872370
 Root    241 :    22.461911903585760
 Root    242 :    22.461917377397810
 Root    243 :    22.483606002782400
 Root    244 :    22.497574250062540
 Root    245 :    22.497742075294980
 Root    246 :    22.595542125189710
 Root    247 :    22.595590885915240
 Root    248 :    22.605824676798540
 Root    249 :    22.605902384457970
 Root    250 :    22.672134645647710
 Root    251 :    22.753777072882890
 Root    252 :    22.753864991494210
 Root    253 :    22.800797276804230
 Root    254 :    22.880041021800750
 Root    255 :    22.880120370358480
 Root    256 :    22.913133477898730
 Root    257 :    22.913141586636280
 Root    258 :    22.955729653735120
 Root    259 :    22.955738227389920
 Root    260 :    23.008025212229080
 Root    261 :    23.037898073042840
 Root    262 :    23.343373907543910
 Root    263 :    23.343604038079650
 Root    264 :    23.406896681296950
 Root    265 :    23.406938480157840
 Root    266 :    23.536098245943160
 Root    267 :    23.536187283797390
 Root    268 :    23.557064936978570
 Root    269 :    23.557141537183570
 Root    270 :    23.575108876625590
 Root    271 :    23.592714288266000
 Root    272 :    23.592752379128670
 Root    273 :    23.659708430865120
 Root    274 :    23.659735997923330
 Root    275 :    23.674062049733080
 Root    276 :    23.690257553844390
 Root    277 :    23.690305450086520
 Root    278 :    23.722673188754030
 Root    279 :    23.795525167319910
 Root    280 :    23.795560025954870
 Root    281 :    24.077188298655900
 Root    282 :    24.112564664429720
 Root    283 :    24.269930927532510
 Root    284 :    24.283454287517260
 Root    285 :    24.283477500499510
 Root    286 :    24.295972993654160
 Root    287 :    24.295991231167830
 Root    288 :    24.313412567168040
 Root    289 :    24.520521251553100
 Root    290 :    24.646918577056200
 Root    291 :    24.660691813158640
 Root    292 :    24.660714252948730
 Root    293 :    24.980358366574070
 Root    294 :    25.002915750705530
 Root    295 :    25.002917086925950
 Root    296 :    25.016349201317800
 Root    297 :    25.056107777737170
 Root    298 :    25.096929148251590
 Root    299 :    25.156842557696710
 Root    300 :    25.156883010596480
 Root    301 :    25.279149753935220
 Root    302 :    25.307732160754080
 Root    303 :    25.307747882207120
 Root    304 :    25.429914165983780
 Root    305 :    25.430064131523580
 Root    306 :    25.465860132111940
 Root    307 :    25.465884435122270
 Root    308 :    25.588649286987770
 Root    309 :    25.588692265989830
 Root    310 :    25.746670755027810
 Root    311 :    25.746675826893870
 Root    312 :    25.787284378912340
 Root    313 :    25.804628049446570
 Root    314 :    25.828251549384470
 Root    315 :    25.828270648288960
 Root    316 :    25.909433442499190
 Root    317 :    25.909472060496350
 Root    318 :    25.927426442559650
 Root    319 :    25.998583320187600
 Root    320 :    25.998609031033070
 Root    321 :    26.020827605470560
 Root    322 :    26.038803636339420
 Root    323 :    26.132105286715720
 Root    324 :    26.145977328779970
 Root    325 :    26.148935293228190
 Root    326 :    26.148941141853510
 Root    327 :    26.192415807776850
 Root    328 :    26.192435175072540
 Root    329 :    26.241772186265450
 Root    330 :    26.281483128482320
 Root    331 :    26.304300957323290
 Root    332 :    26.304359820535730
 Root    333 :    26.425043243631910
 Root    334 :    26.425067648060330
 Root    335 :    26.439377850782490
 Root    336 :    26.439427656419890
 Root    337 :    26.518460508580390
 Root    338 :    26.518516382959500
 Root    339 :    26.593696455419190
 Root    340 :    26.770380126556870
 Root    341 :    26.887670332493040
 Root    342 :    26.887693261050300
 Root    343 :    27.030868019752130
 Root    344 :    27.127501150603830
 Root    345 :    27.127647590040110
 Root    346 :    27.264344757568740
 Root    347 :    27.264463146941840
 Root    348 :    27.330160135945580
 Root    349 :    27.390615171212640
 Root    350 :    27.390795654497350
 Root    351 :    27.738056038217930
 Root    352 :    27.738201537074670
 Root    353 :    27.865697654658530
 Root    354 :    27.880633991158780
 Root    355 :    28.024258281036250
 Root    356 :    28.024390424877940
 Root    357 :    28.066096489312590
 Root    358 :    28.066143281333700
 Root    359 :    28.399378118143900
 Root    360 :    28.399382852570320
 Root    361 :    28.453386256439570
 Root    362 :    28.512414826969290
 Root    363 :    28.786781141530150
 Root    364 :    28.786870409519320
 Root    365 :    29.250618453379950
 Root    366 :    29.250653144703490
 Root    367 :    29.282695068720980
 Root    368 :    29.282741818993860
 Root    369 :    29.489727510720840
 Root    370 :    29.489811022569900
 Root    371 :    29.538969873171760
 Root    372 :    29.539031464008160
 Root    373 :    29.615243242683820
 Root    374 :    29.646920631680530
 Root    375 :    29.646926625387800
 Root    376 :    29.671541211467040
 Root    377 :    29.745566450913770
 Root    378 :    29.745658798337150
 Root    379 :    29.776358332042280
 Root    380 :    29.789377613131730
 Root    381 :    29.918454165234110
 Root    382 :    30.099008388771620
 Root    383 :    30.152713384573870
 Root    384 :    30.370577107575470
 Root    385 :    30.370614737330520
 Root    386 :    30.536598818281450
 Root    387 :    30.586315313090100
 Root    388 :    30.798394567477030
 Root    389 :    31.252254063634200
 Root    390 :    31.397810390277220
 Root    391 :    31.474518353516710
 Root    392 :    31.481241803613110
 Root    393 :    31.481243519281630
 Root    394 :    31.614739162510920
 Root    395 :    31.614757268055480
 Root    396 :    31.658009674064240
 Root    397 :    31.658098838353220
 Root    398 :    31.675628863293570
 Root    399 :    31.918893251939350
 Root    400 :    31.919064226457850
 Root    401 :    31.987075854485270
 Root    402 :    32.000903247489890
 Root    403 :    32.000930775304600
 Root    404 :    32.025022264528800
 Root    405 :    32.041567123715450
 Root    406 :    32.068352731916230
 Root    407 :    32.383922777019040
 Root    408 :    32.530937349055140
 Root    409 :    32.531117952617000
 Root    410 :    32.657604202419260
 Root    411 :    32.759633444575040
 Root    412 :    32.759662046010970
 Root    413 :    32.814633394033730
 Root    414 :    32.814753031352440
 Root    415 :    32.894308799771990
 Root    416 :    32.990921678393690
 Root    417 :    32.991022701281270
 Root    418 :    33.173649135390880
 Root    419 :    33.187279191589750
 Root    420 :    33.187376355340690
 Root    421 :    33.239001777824310
 Root    422 :    33.274416636283790
 Root    423 :    33.274454889466400
 Root    424 :    33.297800578608840
 Root    425 :    33.311909892631770
 Root    426 :    33.717439787025700
 Root    427 :    33.717621116931500
 Root    428 :    34.115287292594800
 Root    429 :    34.115328151010220
 Root    430 :    34.256136648174230
 Root    431 :    34.256293850292280
 Root    432 :    34.287894018512380
 Root    433 :    34.522731294762440
 Root    434 :    34.522769622629260
 Root    435 :    34.542844129169240
 Root    436 :    34.542909311007360
 Root    437 :    34.883727514122500
 Root    438 :    34.883867565616260
 Root    439 :    34.993360900157680
 Root    440 :    34.993484806467690
 Root    441 :    35.085278743540480
 Root    442 :    35.085333007451370
 Root    443 :    35.179098924717560
 Root    444 :    35.222791672762400
 Root    445 :    35.224230807215710
 Root    446 :    35.292846206278340
 Root    447 :    35.292862091169480
 Root    448 :    35.363712913364030
 Root    449 :    35.363736294256230
 Root    450 :    35.499339709967330
 Root    451 :    35.499405148626860
 Root    452 :    35.593365091181200
 Root    453 :    35.593448064013770
 Root    454 :    36.023262451418350
 Root    455 :    36.023320699109280
 Root    456 :    36.135617140637760
 Root    457 :    36.269331582624750
 Root    458 :    36.269480201605550
 Root    459 :    36.805596652904940
 Root    460 :    36.805619514025880
 Root    461 :    37.083908078518770
 Root    462 :    37.083961027891340
 Root    463 :    37.153296142041250
 Root    464 :    37.402247094823460
 Root    465 :    37.447213135482620
 Root    466 :    37.516829874470070
 Root    467 :    37.516836677300040
 Root    468 :    37.556380643702780
 Root    469 :    37.741826785347930
 Root    470 :    37.741833919450560
 Root    471 :    37.841217105914410
 Root    472 :    37.986171579163510
 Root    473 :    38.536860123307150
 Root    474 :    38.554808951219870
 Root    475 :    38.554868963786430
 Root    476 :    38.639761815994150
 Root    477 :    38.639842167774700
 Root    478 :    39.040286268053610
 Root    479 :    39.151165418369490
 Root    480 :    39.224487523754870
 Root    481 :    39.224511306498260
 Root    482 :    39.276988325350710
 Root    483 :    39.277040135362920
 Root    484 :    39.331869868488690
 Root    485 :    39.367221137614590
 Root    486 :    39.367226133472430
 Root    487 :    39.446343808932670
 Root    488 :    39.457405112738660
 Root    489 :    39.625166019710870
 Root    490 :    39.680122990281210
 Root    491 :    39.680197750911790
 Root    492 :    39.775655032648070
 Root    493 :    40.424886001005330
 Root    494 :    40.577538710118380
 Root    495 :    40.577625757730400
 Root    496 :    41.063783417256090
 Root    497 :    41.153985908167390
 Root    498 :    41.172300180408110
 Root    499 :    41.172326806038910
 Root    500 :    41.251716455815420
 Root    501 :    41.251718615529500
 Root    502 :    41.278049221134440
 Root    503 :    41.305100471055600
 Root    504 :    41.305199148173560
 Root    505 :    41.781646052932910
 Root    506 :    41.929651046383060
 Root    507 :    41.969602153753730
 Root    508 :    42.118554331234260
 Root    509 :    42.118649805445370
 Root    510 :    42.535683532082030
 Root    511 :    42.535774253209010
 Root    512 :    42.695203719760030
 Root    513 :    42.695295271642390
 Root    514 :    42.840484729496270
 Root    515 :    42.840568679981760
 Root    516 :    43.045419072057190
 Root    517 :    43.156348952832990
 Root    518 :    43.156368044283840
 Root    519 :    43.214194247084430
 Root    520 :    43.640930663304770
 Root    521 :    43.837203594415030
 Root    522 :    43.837209519496390
 Root    523 :    43.973533797590420
 Root    524 :    44.298795944449740
 Root    525 :    44.298942933846330
 Root    526 :    44.469363245609400
 Root    527 :    44.987906249458910
 Root    528 :    45.366710231773380
 Root    529 :    45.427534724549100
 Root    530 :    45.427540226288630
 Root    531 :    45.591041687267950
 Root    532 :    45.703061574011480
 Root    533 :    45.752226546561180
 Root    534 :    45.752621378523990
 Root    535 :    45.797812815873820
 Root    536 :    45.797885398966610
 Root    537 :    45.932111496377980
 Root    538 :    45.932157345481050
 Root    539 :    46.478572336044490
 Root    540 :    46.478947607566280
 Root    541 :    46.482752976480600
 Root    542 :    47.132152619731920
 Root    543 :    47.286077917406980
 Root    544 :    47.286158946671600
 Root    545 :    47.856211645620370
 Root    546 :    47.856262870885050
 Root    547 :    48.346090077228200
 Root    548 :    48.346235462116080
 Root    549 :    48.548913250404690
 Root    550 :    48.943140865019690
 Root    551 :    49.031489190728880
 Root    552 :    49.031510656539060
 Root    553 :    49.173850199440220
 Root    554 :    49.173975203679530
 Root    555 :    49.176814165856280
 Root    556 :    49.271540002083280
 Root    557 :    49.278603233472360
 Root    558 :    49.317379010482760
 Root    559 :    49.317416763318490
 Root    560 :    49.872361205630640
 Root    561 :    49.989906555853610
 Root    562 :    49.990079663683950
 Root    563 :    51.036115340744290
 Root    564 :    51.036201919464020
 Root    565 :    51.118522063927340
 Root    566 :    51.239224196988830
 Root    567 :    51.316022522621450
 Root    568 :    51.316030695451070
 Root    569 :    51.514155191416640
 Root    570 :    51.553754832738150
 Root    571 :    51.553773532137110
 Root    572 :    51.776153251854270
 Root    573 :    52.026708883834630
 Root    574 :    52.026776906716310
 Root    575 :    52.184332178073750
 Root    576 :    52.392727882718730
 Root    577 :    52.683186082272540
 Root    578 :    52.683307914146350
 Root    579 :    53.597873550736140
 Root    580 :    53.699700557742420
 Root    581 :    53.699710315338440
 Root    582 :    53.740970293310550
 Root    583 :    53.741452446210770
 Root    584 :    53.780843948944310
 Root    585 :    54.065539420703140
 Root    586 :    54.087529546094030
 Root    587 :    54.087702281389010
 Root    588 :    54.465752815742220
 Root    589 :    54.557541621041930
 Root    590 :    54.775992931066650
 Root    591 :    54.776435290360030
 Root    592 :    55.562459215337680
 Root    593 :    55.562821097833960
 Root    594 :    55.602791960960930
 Root    595 :    55.602906261357310
 Root    596 :    55.609441747093530
 Root    597 :    55.609564928570390
 Root    598 :    55.998511640800960
 Root    599 :    55.998568946549530
 Root    600 :    56.547697399292380
 Root    601 :    56.547842587161060
 Root    602 :    56.921133885807220
 Root    603 :    57.090866601960260
 Root    604 :    57.090939776387120
 Root    605 :    57.146302418054280
 Root    606 :    57.162017758588440
 Root    607 :    57.162052392980630
 Root    608 :    57.189704430825440
 Root    609 :    57.189796162949500
 Root    610 :    57.429195767987150
 Root    611 :    57.429282237816030
 Root    612 :    57.652493178647310
 Root    613 :    57.741576230320220
 Root    614 :    57.750769626199930
 Root    615 :    57.750786292321630
 Root    616 :    57.904782250789300
 Root    617 :    57.904832299323440
 Root    618 :    58.193742720556050
 Root    619 :    58.193902704077270
 Root    620 :    59.073007997784470
 Root    621 :    59.268268598674180
 Root    622 :    59.378646952900660
 Root    623 :    59.378655459366430
 Root    624 :    59.477957666541790
 Root    625 :    59.496704520530160
 Root    626 :    59.645593463025580
 Root    627 :    59.688887224906840
 Root    628 :    59.870111450518970
 Root    629 :    59.870125801997820
 Root    630 :    60.014392005766300
 Root    631 :    60.104209038703100
 Root    632 :    60.701618870321450
 Root    633 :    60.766268554113100
 Root    634 :    60.931149463839330
 Root    635 :    60.931160031754910
 Root    636 :    60.969089691390420
 Root    637 :    61.031744448994740
 Root    638 :    61.859873774412940
 Root    639 :    61.859940703677580
 Root    640 :    62.158032293799330
 Root    641 :    62.158378974711920
 Root    642 :    62.416721515738610
 Root    643 :    62.636267106571370
 Root    644 :    62.636274127076700
 Root    645 :    62.740993265864730
 Root    646 :    62.793709698480010
 Root    647 :    62.794015837226390
 Root    648 :    62.957132136838330
 Root    649 :    62.957259964777460
 Root    650 :    63.246345146954680
 Root    651 :    63.246490669502550
 Root    652 :    63.270547060783350
 Root    653 :    63.270617239651370
 Root    654 :    63.339370896320870
 Root    655 :    63.339404720791650
 Root    656 :    63.553453215439010
 Root    657 :    63.553494670232920
 Root    658 :    63.786543721198600
 Root    659 :    63.786947122231580
 Root    660 :    63.866340845756130
 Root    661 :    64.193684517907290
 Root    662 :    64.252271215612780
 Root    663 :    64.769126497472410
 Root    664 :    64.769217837849410
 Root    665 :    64.841369045237160
 Root    666 :    64.841385308521110
 Root    667 :    65.036396288897690
 Root    668 :    65.036496418406390
 Root    669 :    65.290279407503010
 Root    670 :    65.292102256558710
 Root    671 :    65.299314449922510
 Root    672 :    65.353286227455070
 Root    673 :    65.353358260521490
 Root    674 :    65.372281649767220
 Root    675 :    65.372286712329720
 Root    676 :    65.426535852263850
 Root    677 :    65.526952887034670
 Root    678 :    65.526976301326170
 Root    679 :    65.742869427873220
 Root    680 :    65.873802974309570
 Root    681 :    66.120160141515570
 Root    682 :    66.120237927159520
 Root    683 :    66.468596972509350
 Root    684 :    66.468745452510390
 Root    685 :    66.646573231262620
 Root    686 :    66.710275809607400
 Root    687 :    66.710294285396830
 Root    688 :    66.846738174320140
 Root    689 :    67.386014798720110
 Root    690 :    67.703037330712020
 Root    691 :    68.075510481229870
 Root    692 :    68.218866369650830
 Root    693 :    68.219157872913460
 Root    694 :    68.439978761726490
 Root    695 :    68.440011753758210
 Root    696 :    68.497196280996360
 Root    697 :    68.526661199928850
 Root    698 :    68.566371591244450
 Root    699 :    68.846481169816780
 Root    700 :    68.995785524882220
 Root    701 :    68.996048728475240
 Root    702 :    69.570760632004410
 Root    703 :    69.571285935078390
 Root    704 :    69.940165622120220
 Root    705 :    69.948365876484530
 Root    706 :    70.179580886660180
 Root    707 :    70.180092027894960
 Root    708 :    70.333360606695390
 Root    709 :    70.333519296988570
 Root    710 :    70.617243192572130
 Root    711 :    70.617328742576960
 Root    712 :    70.956217184907170
 Root    713 :    70.956326010947040
 Root    714 :    71.336569334186210
 Root    715 :    71.391610404132110
 Root    716 :    71.427250854379880
 Root    717 :    71.427253662210860
 Root    718 :    71.912641175662860
 Root    719 :    71.912837995020540
 Root    720 :    72.035968845857670
 Root    721 :    72.036254338472620
 Root    722 :    72.426548126457360
 Root    723 :    72.449954790556050
 Root    724 :    72.515811835962470
 Root    725 :    72.515823066603600
 Root    726 :    72.724591580527520
 Root    727 :    72.906291964031010
 Root    728 :    72.906301114448740
 Root    729 :    72.938505856270510
 Root    730 :    72.983072284791250
 Root    731 :    73.192977046005770
 Root    732 :    73.448112003882630
 Root    733 :    73.448121222354860
 Root    734 :    73.814801923206020
 Root    735 :    74.043088128009200
 Root    736 :    74.043136256888160
 Root    737 :    74.184522712353980
 Root    738 :    74.888044292003490
 Root    739 :    74.952641688356880
 Root    740 :    74.954678685525170
 Root    741 :    74.954695030549520
 Root    742 :    75.050142937307510
 Root    743 :    75.329808240051920
 Root    744 :    75.329877030903420
 Root    745 :    75.614403289705590
 Root    746 :    76.845785342404070
 Root    747 :    76.846031786870000
 Root    748 :    77.254508906232100
 Root    749 :    77.418542164085990
 Root    750 :    77.418742413629990
 Root    751 :    77.642394749132820
 Root    752 :    77.642607558344370
 Root    753 :    77.680443759778680
 Root    754 :    77.955107898900520
 Root    755 :    77.955235852139040
 Root    756 :    78.153512336522850
 Root    757 :    78.153808000953160
 Root    758 :    78.441944927481290
 Root    759 :    78.442229219796500
 Root    760 :    79.450268321091340
 Root    761 :    79.450796404747310
 Root    762 :    79.827126926280570
 Root    763 :    79.827291117609090
 Root    764 :    79.936446250851160
 Root    765 :    80.061452684165500
 Root    766 :    80.061479178336510
 Root    767 :    80.106373808494130
 Root    768 :    80.846613943759010
 Root    769 :    80.866377741887890
 Root    770 :    80.866391749214100
 Root    771 :    80.967850420117270
 Root    772 :    81.576766827359360
 Root    773 :    81.576860251200660
 Root    774 :    81.788009090744110
 Root    775 :    82.055324612168990
 Root    776 :    82.321882806428450
 Root    777 :    82.321900796427270
 Root    778 :    83.542025675719880
 Root    779 :    83.723354651504910
 Root    780 :    83.723372603958070
 Root    781 :    83.946530283028960
 Root    782 :    84.242642883346310
 Root    783 :    84.410978970358970
 Root    784 :    84.411173345869950
 Root    785 :    84.944481097547210
 Root    786 :    85.010745433057010
 Root    787 :    85.070725814673720
 Root    788 :    85.070897193748020
 Root    789 :    86.165938653531200
 Root    790 :    86.166011444677880
 Root    791 :    86.611296474134280
 Root    792 :    86.611308125722620
 Root    793 :    86.669212230048270
 Root    794 :    86.669439178846250
 Root    795 :    86.784741126570960
 Root    796 :    86.784881111128900
 Root    797 :    86.967169632447810
 Root    798 :    86.967210780427780
 Root    799 :    87.223605648970040
 Root    800 :    87.223829304174000
 Root    801 :    87.440952241229950
 Root    802 :    87.441126011525570
 Root    803 :    87.548439007923460
 Root    804 :    87.548650141898660
 Root    805 :    88.328615456411700
 Root    806 :    88.328788621170800
 Root    807 :    89.029997615445100
 Root    808 :    89.561943485847450
 Root    809 :    89.616227695342300
 Root    810 :    89.674156826882610
 Root    811 :    89.710709223074670
 Root    812 :    89.710724972757320
 Root    813 :    89.884501277633770
 Root    814 :    89.952601000248830
 Root    815 :    89.965641744803790
 Root    816 :    90.071868642782720
 Root    817 :    90.071869887833980
 Root    818 :    90.312527455321240
 Root    819 :    91.249133252401720
 Root    820 :    91.292692832753830
 Root    821 :    91.643038410371360
 Root    822 :    91.643122515859060
 Root    823 :    92.075788594398330
 Root    824 :    92.078451853515530
 Root    825 :    92.148670707122050
 Root    826 :    92.148741341593150
 Root    827 :    92.695478803814950
 Root    828 :    92.695551383471540
 Root    829 :    94.125931356409280
 Root    830 :    94.332060727687920
 Root    831 :    94.332400903309410
 Root    832 :    94.452424347012270
 Root    833 :    94.601290548163960
 Root    834 :    94.601299848113560
 Root    835 :    94.607087451139550
 Root    836 :    94.607508352136850
 Root    837 :    94.676962817603480
 Root    838 :    95.263329859631780
 Root    839 :    95.263951289409850
 Root    840 :    95.969808279856740
[...]
     12   0.461769D-01 -0.382501D-01  0.896922D-01 -0.128705D+00  0.150133D-01
     13  -0.109697D-04 -0.131811D-03  0.139928D-03  0.450971D-05  0.165476D-04
     14   0.383012D-01  0.465863D-01 -0.128638D+00 -0.897929D-01 -0.380422D-01
     15   0.000000D+00  0.000000D+00  0.000000D+00  0.000000D+00  0.000000D+00
     16   0.000000D+00  0.000000D+00  0.000000D+00  0.000000D+00  0.000000D+00
               796           797           798           799           800 
      1  -0.114653D+03 -0.114647D+03 -0.114647D+03 -0.114637D+03 -0.114637D+03
      2   0.456709D-01  0.261959D-02 -0.257832D-01  0.000000D+00  0.000000D+00
      3   0.213623D-02 -0.257138D-01 -0.263138D-02  0.000000D+00  0.000000D+00
      4   0.000000D+00  0.000000D+00  0.000000D+00 -0.118251D-05  0.000000D+00
      5  -0.927522D-01 -0.791765D-02  0.782871D-01  0.000000D+00  0.000000D+00
      6  -0.412370D-02  0.781378D-01  0.795269D-02  0.000000D+00  0.000000D+00
      7   0.000000D+00  0.000000D+00  0.000000D+00  0.378096D-05  0.000000D+00
      8   0.000000D+00  0.000000D+00  0.000000D+00 -0.213561D-01 -0.705176D-02
      9   0.000000D+00  0.000000D+00  0.000000D+00 -0.706235D-02  0.213975D-01
     10  -0.378861D-04 -0.123084D-05  0.218690D-04  0.000000D+00  0.000000D+00
     11   0.375681D-01  0.284786D+00 -0.588498D+00  0.000000D+00  0.000000D+00
     12  -0.373626D-01 -0.284569D+00  0.587933D+00  0.000000D+00  0.000000D+00
     13   0.241110D-04 -0.898883D-04 -0.715975D-04  0.000000D+00  0.000000D+00
     14  -0.148049D-01  0.588140D+00  0.284718D+00  0.000000D+00  0.000000D+00
     15   0.000000D+00  0.000000D+00  0.000000D+00  0.620011D-01 -0.188204D+00
     16   0.000000D+00  0.000000D+00  0.000000D+00 -0.188210D+00 -0.619956D-01
               801           802           803           804           805 
      1  -0.114629D+03 -0.114629D+03 -0.114625D+03 -0.114625D+03 -0.114597D+03
      2   0.000000D+00  0.000000D+00  0.000000D+00  0.000000D+00  0.000000D+00
      3   0.000000D+00  0.000000D+00  0.000000D+00  0.000000D+00  0.000000D+00
      4   0.662637D-05  0.341136D-05 -0.505545D-05  0.256206D-05 -0.229731D-05
      5   0.000000D+00  0.000000D+00  0.000000D+00  0.000000D+00  0.000000D+00
      6   0.000000D+00  0.000000D+00  0.000000D+00  0.000000D+00  0.000000D+00
      7  -0.213406D-04 -0.112544D-04  0.129211D-04 -0.646759D-05  0.782449D-05
      8  -0.682777D-02  0.116036D+00  0.260607D-02  0.663086D-01  0.324870D+00
      9   0.116087D+00  0.682017D-02 -0.661980D-01  0.262321D-02 -0.317799D-01
     10   0.000000D+00  0.000000D+00  0.000000D+00  0.000000D+00  0.000000D+00
     11   0.000000D+00  0.000000D+00  0.000000D+00  0.000000D+00  0.000000D+00
     12   0.000000D+00  0.000000D+00  0.000000D+00  0.000000D+00  0.000000D+00
     13   0.000000D+00  0.000000D+00  0.000000D+00  0.000000D+00  0.000000D+00
     14   0.000000D+00  0.000000D+00  0.000000D+00  0.000000D+00  0.000000D+00
     15   0.172454D+00  0.978659D-02  0.122021D+00 -0.475477D-02  0.463408D-01
     16   0.978469D-02 -0.172527D+00  0.476209D-02  0.121908D+00  0.467406D+00
               806           807           808           809           810 
      1  -0.114597D+03 -0.114571D+03 -0.114551D+03 -0.114549D+03 -0.114547D+03
      2   0.000000D+00 -0.106614D-04  0.000000D+00  0.000000D+00 -0.105760D-03
      3   0.000000D+00 -0.217547D-04  0.000000D+00  0.000000D+00  0.982715D-04
      4  -0.712143D-05  0.000000D+00 -0.124232D+00 -0.202396D-04  0.000000D+00
      5   0.000000D+00  0.291645D-04  0.000000D+00  0.000000D+00  0.231184D-03
      6   0.000000D+00  0.624545D-04  0.000000D+00  0.000000D+00 -0.207045D-03
      7   0.152452D-04  0.000000D+00  0.355964D+00  0.620864D-04  0.000000D+00
      8  -0.317643D-01  0.000000D+00 -0.170347D-05  0.988522D-05  0.000000D+00
      9  -0.324833D+00  0.000000D+00  0.196020D-04 -0.368242D-05  0.000000D+00
     10   0.000000D+00 -0.768315D+00  0.000000D+00  0.000000D+00 -0.132818D-02
     11   0.000000D+00  0.210961D-03  0.000000D+00  0.000000D+00  0.916701D-01
     12   0.000000D+00  0.245443D-03  0.000000D+00  0.000000D+00  0.930348D-01
     13   0.000000D+00 -0.215023D-03  0.000000D+00  0.000000D+00  0.484174D+00
     14   0.000000D+00  0.364301D-04  0.000000D+00  0.000000D+00 -0.295877D-03
     15   0.467350D+00  0.000000D+00 -0.547585D-04  0.229634D-04  0.000000D+00
     16  -0.463443D-01  0.000000D+00  0.297832D-04  0.380818D-04  0.000000D+00
               811           812           813           814           815 
      1  -0.114546D+03 -0.114546D+03 -0.114540D+03 -0.114537D+03 -0.114537D+03
      2  -0.312168D-01  0.659276D-02 -0.299107D-04 -0.566652D-04 -0.145229D-03
      3  -0.659401D-02 -0.312335D-01 -0.658346D-04 -0.244381D-03  0.207781D-04
      4   0.000000D+00  0.000000D+00  0.000000D+00  0.000000D+00  0.000000D+00
      5   0.661045D-01 -0.139009D-01  0.828999D-04  0.181228D-03  0.452382D-03
      6   0.139035D-01  0.661419D-01  0.213233D-03  0.775031D-03 -0.609871D-04
      7   0.000000D+00  0.000000D+00  0.000000D+00  0.000000D+00  0.000000D+00
      8   0.000000D+00  0.000000D+00  0.000000D+00  0.000000D+00  0.000000D+00
      9   0.000000D+00  0.000000D+00  0.000000D+00  0.000000D+00  0.000000D+00
     10   0.206898D-03  0.642848D-04 -0.134998D+00  0.849796D+00  0.649256D-03
     11  -0.139648D+00  0.872252D-01 -0.311615D-02 -0.661144D-03 -0.544809D+00
     12   0.139320D+00 -0.865973D-01 -0.295161D-02 -0.494343D-03 -0.545618D+00
     13  -0.121358D-02  0.173063D-02  0.363807D-03 -0.215658D-02  0.305867D-01
     14   0.869530D-01  0.139319D+00 -0.604906D-04 -0.721296D-03 -0.790125D-04
     15   0.000000D+00  0.000000D+00  0.000000D+00  0.000000D+00  0.000000D+00
     16   0.000000D+00  0.000000D+00  0.000000D+00  0.000000D+00  0.000000D+00
               816           817           818           819           820 
      1  -0.114533D+03 -0.114533D+03 -0.114524D+03 -0.114489D+03 -0.114488D+03
      2   0.427760D-02  0.814694D-01 -0.519081D-04 -0.250516D-05  0.000000D+00
      3  -0.814885D-01  0.428124D-02  0.398839D-05  0.942427D-05  0.000000D+00
      4   0.000000D+00  0.000000D+00  0.000000D+00  0.000000D+00 -0.183836D+00
      5  -0.134897D-01 -0.257050D+00  0.166574D-03  0.203607D-05  0.000000D+00
      6   0.257101D+00 -0.134985D-01 -0.125193D-04 -0.312177D-04  0.000000D+00
      7   0.000000D+00  0.000000D+00  0.000000D+00  0.000000D+00  0.532328D+00
      8   0.000000D+00  0.000000D+00  0.000000D+00  0.000000D+00 -0.149909D-03
      9   0.000000D+00  0.000000D+00  0.000000D+00  0.000000D+00 -0.251505D-03
     10  -0.238382D-02  0.693926D-03 -0.245989D-03  0.128380D-04  0.000000D+00
     11  -0.988272D-01 -0.229425D+00 -0.291626D+00 -0.289335D+00  0.000000D+00
     12   0.984193D-01  0.227257D+00 -0.291841D+00 -0.289257D+00  0.000000D+00
     13  -0.542064D-05 -0.664793D-04 -0.279332D+00 -0.331525D-01  0.000000D+00
     14  -0.228379D+00  0.986168D-01 -0.253993D-04  0.300580D-04  0.000000D+00
     15   0.000000D+00  0.000000D+00  0.000000D+00  0.000000D+00  0.236527D-03
     16   0.000000D+00  0.000000D+00  0.000000D+00  0.000000D+00  0.510882D-04
               821           822           823           824           825 
      1  -0.114475D+03 -0.114475D+03 -0.114459D+03 -0.114459D+03 -0.114456D+03
      2   0.000000D+00  0.000000D+00  0.000000D+00  0.000000D+00  0.630506D-01
      3   0.000000D+00  0.000000D+00  0.000000D+00  0.000000D+00  0.460159D-02
      4  -0.155115D-03 -0.115553D-04  0.100930D-03  0.192368D-01  0.000000D+00
      5   0.000000D+00  0.000000D+00  0.000000D+00  0.000000D+00 -0.132911D+00
      6   0.000000D+00  0.000000D+00  0.000000D+00  0.000000D+00 -0.959125D-02
      7   0.439683D-03  0.350864D-04 -0.308988D-03 -0.213710D-01  0.000000D+00
      8   0.299141D-01  0.266722D+00  0.117639D-03 -0.359305D-04  0.000000D+00
      9   0.266732D+00 -0.300162D-01 -0.326969D-04  0.114174D-03  0.000000D+00
     10   0.000000D+00  0.000000D+00  0.000000D+00  0.000000D+00 -0.456676D-05
     11   0.000000D+00  0.000000D+00  0.000000D+00  0.000000D+00 -0.628387D+00
     12   0.000000D+00  0.000000D+00  0.000000D+00  0.000000D+00  0.628326D+00
     13   0.000000D+00  0.000000D+00  0.000000D+00  0.000000D+00 -0.749765D-05
     14   0.000000D+00  0.000000D+00  0.000000D+00  0.000000D+00  0.281602D+00
     15  -0.382008D+00  0.437304D-01  0.407188D-04 -0.133487D-03  0.000000D+00
     16   0.438348D-01  0.381983D+00  0.200490D-03  0.449994D-04  0.000000D+00
               826           827           828           829           830 
      1  -0.114456D+03 -0.114436D+03 -0.114436D+03 -0.114384D+03 -0.114376D+03
      2   0.460169D-02  0.000000D+00  0.000000D+00  0.000000D+00 -0.419907D-02
      3  -0.630457D-01  0.000000D+00  0.000000D+00  0.000000D+00 -0.592747D-01
      4   0.000000D+00 -0.627010D-05  0.385298D-04 -0.620544D-04  0.000000D+00
      5  -0.959192D-02  0.000000D+00  0.000000D+00  0.000000D+00  0.115332D-01
      6   0.132900D+00  0.000000D+00  0.000000D+00  0.000000D+00  0.163582D+00
      7   0.000000D+00  0.169140D-04 -0.107861D-03  0.207870D-03  0.000000D+00
      8   0.000000D+00  0.272647D+00 -0.153947D-01  0.705829D-04  0.000000D+00
      9   0.000000D+00 -0.154187D-01 -0.272661D+00 -0.320791D-04  0.000000D+00
     10   0.813658D-05  0.000000D+00  0.000000D+00  0.000000D+00  0.117005D-03
     11  -0.281684D+00  0.000000D+00  0.000000D+00  0.000000D+00 -0.295497D-01
     12   0.281557D+00  0.000000D+00  0.000000D+00  0.000000D+00  0.296050D-01
     13   0.602742D-04  0.000000D+00  0.000000D+00  0.000000D+00 -0.147405D-04
     14  -0.628408D+00  0.000000D+00  0.000000D+00  0.000000D+00 -0.104064D+00
     15   0.000000D+00  0.170369D-02  0.248880D-01  0.683269D-04  0.000000D+00
     16   0.000000D+00  0.248810D-01 -0.172348D-02  0.127486D-03  0.000000D+00
               831           832           833           834           835 
      1  -0.114376D+03 -0.114372D+03 -0.114366D+03 -0.114366D+03 -0.114366D+03
      2  -0.592683D-01  0.000000D+00  0.000000D+00  0.000000D+00  0.212654D-03
      3   0.419757D-02  0.000000D+00  0.000000D+00  0.000000D+00  0.413769D-02
      4   0.000000D+00 -0.200235D-03 -0.255671D-03 -0.396113D-04  0.000000D+00
      5   0.163547D+00  0.000000D+00  0.000000D+00  0.000000D+00 -0.187671D-02
      6  -0.115271D-01  0.000000D+00  0.000000D+00  0.000000D+00 -0.307329D-01
      7   0.000000D+00  0.672265D-03  0.872299D-03  0.133387D-03  0.000000D+00
      8   0.000000D+00  0.736333D-03 -0.211747D+00  0.237590D+00  0.000000D+00
      9   0.000000D+00 -0.423833D-03 -0.237616D+00 -0.211789D+00  0.000000D+00
     10   0.325596D-04  0.000000D+00  0.000000D+00  0.000000D+00 -0.910880D-04
     11   0.104006D+00  0.000000D+00  0.000000D+00  0.000000D+00  0.703822D-02
     12  -0.104083D+00  0.000000D+00  0.000000D+00  0.000000D+00 -0.704026D-02
     13  -0.107149D-04  0.000000D+00  0.000000D+00  0.000000D+00  0.102080D-04
     14  -0.295639D-01  0.000000D+00  0.000000D+00  0.000000D+00  0.268065D-01
     15   0.000000D+00  0.730801D-03  0.404748D+00  0.360905D+00  0.000000D+00
     16   0.000000D+00  0.128756D-02 -0.360879D+00  0.404731D+00  0.000000D+00
               836           837           838           839           840 
      1  -0.114366D+03 -0.114363D+03 -0.114342D+03 -0.114342D+03 -0.114316D+03
      2   0.418162D-02  0.000000D+00  0.000000D+00  0.000000D+00  0.793131D-04
      3  -0.218540D-03  0.000000D+00  0.000000D+00  0.000000D+00 -0.391980D-04
      4   0.000000D+00 -0.713550D-01 -0.771493D-05 -0.208590D-05  0.000000D+00
      5  -0.308511D-01  0.000000D+00  0.000000D+00  0.000000D+00 -0.281179D-03
      6   0.189199D-02  0.000000D+00  0.000000D+00  0.000000D+00  0.138650D-03
      7   0.000000D+00  0.246045D+00  0.257525D-04  0.870331D-05  0.000000D+00
      8   0.000000D+00  0.596405D-03 -0.337359D+00  0.275850D-01  0.000000D+00
      9   0.000000D+00  0.843769D-03  0.275780D-01  0.337337D+00  0.000000D+00
     10  -0.275027D-04  0.000000D+00  0.000000D+00  0.000000D+00  0.662136D-03
     11  -0.268506D-01  0.000000D+00  0.000000D+00  0.000000D+00 -0.631285D+00
     12   0.268998D-01  0.000000D+00  0.000000D+00  0.000000D+00 -0.631785D+00
     13  -0.197668D-04  0.000000D+00  0.000000D+00  0.000000D+00 -0.147394D+00
     14   0.705554D-02  0.000000D+00  0.000000D+00  0.000000D+00  0.344247D-04
     15   0.000000D+00 -0.146141D-02 -0.399843D-01 -0.493504D+00  0.000000D+00
     16   0.000000D+00  0.102164D-02 -0.493532D+00  0.399728D-01  0.000000D+00
               841           842           843           844           845 
      1  -0.114306D+03 -0.114306D+03 -0.114293D+03 -0.114293D+03 -0.114291D+03
      2  -0.103537D-02 -0.584904D-01  0.916360D-02 -0.291179D-01  0.348867D-04
      3   0.584883D-01 -0.103757D-02 -0.291253D-01 -0.916092D-02  0.519544D-04
      4   0.000000D+00  0.000000D+00  0.000000D+00  0.000000D+00  0.000000D+00
      5   0.367266D-02  0.205747D+00 -0.346061D-01  0.109909D+00 -0.127777D-03
      6  -0.205735D+00  0.368026D-02  0.109932D+00  0.345960D-01 -0.190713D-03
      7   0.000000D+00  0.000000D+00  0.000000D+00  0.000000D+00  0.000000D+00
      8   0.000000D+00  0.000000D+00  0.000000D+00  0.000000D+00  0.000000D+00
      9   0.000000D+00  0.000000D+00  0.000000D+00  0.000000D+00  0.000000D+00
     10  -0.119812D-03  0.990337D-05  0.283199D-04  0.371342D-04  0.390746D-01
     11  -0.715618D-01 -0.183990D+00  0.828293D-01 -0.107553D+00  0.140157D-02
     12   0.706621D-01  0.182495D+00 -0.826403D-01  0.107497D+00  0.129469D-02
     13   0.716034D-05 -0.203726D-03  0.295655D-04 -0.398167D-04 -0.208113D-02
     14  -0.183266D+00  0.711129D-01  0.107578D+00  0.827191D-01 -0.231103D-03
     15   0.000000D+00  0.000000D+00  0.000000D+00  0.000000D+00  0.000000D+00
     16   0.000000D+00  0.000000D+00  0.000000D+00  0.000000D+00  0.000000D+00
               846           847           848           849           850 
      1  -0.114253D+03 -0.114252D+03 -0.114252D+03 -0.114243D+03 -0.114216D+03
      2  -0.411536D-03  0.368992D-01 -0.499712D-02 -0.804996D-05 -0.101168D-05
      3   0.852912D-04 -0.499625D-02 -0.368944D-01 -0.435323D-04  0.119291D-05
      4   0.000000D+00  0.000000D+00  0.000000D+00  0.000000D+00  0.000000D+00
      5   0.104007D-02 -0.931928D-01  0.126899D-01  0.216445D-04  0.201888D-05
      6  -0.214650D-03  0.126866D-01  0.931764D-01  0.112690D-03 -0.451691D-05
      7   0.000000D+00  0.000000D+00  0.000000D+00  0.000000D+00  0.000000D+00
      8   0.000000D+00  0.000000D+00  0.000000D+00  0.000000D+00  0.000000D+00
      9   0.000000D+00  0.000000D+00  0.000000D+00  0.000000D+00  0.000000D+00
     10   0.353570D-03  0.373067D-04 -0.202942D-03  0.355597D-01  0.211601D-01
     11   0.836298D+00  0.384067D+00  0.855128D-01  0.290366D-02  0.310694D-04
     12   0.844979D+00 -0.365188D+00 -0.839588D-01  0.273370D-02  0.541455D-04
     13  -0.114418D+00 -0.132543D-02 -0.154607D-03 -0.351154D-03 -0.413696D-04
     14   0.628634D-03 -0.847545D-01  0.374622D+00  0.470529D-03 -0.341315D-04
     15   0.000000D+00  0.000000D+00  0.000000D+00  0.000000D+00  0.000000D+00
     16   0.000000D+00  0.000000D+00  0.000000D+00  0.000000D+00  0.000000D+00
               851           852           853           854           855 
      1  -0.114204D+03 -0.114204D+03 -0.114182D+03 -0.114174D+03 -0.114174D+03
      2   0.000000D+00  0.000000D+00  0.000000D+00  0.679133D-02 -0.765355D-01
      3   0.000000D+00  0.000000D+00  0.000000D+00 -0.765334D-01 -0.679118D-02
      4   0.540449D-05 -0.650466D-05  0.176673D+00  0.000000D+00  0.000000D+00
      5   0.000000D+00  0.000000D+00  0.000000D+00 -0.218796D-01  0.246503D+00
      6   0.000000D+00  0.000000D+00  0.000000D+00  0.246492D+00  0.218791D-01
      7  -0.205770D-04  0.260093D-04 -0.514958D+00  0.000000D+00  0.000000D+00
      8  -0.427414D+00 -0.404238D-01 -0.250121D-04  0.000000D+00  0.000000D+00
      9  -0.404228D-01  0.427447D+00 -0.534901D-04  0.000000D+00  0.000000D+00
     10   0.000000D+00  0.000000D+00  0.000000D+00 -0.598575D-04 -0.181686D-04
     11   0.000000D+00  0.000000D+00  0.000000D+00  0.831599D-01 -0.179286D+00
     12   0.000000D+00  0.000000D+00  0.000000D+00 -0.830780D-01  0.179177D+00
     13   0.000000D+00  0.000000D+00  0.000000D+00 -0.115021D-03  0.192166D-04
     14   0.000000D+00  0.000000D+00  0.000000D+00  0.179230D+00  0.831220D-01
     15   0.442564D-01 -0.470855D+00  0.673458D-04  0.000000D+00  0.000000D+00
     16  -0.470851D+00 -0.442546D-01 -0.491574D-04  0.000000D+00  0.000000D+00
               856           857           858           859           860 
      1  -0.114124D+03 -0.114096D+03 -0.114088D+03 -0.114088D+03 -0.114075D+03
      2   0.121305D-04  0.000000D+00  0.000000D+00  0.000000D+00  0.000000D+00
      3   0.000000D+00  0.000000D+00  0.000000D+00  0.000000D+00  0.000000D+00
      4   0.000000D+00  0.669320D-01  0.458289D-04  0.116562D-03 -0.433524D-03
      5  -0.416653D-04  0.000000D+00  0.000000D+00  0.000000D+00  0.000000D+00
      6   0.215334D-05  0.000000D+00  0.000000D+00  0.000000D+00  0.000000D+00
      7   0.000000D+00 -0.171887D+00 -0.118724D-03 -0.300992D-03  0.162344D-02
      8   0.000000D+00  0.169818D-03 -0.173657D+00 -0.191275D-01 -0.136505D-03
      9   0.000000D+00  0.292581D-03  0.190790D-01 -0.173662D+00  0.103521D-03
     10  -0.328410D-05  0.000000D+00  0.000000D+00  0.000000D+00  0.000000D+00
     11  -0.597393D-01  0.000000D+00  0.000000D+00  0.000000D+00  0.000000D+00
     12  -0.598526D-01  0.000000D+00  0.000000D+00  0.000000D+00  0.000000D+00
     13   0.135964D+00  0.000000D+00  0.000000D+00  0.000000D+00  0.000000D+00
     14  -0.192334D-05  0.000000D+00  0.000000D+00  0.000000D+00  0.000000D+00
     15   0.000000D+00 -0.275029D-03 -0.190481D-01  0.178111D+00  0.241266D-04
     16   0.000000D+00  0.169723D-03 -0.178079D+00 -0.189855D-01 -0.120836D-03
               861           862           863           864 
      1  -0.114007D+03 -0.114007D+03 -0.113839D+03 -0.113839D+03
      2   0.417561D-02  0.503441D-01  0.000000D+00  0.000000D+00
      3   0.503430D-01 -0.417544D-02  0.000000D+00  0.000000D+00
      4   0.000000D+00  0.000000D+00  0.229563D-05 -0.188642D-05
      5  -0.111917D-01 -0.136477D+00  0.000000D+00  0.000000D+00
      6  -0.136471D+00  0.111908D-01  0.000000D+00  0.000000D+00
      7   0.000000D+00  0.000000D+00 -0.575774D-05  0.358558D-05
      8   0.000000D+00  0.000000D+00  0.454980D+00  0.406860D-01
      9   0.000000D+00  0.000000D+00  0.406865D-01 -0.454984D+00
     10   0.116077D-04  0.659628D-04  0.000000D+00  0.000000D+00
     11  -0.299080D-01  0.110609D+00  0.000000D+00  0.000000D+00
     12   0.298905D-01 -0.110454D+00  0.000000D+00  0.000000D+00
     13   0.424584D-04 -0.478304D-04  0.000000D+00  0.000000D+00
     14  -0.110530D+00 -0.298979D-01  0.000000D+00  0.000000D+00
     15   0.000000D+00  0.000000D+00 -0.389808D-01  0.439831D+00
     16   0.000000D+00  0.000000D+00  0.439837D+00  0.389783D-01
 Unable to Open any file for archive entry.
 1\1\GINC-HEL23\SP\RTPSSTPSS TD-FC\Gen\C3H6\SABYASACHI\21-Mar-2022\0\\#
 P TD(Nstates=10000) tpsstpss/Gen SCF(maxcycles=100) Int(Grid=ultrafine
 )\\xGDB7_00001_tier4.com\\0,1\C,0,0.516845,0.69483,0.\C,0,-0.860166,0.
 100195,0.\C,0,0.343308,-0.795021,0.\H,0,0.866514,1.164858,0.909176\H,0
 ,0.866513,1.164859,-0.909176\H,0,-1.442047,0.167964,-0.909177\H,0,-1.4
 42048,0.167965,0.909176\H,0,0.575574,-1.332837,-0.909179\H,0,0.575574,
 -1.332837,0.909179\\Version=EM64L-G16RevC.01\State=1-A'\HF=-117.842780
 8\RMSD=4.615e-09\PG=CS [SG(C3),X(H6)]\\@
 The archive entry for this job was punched.


 FLOATING POINT NUMBERS ARE LIKE SANDPILES:
 EVERY TIME THAT YOU MOVE ONE, YOU LOSE A LITTLE SAND 
 AND YOU PICK UP A LITTLE DIRT.
 Job cpu time:       0 days  0 hours 20 minutes 44.8 seconds.
 Elapsed time:       0 days  0 hours  2 minutes 35.9 seconds.
 File lengths (MBytes):  RWF=    377 Int=      0 D2E=      0 Chk=    240 Scr=      1
 Normal termination of Gaussian 16 at Mon Mar 21 20:18:40 2022.
