 Entering Gaussian System, Link 0=g16
 Input=000022.com
 Output=000022.log
 Initial command:
 /home/sabyasachi/g16/l1.exe "/scratch/sabyasachi/PBS_7976552.helios/Gau-160683.inp" -scrdir="/scratch/sabyasachi/PBS_7976552.helios/"
 Entering Link 1 = /home/sabyasachi/g16/l1.exe PID=    160684.
  
 Copyright (c) 1988-2019, Gaussian, Inc.  All Rights Reserved.
  
 This is part of the Gaussian(R) 16 program.  It is based on
 the Gaussian(R) 09 system (copyright 2009, Gaussian, Inc.),
 the Gaussian(R) 03 system (copyright 2003, Gaussian, Inc.),
 the Gaussian(R) 98 system (copyright 1998, Gaussian, Inc.),
 the Gaussian(R) 94 system (copyright 1995, Gaussian, Inc.),
 the Gaussian 92(TM) system (copyright 1992, Gaussian, Inc.),
 the Gaussian 90(TM) system (copyright 1990, Gaussian, Inc.),
 the Gaussian 88(TM) system (copyright 1988, Gaussian, Inc.),
 the Gaussian 86(TM) system (copyright 1986, Carnegie Mellon
 University), and the Gaussian 82(TM) system (copyright 1983,
 Carnegie Mellon University). Gaussian is a federally registered
 trademark of Gaussian, Inc.
  
 This software contains proprietary and confidential information,
 including trade secrets, belonging to Gaussian, Inc.
  
 This software is provided under written license and may be
 used, copied, transmitted, or stored only in accord with that
 written license.
  
 The following legend is applicable only to US Government
 contracts under FAR:
  
                    RESTRICTED RIGHTS LEGEND
  
 Use, reproduction and disclosure by the US Government is
 subject to restrictions as set forth in subparagraphs (a)
 and (c) of the Commercial Computer Software - Restricted
 Rights clause in FAR 52.227-19.
  
 Gaussian, Inc.
 340 Quinnipiac St., Bldg. 40, Wallingford CT 06492
  
  
 ---------------------------------------------------------------
 Warning -- This program may not be used in any manner that
 competes with the business of Gaussian, Inc. or will provide
 assistance to any competitor of Gaussian, Inc.  The licensee
 of this program is prohibited from giving any competitor of
 Gaussian, Inc. access to this program.  By using this program,
 the user acknowledges that Gaussian, Inc. is engaged in the
 business of creating and licensing software in the field of
 computational chemistry and represents and warrants to the
 licensee that it is not a competitor of Gaussian, Inc. and that
 it will not use this program in any manner prohibited above.
 ---------------------------------------------------------------
  

 Cite this work as:
 Gaussian 16, Revision C.01,
 M. J. Frisch, G. W. Trucks, H. B. Schlegel, G. E. Scuseria, 
 M. A. Robb, J. R. Cheeseman, G. Scalmani, V. Barone, 
 G. A. Petersson, H. Nakatsuji, X. Li, M. Caricato, A. V. Marenich, 
 J. Bloino, B. G. Janesko, R. Gomperts, B. Mennucci, H. P. Hratchian, 
 J. V. Ortiz, A. F. Izmaylov, J. L. Sonnenberg, D. Williams-Young, 
 F. Ding, F. Lipparini, F. Egidi, J. Goings, B. Peng, A. Petrone, 
 T. Henderson, D. Ranasinghe, V. G. Zakrzewski, J. Gao, N. Rega, 
 G. Zheng, W. Liang, M. Hada, M. Ehara, K. Toyota, R. Fukuda, 
 J. Hasegawa, M. Ishida, T. Nakajima, Y. Honda, O. Kitao, H. Nakai, 
 T. Vreven, K. Throssell, J. A. Montgomery, Jr., J. E. Peralta, 
 F. Ogliaro, M. J. Bearpark, J. J. Heyd, E. N. Brothers, K. N. Kudin, 
 V. N. Staroverov, T. A. Keith, R. Kobayashi, J. Normand, 
 K. Raghavachari, A. P. Rendell, J. C. Burant, S. S. Iyengar, 
 J. Tomasi, M. Cossi, J. M. Millam, M. Klene, C. Adamo, R. Cammi, 
 J. W. Ochterski, R. L. Martin, K. Morokuma, O. Farkas, 
 J. B. Foresman, and D. J. Fox, Gaussian, Inc., Wallingford CT, 2019.
 
 ******************************************
 Gaussian 16:  EM64L-G16RevC.01  3-Jul-2019
                21-Mar-2022 
 ******************************************
 %mem=64gb
 %nproc=8
 Will use up to    8 processors via shared memory.
 ----------------------------------------------------------------------
 #P TD(Nstates=10000) tpsstpss/Gen SCF(maxcycles=100) Int(Grid=ultrafin
 e)
 ----------------------------------------------------------------------
 1/38=1,172=1/1;
 2/12=2,17=6,18=5,40=1/2;
 3/5=7,11=9,25=1,30=1,74=2523,75=-5/1,2,3,8;
 4//1;
 5/5=2,7=100,38=5/2;
 8/6=1,10=1,108=10000/1;
 9/41=10000,42=1,70=2/14;
 6/7=2,8=2,9=2,10=2/1;
 99/5=1,9=1/99;
 Leave Link    1 at Mon Mar 21 20:23:40 2022, MaxMem=  8589934592 cpu:               0.4 elap:               0.1
 (Enter /home/sabyasachi/g16/l101.exe)
 ---------------------
 xGDB7_00001_tier4.com
 ---------------------
 Symbolic Z-matrix:
 Charge =  0 Multiplicity = 1
 6                     0.92625  -0.71906   0. 
 6                     0.        0.45928   0. 
 8                    -1.197     0.38714   0. 
 1                     1.57597  -0.66868   0.8777 
 1                     1.57597  -0.66868  -0.8777 
 1                     0.36673  -1.65224   0. 
 1                     0.49981   1.45118   0. 
 
 ITRead=  0  0  0  0  0  0  0
 MicOpt= -1 -1 -1 -1 -1 -1 -1
 NAtoms=      7 NQM=        7 NQMF=       0 NMMI=      0 NMMIF=      0
                NMic=       0 NMicF=      0.
                    Isotopes and Nuclear Properties:
 (Nuclear quadrupole moments (NQMom) in fm**2, nuclear magnetic moments (NMagM)
  in nuclear magnetons)

  Atom         1           2           3           4           5           6           7
 IAtWgt=          12          12          16           1           1           1           1
 AtmWgt=  12.0000000  12.0000000  15.9949146   1.0078250   1.0078250   1.0078250   1.0078250
 NucSpn=           0           0           0           1           1           1           1
 AtZEff=  -0.0000000  -0.0000000  -0.0000000  -0.0000000  -0.0000000  -0.0000000  -0.0000000
 NQMom=    0.0000000   0.0000000   0.0000000   0.0000000   0.0000000   0.0000000   0.0000000
 NMagM=    0.0000000   0.0000000   0.0000000   2.7928460   2.7928460   2.7928460   2.7928460
 AtZNuc=   6.0000000   6.0000000   8.0000000   1.0000000   1.0000000   1.0000000   1.0000000
 Leave Link  101 at Mon Mar 21 20:23:40 2022, MaxMem=  8589934592 cpu:               0.6 elap:               0.1
 (Enter /home/sabyasachi/g16/l202.exe)
                          Input orientation:                          
 ---------------------------------------------------------------------
 Center     Atomic      Atomic             Coordinates (Angstroms)
 Number     Number       Type             X           Y           Z
 ---------------------------------------------------------------------
      1          6           0        0.926252   -0.719055    0.000000
      2          6           0        0.000000    0.459276    0.000000
      3          8           0       -1.196998    0.387135    0.000000
      4          1           0        1.575966   -0.668677    0.877698
      5          1           0        1.575966   -0.668677   -0.877698
      6          1           0        0.366734   -1.652236    0.000000
      7          1           0        0.499812    1.451182    0.000000
 ---------------------------------------------------------------------
                    Distance matrix (angstroms):
                    1          2          3          4          5
     1  C    0.000000
     2  C    1.498802   0.000000
     3  O    2.394128   1.199170   0.000000
     4  H    1.093170   2.127510   3.094256   0.000000
     5  H    1.093170   2.127510   3.094256   1.755396   0.000000
     6  H    1.088066   2.143123   2.569882   1.788850   1.788850
     7  H    2.211737   1.110716   2.002838   2.534218   2.534218
                    6          7
     6  H    0.000000
     7  H    3.106270   0.000000
 Stoichiometry    C2H4O
 Framework group  CS[SG(C2H2O),X(H2)]
 Deg. of freedom    10
 Full point group                 CS      NOp   2
 Largest Abelian subgroup         CS      NOp   2
 Largest concise Abelian subgroup CS      NOp   2
                         Standard orientation:                         
 ---------------------------------------------------------------------
 Center     Atomic      Atomic             Coordinates (Angstroms)
 Number     Number       Type             X           Y           Z
 ---------------------------------------------------------------------
      1          6           0        0.926251   -0.719055    0.000000
      2          6           0        0.000000    0.459276    0.000000
      3          8           0       -1.196998    0.387136    0.000000
      4          1           0        1.575965   -0.668678    0.877698
      5          1           0        1.575965   -0.668678   -0.877698
      6          1           0        0.366733   -1.652236    0.000000
      7          1           0        0.499813    1.451182    0.000000
 ---------------------------------------------------------------------
 Rotational constants (GHZ):          57.4985089          10.2267038           9.1717854
 Leave Link  202 at Mon Mar 21 20:23:40 2022, MaxMem=  8589934592 cpu:               0.1 elap:               0.0
 (Enter /home/sabyasachi/g16/l301.exe)
 General basis read from cards:  (5D, 7F)
 Centers:       4      5      6      7
 S 3 1.00
     Exponent=  1.3010701000D+01 Coefficients=  1.9682158000D-02
     Exponent=  1.9622572000D+00 Coefficients=  1.3796524000D-01
     Exponent=  4.4453796000D-01 Coefficients=  4.7831935000D-01
 S 1 1.00
     Exponent=  1.2194962000D-01 Coefficients=  1.0000000000D+00
 P 1 1.00
     Exponent=  8.0000000000D-01 Coefficients=  1.0000000000D+00
 P 1 1.00
     Exponent=  1.1704099050D-01 Coefficients=  1.0000000000D+00
 ****
 Centers:       1      2
 S 5 1.00
     Exponent=  1.2384016938D+03 Coefficients=  5.4568832082D-03
     Exponent=  1.8629004992D+02 Coefficients=  4.0638409211D-02
     Exponent=  4.2251176346D+01 Coefficients=  1.8025593888D-01
     Exponent=  1.1676557932D+01 Coefficients=  4.6315121755D-01
     Exponent=  3.5930506482D+00 Coefficients=  4.4087173314D-01
 S 1 1.00
     Exponent=  4.0245147363D-01 Coefficients=  1.0000000000D+00
 S 1 1.00
     Exponent=  1.3090182668D-01 Coefficients=  1.0000000000D+00
 S 1 1.00
     Exponent=  6.7053540256D-02 Coefficients=  1.0000000000D+00
 P 3 1.00
     Exponent=  9.4680970621D+00 Coefficients=  3.8387871728D-02
     Exponent=  2.0103545142D+00 Coefficients=  2.1117025112D-01
     Exponent=  5.4771004707D-01 Coefficients=  5.1328172114D-01
 P 1 1.00
     Exponent=  1.5268613795D-01 Coefficients=  1.0000000000D+00
 D 1 1.00
     Exponent=  8.0000000000D-01 Coefficients=  1.0000000000D+00
 D 1 1.00
     Exponent=  1.1713185140D-01 Coefficients=  1.0000000000D+00
 ****
 Centers:       3
 S 5 1.00
     Exponent=  2.2661767785D+03 Coefficients= -5.3431809926D-03
     Exponent=  3.4087010191D+02 Coefficients= -3.9890039230D-02
     Exponent=  7.7363135167D+01 Coefficients= -1.7853911985D-01
     Exponent=  2.1479644940D+01 Coefficients= -4.6427684959D-01
     Exponent=  6.6589433124D+00 Coefficients= -4.4309745172D-01
 S 1 1.00
     Exponent=  8.0975975668D-01 Coefficients=  1.0000000000D+00
 S 1 1.00
     Exponent=  2.5530772234D-01 Coefficients=  1.0000000000D+00
 S 1 1.00
     Exponent=  7.6572453250D-02 Coefficients=  1.0000000000D+00
 P 3 1.00
     Exponent=  1.7721504317D+01 Coefficients=  4.3394573193D-02
     Exponent=  3.8635505440D+00 Coefficients=  2.3094120765D-01
     Exponent=  1.0480920883D+00 Coefficients=  5.1375311064D-01
 P 1 1.00
     Exponent=  2.7641544411D-01 Coefficients=  1.0000000000D+00
 P 1 1.00
     Exponent=  6.9002276350D-02 Coefficients=  1.0000000000D+00
 D 1 1.00
     Exponent=  1.2000000000D+00 Coefficients=  1.0000000000D+00
 D 1 1.00
     Exponent=  1.7992024323D-01 Coefficients=  1.0000000000D+00
 ****
 Ernie: Thresh=  0.10000D-02 Tol=  0.10000D-05 Strict=F.
 There are    70 symmetry adapted cartesian basis functions of A'  symmetry.
 There are    31 symmetry adapted cartesian basis functions of A"  symmetry.
 There are    64 symmetry adapted basis functions of A'  symmetry.
 There are    31 symmetry adapted basis functions of A"  symmetry.
    95 basis functions,   139 primitive gaussians,   101 cartesian basis functions
    12 alpha electrons       12 beta electrons
       nuclear repulsion energy        69.9674668624 Hartrees.
 IExCor= 2523 DFT=T Ex=TPSS Corr=TPSS ExCW=0 ScaHFX=  0.000000
 ScaDFX=  1.000000  1.000000  1.000000  1.000000 ScalE2=  1.000000  1.000000
 IRadAn=      5 IRanWt=     -1 IRanGd=            0 ICorTp=0 IEmpDi=  4
 NAtoms=    7 NActive=    7 NUniq=    6 SFac= 1.36D+00 NAtFMM=   60 NAOKFM=F Big=F
 Integral buffers will be    131072 words long.
 Regular integral format.
 Two-electron integral symmetry is turned on.
 Leave Link  301 at Mon Mar 21 20:23:40 2022, MaxMem=  8589934592 cpu:               0.6 elap:               0.1
 (Enter /home/sabyasachi/g16/l302.exe)
 NPDir=0 NMtPBC=     1 NCelOv=     1 NCel=       1 NClECP=     1 NCelD=      1
         NCelK=      1 NCelE2=     1 NClLst=     1 CellRange=     0.0.
 One-electron integrals computed using PRISM.
 One-electron integral symmetry used in STVInt
 NBasis=    95 RedAO= T EigKep=  2.98D-04  NBF=    64    31
 NBsUse=    95 1.00D-06 EigRej= -1.00D+00 NBFU=    64    31
 Precomputing XC quadrature grid using
 IXCGrd= 4 IRadAn=           5 IRanWt=          -1 IRanGd=           0 AccXCQ= 0.00D+00.
 Generated NRdTot=       0 NPtTot=           0 NUsed=           0 NTot=          32
 NSgBfM=   101   101   101   101   101 MxSgAt=     7 MxSgA2=     7.
 Leave Link  302 at Mon Mar 21 20:23:41 2022, MaxMem=  8589934592 cpu:               0.9 elap:               0.1
 (Enter /home/sabyasachi/g16/l303.exe)
 DipDrv:  MaxL=1.
 Leave Link  303 at Mon Mar 21 20:23:41 2022, MaxMem=  8589934592 cpu:               0.2 elap:               0.0
 (Enter /home/sabyasachi/g16/l308.exe)
 Leave Link  308 at Mon Mar 21 20:23:41 2022, MaxMem=  8589934592 cpu:               0.2 elap:               0.0
 (Enter /home/sabyasachi/g16/l401.exe)
 ExpMin= 6.71D-02 ExpMax= 2.27D+03 ExpMxC= 3.41D+02 IAcc=3 IRadAn=         5 AccDes= 0.00D+00
 Harris functional with IExCor= 1009 and IRadAn=       5 diagonalized for initial guess.
 HarFok:  IExCor= 1009 AccDes= 0.00D+00 IRadAn=         5 IDoV= 1 UseB2=F ITyADJ=14
 ICtDFT=  3500011 ScaDFX=  1.000000  1.000000  1.000000  1.000000
 FoFCou: FMM=F IPFlag=           0 FMFlag=      100000 FMFlg1=           0
         NFxFlg=           0 DoJE=T BraDBF=F KetDBF=T FulRan=T
         wScrn=  0.000000 ICntrl=       500 IOpCl=  0 I1Cent=   200000004 NGrid=           0
         NMat0=    1 NMatS0=      1 NMatT0=    0 NMatD0=    1 NMtDS0=    0 NMtDT0=    0
 Petite list used in FoFCou.
 Harris En= -153.604189165728    
 JPrj=0 DoOrth=F DoCkMO=F.
 Initial guess orbital symmetries:
       Occupied  (A') (A') (A') (A') (A') (A') (A') (A') (A") (A')
                 (A") (A')
       Virtual   (A") (A') (A') (A") (A') (A') (A') (A") (A') (A")
                 (A') (A') (A') (A") (A') (A") (A') (A') (A') (A")
                 (A') (A") (A') (A') (A') (A") (A') (A") (A') (A')
                 (A') (A") (A') (A') (A") (A") (A') (A') (A') (A")
                 (A') (A") (A') (A') (A') (A") (A') (A') (A") (A')
                 (A') (A') (A") (A') (A") (A') (A") (A") (A') (A")
                 (A') (A') (A') (A") (A') (A') (A") (A') (A') (A")
                 (A') (A') (A") (A') (A') (A') (A") (A") (A') (A')
                 (A") (A') (A')
 The electronic state of the initial guess is 1-A'.
 Leave Link  401 at Mon Mar 21 20:23:41 2022, MaxMem=  8589934592 cpu:               1.9 elap:               0.3
 (Enter /home/sabyasachi/g16/l502.exe)
 Keep J ints in memory in symmetry-blocked form, NReq=17829700.
 FoFCou: FMM=F IPFlag=           0 FMFlag=           0 FMFlg1=           0
         NFxFlg=           0 DoJE=F BraDBF=F KetDBF=F FulRan=T
         wScrn=  0.000000 ICntrl=       600 IOpCl=  0 I1Cent=           0 NGrid=           0
         NMat0=    1 NMatS0=   4560 NMatT0=    0 NMatD0=    1 NMtDS0=    0 NMtDT0=    0
 Petite list used in FoFCou.
 Closed shell SCF:
 Using DIIS extrapolation, IDIIS=  1040.
 NGot=  8589934592 LenX=  8584613300 LenY=  8584602658
 Requested convergence on RMS density matrix=1.00D-08 within 100 cycles.
 Requested convergence on MAX density matrix=1.00D-06.
 Requested convergence on             energy=1.00D-06.
 No special actions if energy rises.
 Integral accuracy reduced to 1.0D-05 until final iterations.

 Cycle   1  Pass 0  IDiag  1:
 E= -153.662426205058    
 DIIS: error= 2.84D-02 at cycle   1 NSaved=   1.
 NSaved= 1 IEnMin= 1 EnMin= -153.662426205058     IErMin= 1 ErrMin= 2.84D-02
 ErrMax= 2.84D-02  0.00D+00 EMaxC= 1.00D-01 BMatC= 9.22D-02 BMatP= 9.22D-02
 IDIUse=3 WtCom= 7.16D-01 WtEn= 2.84D-01
 Coeff-Com:  0.100D+01
 Coeff-En:   0.100D+01
 Coeff:      0.100D+01
 Gap=     0.095 Goal=   None    Shift=    0.000
 GapD=    0.095 DampG=0.500 DampE=0.500 DampFc=0.2500 IDamp=-1.
 Damping current iteration by 2.50D-01
 RMSDP=1.04D-02 MaxDP=2.12D-01              OVMax= 2.88D-01

 Cycle   2  Pass 0  IDiag  1:
 E= -153.691995141071     Delta-E=       -0.029568936014 Rises=F Damp=T
 DIIS: error= 1.35D-02 at cycle   2 NSaved=   2.
 NSaved= 2 IEnMin= 2 EnMin= -153.691995141071     IErMin= 2 ErrMin= 1.35D-02
 ErrMax= 1.35D-02  0.00D+00 EMaxC= 1.00D-01 BMatC= 1.36D-02 BMatP= 9.22D-02
 IDIUse=3 WtCom= 8.65D-01 WtEn= 1.35D-01
 Coeff-Com: -0.302D+00 0.130D+01
 Coeff-En:   0.000D+00 0.100D+01
 Coeff:     -0.261D+00 0.126D+01
 Gap=     0.153 Goal=   None    Shift=    0.000
 RMSDP=3.40D-03 MaxDP=7.52D-02 DE=-2.96D-02 OVMax= 2.22D-01

 Cycle   3  Pass 0  IDiag  1:
 E= -153.727792158061     Delta-E=       -0.035797016990 Rises=F Damp=F
 DIIS: error= 1.15D-02 at cycle   3 NSaved=   3.
 NSaved= 3 IEnMin= 3 EnMin= -153.727792158061     IErMin= 3 ErrMin= 1.15D-02
 ErrMax= 1.15D-02  0.00D+00 EMaxC= 1.00D-01 BMatC= 2.54D-02 BMatP= 1.36D-02
 IDIUse=2 WtCom= 0.00D+00 WtEn= 1.00D+00
 Coeff-En:   0.000D+00 0.000D+00 0.100D+01
 Coeff:      0.000D+00 0.000D+00 0.100D+01
 Gap=     0.127 Goal=   None    Shift=    0.000
 RMSDP=5.16D-03 MaxDP=1.30D-01 DE=-3.58D-02 OVMax= 2.49D-01

 Cycle   4  Pass 0  IDiag  1:
 E= -153.584831341240     Delta-E=        0.142960816821 Rises=F Damp=F
 DIIS: error= 3.33D-02 at cycle   4 NSaved=   4.
 NSaved= 4 IEnMin= 3 EnMin= -153.727792158061     IErMin= 3 ErrMin= 1.15D-02
 ErrMax= 3.33D-02  0.00D+00 EMaxC= 1.00D-01 BMatC= 1.97D-01 BMatP= 1.36D-02
 IDIUse=2 WtCom= 0.00D+00 WtEn= 1.00D+00
 Coeff-En:   0.000D+00 0.000D+00 0.819D+00 0.181D+00
 Coeff:      0.000D+00 0.000D+00 0.819D+00 0.181D+00
 Gap=     0.145 Goal=   None    Shift=    0.000
 RMSDP=2.79D-03 MaxDP=7.28D-02 DE= 1.43D-01 OVMax= 1.38D-01

 Cycle   5  Pass 0  IDiag  1:
 E= -153.737934869299     Delta-E=       -0.153103528059 Rises=F Damp=F
 DIIS: error= 8.36D-03 at cycle   5 NSaved=   5.
 NSaved= 5 IEnMin= 5 EnMin= -153.737934869299     IErMin= 5 ErrMin= 8.36D-03
 ErrMax= 8.36D-03  0.00D+00 EMaxC= 1.00D-01 BMatC= 1.49D-02 BMatP= 1.36D-02
 IDIUse=3 WtCom= 9.16D-01 WtEn= 8.36D-02
 Coeff-Com: -0.593D-01 0.100D+00 0.359D+00-0.748D-01 0.675D+00
 Coeff-En:   0.000D+00 0.000D+00 0.398D+00 0.000D+00 0.602D+00
 Coeff:     -0.543D-01 0.916D-01 0.362D+00-0.685D-01 0.669D+00
 Gap=     0.157 Goal=   None    Shift=    0.000
 RMSDP=1.14D-03 MaxDP=2.48D-02 DE=-1.53D-01 OVMax= 4.54D-02

 Cycle   6  Pass 0  IDiag  1:
 E= -153.751238812391     Delta-E=       -0.013303943092 Rises=F Damp=F
 DIIS: error= 1.81D-04 at cycle   6 NSaved=   6.
 NSaved= 6 IEnMin= 6 EnMin= -153.751238812391     IErMin= 6 ErrMin= 1.81D-04
 ErrMax= 1.81D-04  0.00D+00 EMaxC= 1.00D-01 BMatC= 9.11D-06 BMatP= 1.36D-02
 IDIUse=3 WtCom= 9.98D-01 WtEn= 1.81D-03
 Coeff-Com: -0.245D-01 0.348D-01 0.130D+00-0.360D-01 0.280D+00 0.615D+00
 Coeff-En:   0.000D+00 0.000D+00 0.000D+00 0.000D+00 0.000D+00 0.100D+01
 Coeff:     -0.244D-01 0.347D-01 0.130D+00-0.359D-01 0.280D+00 0.616D+00
 Gap=     0.157 Goal=   None    Shift=    0.000
 RMSDP=5.19D-05 MaxDP=1.19D-03 DE=-1.33D-02 OVMax= 1.20D-03

 Cycle   7  Pass 0  IDiag  1:
 E= -153.751247183200     Delta-E=       -0.000008370809 Rises=F Damp=F
 DIIS: error= 6.65D-05 at cycle   7 NSaved=   7.
 NSaved= 7 IEnMin= 7 EnMin= -153.751247183200     IErMin= 7 ErrMin= 6.65D-05
 ErrMax= 6.65D-05  0.00D+00 EMaxC= 1.00D-01 BMatC= 1.05D-06 BMatP= 9.11D-06
 IDIUse=1 WtCom= 1.00D+00 WtEn= 0.00D+00
 Coeff-Com: -0.304D-02 0.313D-02 0.258D-01-0.634D-02 0.532D-01 0.270D+00
 Coeff-Com:  0.657D+00
 Coeff:     -0.304D-02 0.313D-02 0.258D-01-0.634D-02 0.532D-01 0.270D+00
 Coeff:      0.657D+00
 Gap=     0.157 Goal=   None    Shift=    0.000
 RMSDP=1.37D-05 MaxDP=2.60D-04 DE=-8.37D-06 OVMax= 3.17D-04

 Cycle   8  Pass 0  IDiag  1:
 E= -153.751248228901     Delta-E=       -0.000001045701 Rises=F Damp=F
 DIIS: error= 1.20D-05 at cycle   8 NSaved=   8.
 NSaved= 8 IEnMin= 8 EnMin= -153.751248228901     IErMin= 8 ErrMin= 1.20D-05
 ErrMax= 1.20D-05  0.00D+00 EMaxC= 1.00D-01 BMatC= 1.20D-08 BMatP= 1.05D-06
 IDIUse=1 WtCom= 1.00D+00 WtEn= 0.00D+00
 Coeff-Com:  0.575D-04-0.185D-03 0.655D-03-0.397D-03 0.178D-02 0.452D-01
 Coeff-Com:  0.162D+00 0.791D+00
 Coeff:      0.575D-04-0.185D-03 0.655D-03-0.397D-03 0.178D-02 0.452D-01
 Coeff:      0.162D+00 0.791D+00
 Gap=     0.157 Goal=   None    Shift=    0.000
 RMSDP=2.35D-06 MaxDP=2.52D-05 DE=-1.05D-06 OVMax= 4.34D-05

 Initial convergence to 1.0D-05 achieved.  Increase integral accuracy.
 Cycle   9  Pass 1  IDiag  1:
 E= -153.751249866092     Delta-E=       -0.000001637192 Rises=F Damp=F
 DIIS: error= 3.31D-06 at cycle   1 NSaved=   1.
 NSaved= 1 IEnMin= 1 EnMin= -153.751249866092     IErMin= 1 ErrMin= 3.31D-06
 ErrMax= 3.31D-06  0.00D+00 EMaxC= 1.00D-01 BMatC= 1.15D-09 BMatP= 1.15D-09
 IDIUse=1 WtCom= 1.00D+00 WtEn= 0.00D+00
 Coeff-Com:  0.100D+01
 Coeff:      0.100D+01
 Gap=     0.157 Goal=   None    Shift=    0.000
 RMSDP=2.35D-06 MaxDP=2.52D-05 DE=-1.64D-06 OVMax= 2.14D-05

 Cycle  10  Pass 1  IDiag  1:
 E= -153.751249867282     Delta-E=       -0.000000001189 Rises=F Damp=F
 DIIS: error= 1.99D-06 at cycle   2 NSaved=   2.
 NSaved= 2 IEnMin= 2 EnMin= -153.751249867282     IErMin= 2 ErrMin= 1.99D-06
 ErrMax= 1.99D-06  0.00D+00 EMaxC= 1.00D-01 BMatC= 5.26D-10 BMatP= 1.15D-09
 IDIUse=1 WtCom= 1.00D+00 WtEn= 0.00D+00
 Coeff-Com:  0.381D+00 0.619D+00
 Coeff:      0.381D+00 0.619D+00
 Gap=     0.157 Goal=   None    Shift=    0.000
 RMSDP=4.70D-07 MaxDP=5.80D-06 DE=-1.19D-09 OVMax= 1.26D-05

 Cycle  11  Pass 1  IDiag  1:
 E= -153.751249867723     Delta-E=       -0.000000000441 Rises=F Damp=F
 DIIS: error= 1.03D-06 at cycle   3 NSaved=   3.
 NSaved= 3 IEnMin= 3 EnMin= -153.751249867723     IErMin= 3 ErrMin= 1.03D-06
 ErrMax= 1.03D-06  0.00D+00 EMaxC= 1.00D-01 BMatC= 1.83D-10 BMatP= 5.26D-10
 IDIUse=1 WtCom= 1.00D+00 WtEn= 0.00D+00
 Coeff-Com:  0.115D+00 0.372D+00 0.513D+00
 Coeff:      0.115D+00 0.372D+00 0.513D+00
 Gap=     0.157 Goal=   None    Shift=    0.000
 RMSDP=1.69D-07 MaxDP=5.34D-06 DE=-4.41D-10 OVMax= 8.36D-06

 Cycle  12  Pass 1  IDiag  1:
 E= -153.751249867814     Delta-E=       -0.000000000091 Rises=F Damp=F
 DIIS: error= 7.52D-07 at cycle   4 NSaved=   4.
 NSaved= 4 IEnMin= 4 EnMin= -153.751249867814     IErMin= 4 ErrMin= 7.52D-07
 ErrMax= 7.52D-07  0.00D+00 EMaxC= 1.00D-01 BMatC= 8.80D-11 BMatP= 1.83D-10
 IDIUse=1 WtCom= 1.00D+00 WtEn= 0.00D+00
 Coeff-Com:  0.943D-02 0.171D+00 0.411D+00 0.408D+00
 Coeff:      0.943D-02 0.171D+00 0.411D+00 0.408D+00
 Gap=     0.157 Goal=   None    Shift=    0.000
 RMSDP=8.02D-08 MaxDP=2.40D-06 DE=-9.08D-11 OVMax= 3.88D-06

 Cycle  13  Pass 1  IDiag  1:
 E= -153.751249867882     Delta-E=       -0.000000000068 Rises=F Damp=F
 DIIS: error= 1.31D-07 at cycle   5 NSaved=   5.
 NSaved= 5 IEnMin= 5 EnMin= -153.751249867882     IErMin= 5 ErrMin= 1.31D-07
 ErrMax= 1.31D-07  0.00D+00 EMaxC= 1.00D-01 BMatC= 2.29D-12 BMatP= 8.80D-11
 IDIUse=1 WtCom= 1.00D+00 WtEn= 0.00D+00
 Coeff-Com: -0.464D-02 0.598D-01 0.169D+00 0.221D+00 0.555D+00
 Coeff:     -0.464D-02 0.598D-01 0.169D+00 0.221D+00 0.555D+00
 Gap=     0.157 Goal=   None    Shift=    0.000
 RMSDP=1.95D-08 MaxDP=3.26D-07 DE=-6.80D-11 OVMax= 5.61D-07

 Cycle  14  Pass 1  IDiag  1:
 E= -153.751249867887     Delta-E=       -0.000000000005 Rises=F Damp=F
 DIIS: error= 1.02D-08 at cycle   6 NSaved=   6.
 NSaved= 6 IEnMin= 6 EnMin= -153.751249867887     IErMin= 6 ErrMin= 1.02D-08
 ErrMax= 1.02D-08  0.00D+00 EMaxC= 1.00D-01 BMatC= 1.09D-14 BMatP= 2.29D-12
 IDIUse=1 WtCom= 1.00D+00 WtEn= 0.00D+00
 Coeff-Com: -0.140D-02 0.124D-01 0.363D-01 0.471D-01 0.149D+00 0.756D+00
 Coeff:     -0.140D-02 0.124D-01 0.363D-01 0.471D-01 0.149D+00 0.756D+00
 Gap=     0.157 Goal=   None    Shift=    0.000
 RMSDP=2.03D-09 MaxDP=3.43D-08 DE=-4.58D-12 OVMax= 3.51D-08

 SCF Done:  E(RTPSS-TPSS) =  -153.751249868     A.U. after   14 cycles
            NFock= 14  Conv=0.20D-08     -V/T= 2.0094
 KE= 1.523165976667D+02 PE=-4.986010029341D+02 EE= 1.225656885371D+02
 Leave Link  502 at Mon Mar 21 20:23:43 2022, MaxMem=  8589934592 cpu:              18.3 elap:               2.4
 (Enter /home/sabyasachi/g16/l801.exe)
 DoSCS=F DFT=T ScalE2(SS,OS)=  1.000000  1.000000
 ExpMin= 6.71D-02 ExpMax= 2.27D+03 ExpMxC= 3.41D+02 IAcc=3 IRadAn=         5 AccDes= 0.00D+00
 HarFok:  IExCor=  205 AccDes= 0.00D+00 IRadAn=         5 IDoV=-2 UseB2=F ITyADJ=14
 ICtDFT= 12500011 ScaDFX=  1.000000  1.000000  1.000000  1.000000
 Largest valence mixing into a core orbital is  7.81D-05
 Largest core mixing into a valence orbital is  2.12D-05
 Range of M.O.s used for correlation:     4    95
 NBasis=    95 NAE=    12 NBE=    12 NFC=     3 NFV=     0
 NROrb=     92 NOA=     9 NOB=     9 NVA=    83 NVB=    83

 **** Warning!!: The largest alpha MO coefficient is  0.29320200D+02

 Leave Link  801 at Mon Mar 21 20:23:43 2022, MaxMem=  8589934592 cpu:               0.5 elap:               0.1
 (Enter /home/sabyasachi/g16/l914.exe)
 RHF ground state
 Keep J ints in memory in symmetry-blocked form, NReq=638135712.
 FoFCou: FMM=F IPFlag=           0 FMFlag=           0 FMFlg1=           0
         NFxFlg=           0 DoJE=F BraDBF=F KetDBF=F FulRan=T
         wScrn=  0.000000 ICntrl=       600 IOpCl=  0 I1Cent=           0 NGrid=           0
         NMat0=    1 NMatS0=   4560 NMatT0=    0 NMatD0=    1 NMtDS0=    0 NMtDT0=    0
 Petite list used in FoFCou.
 MDV=  8589934592 DFT=T DoStab=F Mixed=F DoRPA=T DoScal=T NonHer=F
 Making orbital integer symmetry assigments:
 Orbital symmetries:
       Occupied  (A') (A') (A') (A') (A') (A') (A') (A") (A') (A')
                 (A") (A')
       Virtual   (A") (A') (A') (A") (A') (A') (A") (A') (A') (A")
                 (A') (A') (A') (A") (A") (A') (A') (A') (A") (A')
                 (A") (A') (A') (A') (A') (A") (A') (A") (A') (A')
                 (A') (A") (A') (A") (A') (A") (A') (A') (A') (A")
                 (A") (A') (A') (A') (A') (A") (A') (A') (A") (A')
                 (A') (A') (A") (A') (A") (A') (A") (A") (A') (A")
                 (A') (A') (A') (A') (A") (A') (A") (A') (A') (A")
                 (A') (A') (A") (A') (A') (A') (A") (A') (A") (A')
                 (A") (A') (A')
   747 initial guesses have been made.
 Convergence on wavefunction:    0.001000000000000
 Davidson Disk Diagonalization:  ConvIn= 1.00D-03 SkipCon=T Conv= 1.00D-03.
 Max sub-space:  2988 roots to seek:  1494 dimension of matrix:         1494
 *** WARNING: Number of orthogonal guesses is          747
 Iteration     1 Dimension   747 NMult     0 NNew    747
 CISAX will form   747 AO SS matrices at one time.
 NMat=   747 NSing=   747 JSym2X=-1.
 New state      4 was old state      5
 New state      5 was old state      6
 New state      6 was old state      7
 New state      7 was old state      8
 New state      8 was old state      4
 New state      9 was old state     10
 New state     10 was old state     11
 New state     11 was old state      9
 New state     12 was old state     13
 New state     13 was old state     14
 New state     14 was old state     16
 New state     15 was old state     17
 New state     16 was old state     18
 New state     17 was old state     15
 New state     18 was old state     12
 New state     19 was old state     20
 New state     20 was old state     19
 New state     24 was old state     25
 New state     25 was old state     24
 New state     31 was old state     32
 New state     32 was old state     34
 New state     33 was old state     31
 New state     34 was old state     35
 New state     35 was old state     33
 New state     38 was old state     40
 New state     40 was old state     42
 New state     42 was old state     43
 New state     43 was old state     44
 New state     44 was old state     45
 New state     45 was old state     38
 New state     46 was old state     49
 New state     47 was old state     48
 New state     48 was old state     46
 New state     49 was old state     50
 New state     50 was old state     47
 New state     51 was old state     53
 New state     53 was old state     55
 New state     55 was old state     51
 New state     58 was old state     59
 New state     59 was old state     58
 New state     60 was old state     61
 New state     61 was old state     62
 New state     62 was old state     60
 New state     65 was old state     66
 New state     66 was old state     68
 New state     68 was old state     65
 New state     69 was old state     71
 New state     70 was old state     73
 New state     71 was old state     69
 New state     72 was old state     70
 New state     73 was old state     74
 New state     74 was old state     72
 New state     77 was old state     80
 New state     78 was old state     77
 New state     80 was old state     78
 New state     82 was old state     83
 New state     83 was old state     84
 New state     84 was old state     85
 New state     85 was old state     82
 New state     87 was old state     88
 New state     88 was old state     89
 New state     89 was old state     87
 New state     91 was old state     92
 New state     92 was old state     91
 New state     94 was old state     95
 New state     95 was old state     94
 New state     96 was old state     97
 New state     97 was old state     96
 New state     99 was old state    101
 New state    101 was old state     99
 New state    102 was old state    103
 New state    103 was old state    104
 New state    104 was old state    102
 New state    106 was old state    107
 New state    107 was old state    108
 New state    108 was old state    113
 New state    110 was old state    112
 New state    111 was old state    110
 New state    112 was old state    111
 New state    113 was old state    106
 New state    114 was old state    115
 New state    115 was old state    114
 New state    116 was old state    117
 New state    117 was old state    118
 New state    118 was old state    116
 New state    123 was old state    125
 New state    124 was old state    123
 New state    125 was old state    126
 New state    126 was old state    129
 New state    127 was old state    128
 New state    128 was old state    130
 New state    129 was old state    124
 New state    130 was old state    132
 New state    131 was old state    127
 New state    132 was old state    134
 New state    133 was old state    131
 New state    134 was old state    133
 New state    137 was old state    139
 New state    139 was old state    137
 New state    140 was old state    143
 New state    141 was old state    144
 New state    142 was old state    140
 New state    143 was old state    142
 New state    144 was old state    141
 New state    145 was old state    148
 New state    146 was old state    145
 New state    148 was old state    149
 New state    149 was old state    150
 New state    150 was old state    151
 New state    151 was old state    156
 New state    152 was old state    153
 New state    153 was old state    157
 New state    154 was old state    152
 New state    156 was old state    154
 New state    157 was old state    165
 New state    158 was old state    160
 New state    159 was old state    163
 New state    160 was old state    158
 New state    162 was old state    164
 New state    163 was old state    166
 New state    164 was old state    162
 New state    165 was old state    159
 New state    166 was old state    170
 New state    167 was old state    168
 New state    168 was old state    171
 New state    169 was old state    167
 New state    170 was old state    172
 New state    171 was old state    169
 New state    172 was old state    174
 New state    173 was old state    180
 New state    174 was old state    177
 New state    175 was old state    176
 New state    176 was old state    175
 New state    177 was old state    179
 New state    179 was old state    181
 New state    180 was old state    184
 New state    181 was old state    183
 New state    182 was old state    189
 New state    183 was old state    191
 New state    184 was old state    188
 New state    185 was old state    186
 New state    186 was old state    182
 New state    188 was old state    193
 New state    189 was old state    185
 New state    191 was old state    192
 New state    192 was old state    197
 New state    193 was old state    173
 New state    196 was old state    199
 New state    197 was old state    196
 New state    198 was old state    201
 New state    199 was old state    200
 New state    200 was old state    203
 New state    201 was old state    204
 New state    202 was old state    206
 New state    203 was old state    205
 New state    204 was old state    207
 New state    205 was old state    209
 New state    206 was old state    202
 New state    207 was old state    208
 New state    208 was old state    216
 New state    209 was old state    217
 New state    210 was old state    212
 New state    211 was old state    210
 New state    212 was old state    213
 New state    213 was old state    214
 New state    214 was old state    218
 New state    215 was old state    211
 New state    216 was old state    219
 New state    217 was old state    220
 New state    218 was old state    215
 New state    219 was old state    232
 New state    220 was old state    221
 New state    221 was old state    225
 New state    222 was old state    223
 New state    223 was old state    224
 New state    224 was old state    226
 New state    225 was old state    230
 New state    226 was old state    231
 New state    227 was old state    236
 New state    229 was old state    234
 New state    230 was old state    233
 New state    231 was old state    235
 New state    232 was old state    229
 New state    233 was old state    239
 New state    234 was old state    240
 New state    235 was old state    238
 New state    236 was old state    241
 New state    237 was old state    222
 New state    238 was old state    237
 New state    239 was old state    227
 New state    240 was old state    242
 New state    241 was old state    246
 New state    242 was old state    244
 New state    243 was old state    245
 New state    244 was old state    247
 New state    245 was old state    252
 New state    246 was old state    249
 New state    247 was old state    248
 No map to state    248
 New state    249 was old state    250
 New state    250 was old state    251
 New state    251 was old state    243
 New state    252 was old state    253
 New state    253 was old state    255
 New state    255 was old state    256
 New state    256 was old state    258
 New state    258 was old state    259
 New state    259 was old state    260
 New state    260 was old state    261
 New state    261 was old state    266
 New state    262 was old state    264
 New state    263 was old state    262
 New state    264 was old state    263
 New state    265 was old state    268
 New state    266 was old state    267
 New state    267 was old state    270
 New state    268 was old state    271
 New state    269 was old state    272
 New state    270 was old state    269
 New state    271 was old state    273
 New state    272 was old state    265
 New state    273 was old state    276
 New state    274 was old state    275
 New state    275 was old state    274
 New state    276 was old state    284
 New state    277 was old state    279
 New state    278 was old state    280
 New state    279 was old state    278
 New state    280 was old state    277
 New state    281 was old state    282
 New state    282 was old state    285
 New state    283 was old state    281
 New state    284 was old state    286
 New state    285 was old state    283
 New state    286 was old state    288
 New state    287 was old state    289
 New state    288 was old state    300
 New state    289 was old state    287
 New state    291 was old state    292
 New state    292 was old state    291
 New state    293 was old state    294
 New state    294 was old state    295
 New state    295 was old state    299
 New state    296 was old state    298
 New state    298 was old state    301
 New state    299 was old state    303
 New state    300 was old state    296
 New state    301 was old state    302
 New state    302 was old state    293
 New state    303 was old state    304
 New state    304 was old state    306
 New state    305 was old state    308
 New state    306 was old state    307
 New state    307 was old state    305
 New state    308 was old state    309
 New state    309 was old state    310
 New state    310 was old state    311
 New state    311 was old state    315
 New state    312 was old state    313
 New state    313 was old state    312
 New state    315 was old state    317
 New state    317 was old state    318
 New state    318 was old state    345
 New state    320 was old state    322
 New state    321 was old state    320
 New state    322 was old state    321
 New state    324 was old state    326
 New state    326 was old state    328
 New state    327 was old state    324
 New state    328 was old state    327
 New state    330 was old state    333
 New state    331 was old state    330
 New state    332 was old state    331
 New state    333 was old state    332
 New state    339 was old state    340
 New state    340 was old state    341
 New state    341 was old state    342
 New state    342 was old state    339
 New state    344 was old state    346
 New state    345 was old state    347
 New state    346 was old state    349
 New state    347 was old state    348
 New state    348 was old state    344
 New state    349 was old state    361
 New state    352 was old state    353
 New state    353 was old state    352
 New state    355 was old state    356
 New state    356 was old state    357
 New state    357 was old state    355
 New state    358 was old state    359
 New state    359 was old state    358
 New state    361 was old state    362
 New state    362 was old state    363
 New state    363 was old state    364
 New state    364 was old state    367
 New state    365 was old state    368
 New state    366 was old state    365
 New state    367 was old state    366
 New state    368 was old state    369
 New state    369 was old state    370
 New state    370 was old state    372
 New state    372 was old state    378
 New state    375 was old state    376
 New state    376 was old state    379
 New state    378 was old state    380
 New state    379 was old state    375
 New state    380 was old state    383
 New state    383 was old state    384
 New state    384 was old state    385
 New state    385 was old state    386
 New state    386 was old state    387
 New state    387 was old state    388
 New state    388 was old state    393
 New state    389 was old state    394
 New state    393 was old state    395
 New state    394 was old state    397
 New state    395 was old state    396
 New state    396 was old state    401
 New state    397 was old state    400
 New state    398 was old state    399
 New state    399 was old state    398
 New state    400 was old state    402
 New state    401 was old state    404
 New state    402 was old state    405
 New state    404 was old state    406
 New state    405 was old state    409
 New state    406 was old state    408
 New state    408 was old state    411
 New state    409 was old state    412
 New state    411 was old state    416
 New state    412 was old state    413
 New state    413 was old state    415
 New state    415 was old state    421
 New state    416 was old state    417
 New state    417 was old state    423
 New state    418 was old state    419
 New state    419 was old state    418
 New state    421 was old state    422
 New state    422 was old state    424
 New state    423 was old state    426
 New state    424 was old state    427
 New state    426 was old state    428
 New state    427 was old state    429
 New state    428 was old state    430
 New state    429 was old state    431
 New state    430 was old state    435
 New state    431 was old state    432
 New state    432 was old state    433
 New state    433 was old state    434
 New state    434 was old state    436
 New state    435 was old state    437
 New state    436 was old state    440
 New state    437 was old state    438
 New state    438 was old state    439
 New state    439 was old state    441
 New state    440 was old state    442
 New state    441 was old state    448
 New state    442 was old state    444
 New state    444 was old state    445
 New state    445 was old state    451
 New state    448 was old state    450
 No map to state    450
 New state    451 was old state    455
 No map to state    455
 New state    457 was old state    458
 New state    458 was old state    457
 New state    466 was old state    467
 New state    467 was old state    466
 New state    472 was old state    473
 New state    473 was old state    475
 New state    474 was old state    472
 New state    475 was old state    478
 New state    476 was old state    479
 New state    478 was old state    476
 New state    479 was old state    480
 New state    480 was old state    481
 New state    481 was old state    482
 New state    482 was old state    483
 New state    483 was old state    484
 New state    484 was old state    485
 New state    485 was old state    486
 New state    486 was old state    487
 New state    487 was old state    488
 New state    488 was old state    489
 New state    489 was old state    491
 New state    491 was old state    492
 New state    492 was old state    497
 New state    493 was old state    494
 New state    494 was old state    495
 New state    495 was old state    496
 New state    496 was old state    493
 New state    497 was old state    499
 New state    499 was old state    501
 New state    501 was old state    502
 New state    502 was old state    503
 New state    503 was old state    504
 New state    504 was old state    505
 New state    505 was old state    506
 New state    506 was old state    507
 New state    507 was old state    508
 New state    508 was old state    509
 New state    509 was old state    510
 New state    510 was old state    514
 New state    512 was old state    513
 New state    513 was old state    512
 New state    514 was old state    515
 New state    515 was old state    517
 New state    517 was old state    518
 New state    518 was old state    520
 New state    519 was old state    521
 New state    520 was old state    519
 New state    521 was old state    526
 New state    522 was old state    523
 New state    523 was old state    524
 New state    524 was old state    522
 New state    526 was old state    528
 New state    528 was old state    529
 New state    529 was old state    530
 New state    530 was old state    531
 New state    531 was old state    532
 New state    532 was old state    534
 New state    533 was old state    535
 New state    534 was old state    536
 New state    535 was old state    537
 New state    536 was old state    533
 New state    537 was old state    538
 New state    538 was old state    543
 New state    541 was old state    542
 New state    542 was old state    541
 New state    543 was old state    544
 New state    544 was old state    546
 New state    545 was old state    548
 New state    546 was old state    545
 New state    548 was old state    552
 New state    549 was old state    550
 New state    550 was old state    549
 New state    552 was old state    553
 New state    553 was old state    554
 New state    554 was old state    561
 New state    555 was old state    556
 New state    556 was old state    558
 New state    558 was old state    559
 New state    559 was old state    560
 New state    560 was old state    555
 New state    561 was old state    562
 New state    562 was old state    565
 New state    565 was old state    567
 New state    567 was old state    568
 New state    568 was old state    569
 New state    569 was old state    570
 New state    570 was old state    571
 New state    571 was old state    578
 New state    574 was old state    575
 New state    575 was old state    574
 New state    577 was old state    581
 New state    578 was old state    579
 New state    579 was old state    577
 New state    580 was old state    582
 New state    581 was old state    586
 New state    582 was old state    580
 New state    583 was old state    584
 New state    584 was old state    583
 New state    586 was old state    587
 New state    587 was old state    588
 New state    588 was old state    589
 New state    589 was old state    590
 New state    590 was old state    593
 No map to state    593
 New state    595 was old state    596
 New state    596 was old state    595
 New state    598 was old state    599
 New state    599 was old state    598
 New state    600 was old state    601
 New state    601 was old state    600
 New state    602 was old state    603
 New state    603 was old state    602
 New state    606 was old state    608
 New state    608 was old state    606
 New state    609 was old state    610
 New state    610 was old state    609
 New state    612 was old state    613
 New state    613 was old state    612
 New state    620 was old state    621
 New state    621 was old state    620
 New state    625 was old state    626
 New state    626 was old state    625
 New state    627 was old state    629
 New state    628 was old state    627
 New state    629 was old state    628
 New state    632 was old state    636
 New state    634 was old state    635
 New state    635 was old state    632
 New state    636 was old state    637
 New state    637 was old state    638
 New state    638 was old state    639
 New state    639 was old state    634
 New state    642 was old state    643
 New state    643 was old state    642
 New state    646 was old state    647
 New state    647 was old state    649
 New state    648 was old state    650
 New state    649 was old state    646
 New state    650 was old state    652
 New state    651 was old state    648
 New state    652 was old state    653
 New state    653 was old state    651
 New state    656 was old state    659
 New state    658 was old state    656
 New state    659 was old state    661
 New state    661 was old state    665
 New state    665 was old state    667
 New state    667 was old state    669
 New state    668 was old state    658
 New state    669 was old state    670
 New state    670 was old state    672
 New state    671 was old state    674
 New state    672 was old state    671
 New state    674 was old state    675
 New state    675 was old state    676
 New state    676 was old state    677
 New state    677 was old state    678
 New state    678 was old state    679
 New state    679 was old state    680
 New state    680 was old state    681
 New state    681 was old state    683
 New state    683 was old state    684
 New state    684 was old state    686
 New state    685 was old state    687
 New state    686 was old state    692
 New state    687 was old state    685
 New state    689 was old state    690
 New state    690 was old state    691
 New state    691 was old state    689
 New state    692 was old state    697
 New state    694 was old state    700
 New state    695 was old state    696
 New state    696 was old state    694
 New state    697 was old state    703
 New state    698 was old state    695
 New state    699 was old state    698
 New state    700 was old state    702
 New state    701 was old state    699
 New state    702 was old state    701
 New state    703 was old state    705
 New state    705 was old state    707
 New state    706 was old state    708
 New state    707 was old state    706
 New state    708 was old state    710
 No map to state    709
 New state    710 was old state    709
 New state    711 was old state    712
 New state    712 was old state    711
 New state    713 was old state    715
 New state    715 was old state    716
 New state    716 was old state    717
 New state    717 was old state    713
 New state    719 was old state    720
 New state    720 was old state    721
 New state    721 was old state    719
 New state    723 was old state    724
 New state    724 was old state    723
 New state    727 was old state    728
 New state    728 was old state    729
 New state    729 was old state    727
 New state    739 was old state    740
 New state    740 was old state    739
 New state    741 was old state    742
 New state    742 was old state    741
 Excitation Energies [eV] at current iteration:
 Root      1 :     4.403847004130286
 Root      2 :     6.470743079161461
 Root      3 :     7.159963273348287
 Root      4 :     8.107918415842978
 Root      5 :     8.250870854376995
 Root      6 :     8.289604522735928
 Root      7 :     8.538361636795585
 Root      8 :     8.861736096672551
 Root      9 :     8.981644153735253
 Root     10 :     9.047175854239784
 Root     11 :     9.293469088315021
 Root     12 :     9.485667182894025
 Root     13 :     9.595540441847636
 Root     14 :    10.139127137569970
 Root     15 :    10.307280998580780
 Root     16 :    10.320017851805680
 Root     17 :    10.415483002270720
 Root     18 :    10.539149323796810
 Root     19 :    10.864662337960330
 Root     20 :    11.010777860974630
 Root     21 :    11.083210331444890
 Root     22 :    11.222030820904680
 Root     23 :    11.343415625283640
 Root     24 :    11.450294029046890
 Root     25 :    11.469279585548410
 Root     26 :    11.687191184572210
 Root     27 :    11.729441146352170
 Root     28 :    11.911660114588350
 Root     29 :    11.992751160855360
 Root     30 :    12.182887944199560
 Root     31 :    12.235921793438570
 Root     32 :    12.266863162127770
 Root     33 :    12.323302048639330
 Root     34 :    12.363431452177090
 Root     35 :    12.414921362095240
 Root     36 :    12.611459613707300
 Root     37 :    12.673795582953520
 Root     38 :    12.818869723043230
 Root     39 :    12.853747167853410
 Root     40 :    12.946170877355600
 Root     41 :    12.955122622207000
 Root     42 :    13.041581557702540
 Root     43 :    13.084774503012160
 Root     44 :    13.222474877814270
 Root     45 :    13.314012865233900
 Root     46 :    13.350020632269760
 Root     47 :    13.359441380107020
 Root     48 :    13.473395262202630
 Root     49 :    13.500975303558850
 Root     50 :    13.718559624510370
 Root     51 :    13.736524632445830
 Root     52 :    13.789688330949100
 Root     53 :    13.873285172150950
 Root     54 :    13.873474059005880
 Root     55 :    13.953487968788190
 Root     56 :    14.019615955957510
 Root     57 :    14.054718892232430
 Root     58 :    14.142510783605820
 Root     59 :    14.221676547448250
 Root     60 :    14.331076548982060
 Root     61 :    14.339149258703600
 Root     62 :    14.383106260990600
 Root     63 :    14.528161475577840
 Root     64 :    14.639342274349470
 Root     65 :    14.672011667662760
 Root     66 :    14.685784401467020
 Root     67 :    14.729913125268820
 Root     68 :    14.790184136434780
 Root     69 :    14.885373774744330
 Root     70 :    14.888280604512600
 Root     71 :    14.960453879517580
 Root     72 :    14.992840538599610
 Root     73 :    15.091823136155050
 Root     74 :    15.091909402244070
 Root     75 :    15.204430219081130
 Root     76 :    15.372091999706490
 Root     77 :    15.378521142994520
 Root     78 :    15.417745505155250
 Root     79 :    15.519189751485730
 Root     80 :    15.589268923394380
 Root     81 :    15.714204464690470
 Root     82 :    15.809920017547580
 Root     83 :    15.891870973903200
 Root     84 :    15.970094888990130
 Root     85 :    16.011671099091840
 Root     86 :    16.063868953545920
 Root     87 :    16.102070885399370
 Root     88 :    16.164073105204870
 Root     89 :    16.218698887058580
 Root     90 :    16.237840111762700
 Root     91 :    16.382509711244950
 Root     92 :    16.411484329227710
 Root     93 :    16.552740413733160
 Root     94 :    16.628019849832760
 Root     95 :    16.700810419481050
 Root     96 :    16.718235696709520
 Root     97 :    16.789559254959880
 Root     98 :    16.866995678853250
 Root     99 :    16.887129232118870
 Root    100 :    16.943598527791090
 Root    101 :    16.987776460594210
 Root    102 :    17.068258648403450
 Root    103 :    17.102814138134570
 Root    104 :    17.188039871243060
 Root    105 :    17.353593122461960
 Root    106 :    17.487463499190290
 Root    107 :    17.490588259163220
 Root    108 :    17.544367051289880
 Root    109 :    17.559133120994370
 Root    110 :    17.582713740160600
 Root    111 :    17.592851166009910
 Root    112 :    17.715706340792630
 Root    113 :    17.766324323313840
 Root    114 :    17.881480866125000
 Root    115 :    17.910152385086970
 Root    116 :    17.976902467387450
 Root    117 :    18.024614933314770
 Root    118 :    18.053593777268570
 Root    119 :    18.085810233682350
 Root    120 :    18.133387988020600
 Root    121 :    18.295225132007100
 Root    122 :    18.395126903081390
 Root    123 :    18.497480109665140
 Root    124 :    18.516939356585570
 Root    125 :    18.561697900088150
 Root    126 :    18.582334058698490
 Root    127 :    18.584733091884470
 Root    128 :    18.648140561754440
 Root    129 :    18.674677220454250
 Root    130 :    18.773949439430840
 Root    131 :    18.788836741785240
 Root    132 :    18.958934089594360
 Root    133 :    19.019021679373900
 Root    134 :    19.028566887106460
 Root    135 :    19.065304486429840
 Root    136 :    19.116016621060890
 Root    137 :    19.218721596032450
 Root    138 :    19.274077835674460
 Root    139 :    19.322572288190590
 Root    140 :    19.431610968128100
 Root    141 :    19.454660211118190
 Root    142 :    19.480402430721390
 Root    143 :    19.541667171055710
 Root    144 :    19.600350396983660
 Root    145 :    19.739911186536620
 Root    146 :    19.748124286007410
 Root    147 :    19.854466210870300
 Root    148 :    19.900362831392780
 Root    149 :    19.956820585466590
 Root    150 :    19.982082731952950
 Root    151 :    19.985697469673060
 Root    152 :    20.048079611591100
 Root    153 :    20.096811287471230
 Root    154 :    20.135352817501060
 Root    155 :    20.136516780639040
 Root    156 :    20.327931260337340
 Root    157 :    20.394368025224520
 Root    158 :    20.505403120529620
 Root    159 :    20.551054177219230
 Root    160 :    20.564915143897570
 Root    161 :    20.603038515045770
 Root    162 :    20.645295240192080
 Root    163 :    20.678748996797480
 Root    164 :    20.701365882000620
 Root    165 :    20.731448028803280
 Root    166 :    20.771383198791440
 Root    167 :    20.796737451440770
 Root    168 :    20.801585395917010
 Root    169 :    20.852856262948240
 Root    170 :    20.982291098832690
 Root    171 :    21.023073040608160
 Root    172 :    21.068260493405460
 Root    173 :    21.139691480183320
 Root    174 :    21.180270579392890
 Root    175 :    21.251170199617230
 Root    176 :    21.295757207706930
 Root    177 :    21.322068965669020
 Root    178 :    21.353987464040760
 Root    179 :    21.360019488450700
 Root    180 :    21.471077337492940
 Root    181 :    21.473306166683220
 Root    182 :    21.574422549365580
 Root    183 :    21.651174233432780
 Root    184 :    21.661216486155930
 Root    185 :    21.671815277478970
 Root    186 :    21.696189078694450
 Root    187 :    21.760699737014020
 Root    188 :    21.822566689196760
 Root    189 :    21.828838062292530
 Root    190 :    21.840979226455510
 Root    191 :    22.017573956158180
 Root    192 :    22.096541253539480
 Root    193 :    22.109849428072170
 Root    194 :    22.140434987705660
 Root    195 :    22.182710818815040
 Root    196 :    22.208245308433820
 Root    197 :    22.235126761158810
 Root    198 :    22.360018140570250
 Root    199 :    22.372377853595680
 Root    200 :    22.496689988819810
 Root    201 :    22.534457841071370
 Root    202 :    22.632162047408000
 Root    203 :    22.636577603758120
 Root    204 :    22.715743821601820
 Root    205 :    22.795803555498810
 Root    206 :    22.814902270992080
 Root    207 :    22.845486058243260
 Root    208 :    22.919808096671760
 Root    209 :    23.050274156737590
 Root    210 :    23.175020723380940
 Root    211 :    23.218279961411460
 Root    212 :    23.269118051132920
 Root    213 :    23.296269982508280
 Root    214 :    23.379400522748720
 Root    215 :    23.388660406605800
 Root    216 :    23.432430614863900
 Root    217 :    23.523912145465800
 Root    218 :    23.531947375183580
 Root    219 :    23.587437225364460
 Root    220 :    23.713712322240300
 Root    221 :    23.731187145513580
 Root    222 :    23.763995946180220
 Root    223 :    23.799363108605150
 Root    224 :    23.823623297186020
 Root    225 :    23.971515959483630
 Root    226 :    23.973668171602100
 Root    227 :    24.013864139747990
 Root    228 :    24.055002869224570
 Root    229 :    24.092761518899010
 Root    230 :    24.120876214734110
 Root    231 :    24.212115675081170
 Root    232 :    24.328544226355300
 Root    233 :    24.440494621276960
 Root    234 :    24.459584280751290
 Root    235 :    24.470438584775000
 Root    236 :    24.547839967844630
 Root    237 :    24.579406080571200
 Root    238 :    24.583127047000300
 Root    239 :    24.671425259155270
 Root    240 :    24.763477510489320
 Root    241 :    24.831444074070960
 Root    242 :    24.837285377130900
 Root    243 :    24.881272568780560
 Root    244 :    25.163019071594280
 Root    245 :    25.283566141976420
 Root    246 :    25.312247276317180
 Root    247 :    25.332514984136840
 Root    248 :    25.348892863088690
 Root    249 :    25.384185681786380
 Root    250 :    25.453448303083830
 Root    251 :    25.752298049072510
 Root    252 :    25.815476810504370
 Root    253 :    25.869468285037950
 Root    254 :    25.883942941166520
 Root    255 :    25.999892943101810
 Root    256 :    26.047220297633310
 Root    257 :    26.131275828836770
 Root    258 :    26.189365903575630
 Root    259 :    26.338966272842910
 Root    260 :    26.349339199950290
 Root    261 :    26.421914337061650
 Root    262 :    26.497778924489440
 Root    263 :    26.666260500838290
 Root    264 :    26.722014043186860
 Root    265 :    26.918813210586150
 Root    266 :    27.001908137322680
 Root    267 :    27.066698658346000
 Root    268 :    27.171859342064120
 Root    269 :    27.189162328310240
 Root    270 :    27.225984716332760
 Root    271 :    27.273602937236730
 Root    272 :    27.340364472104010
 Root    273 :    27.384135585960780
 Root    274 :    27.455694859235900
 Root    275 :    27.506828089201170
 Root    276 :    27.574879273827370
 Root    277 :    27.715945711244610
 Root    278 :    27.724581920879780
 Root    279 :    27.807800777130640
 Root    280 :    27.813905315241290
 Root    281 :    27.962188598982960
 Root    282 :    28.069095909429590
 Root    283 :    28.132947332049070
 Root    284 :    28.218153734903770
 Root    285 :    28.238028539042980
 Root    286 :    28.348893667057700
 Root    287 :    28.386148952061270
 Root    288 :    28.545699063933730
 Root    289 :    28.583754431837110
 Root    290 :    28.730738434291730
 Root    291 :    28.829648569911770
 Root    292 :    28.847259653654490
 Root    293 :    28.902077080658630
 Root    294 :    28.954771644076270
 Root    295 :    29.055133214790450
 Root    296 :    29.068369703256750
 Root    297 :    29.136683990815300
 Root    298 :    29.225106903608130
 Root    299 :    29.237106614155150
 Root    300 :    29.270668864340110
 Root    301 :    29.355795444693340
 Root    302 :    29.429410379639370
 Root    303 :    29.449594658502350
 Root    304 :    29.571217815319260
 Root    305 :    29.671623767951030
 Root    306 :    29.684653910087810
 Root    307 :    29.697043692597400
 Root    308 :    29.928323105930000
 Root    309 :    29.993895060098750
 Root    310 :    30.026182231692530
 Root    311 :    30.138763884380410
 Root    312 :    30.195983296876440
 Root    313 :    30.282176883449830
 Root    314 :    30.305468049265880
 Root    315 :    30.373612640059130
 Root    316 :    30.487631770631050
 Root    317 :    30.614739234055240
 Root    318 :    30.719399736489730
 Root    319 :    30.788859847931500
 Root    320 :    31.128716968167940
 Root    321 :    31.247019842969920
 Root    322 :    31.266534982260100
 Root    323 :    31.314842161018080
 Root    324 :    31.553375412869560
 Root    325 :    31.581077486118820
 Root    326 :    31.585180453885930
 Root    327 :    31.620484546719790
 Root    328 :    31.668596906125410
 Root    329 :    31.836236028656550
 Root    330 :    32.013847197912990
 Root    331 :    32.035427113130350
 Root    332 :    32.064300064291490
 Root    333 :    32.078381016386350
 Root    334 :    32.378552662910210
 Root    335 :    32.461951714673770
 Root    336 :    32.495931268754460
 Root    337 :    32.566948336354940
 Root    338 :    32.618773851291910
 Root    339 :    32.727667174760220
 Root    340 :    32.837458663879070
 Root    341 :    32.955585819654690
 Root    342 :    33.008713561508370
 Root    343 :    33.012493938254970
 Root    344 :    33.139955540752230
 Root    345 :    33.324407307197030
 Root    346 :    33.381587239381940
 Root    347 :    33.457649176158500
 Root    348 :    33.530802425209880
 Root    349 :    33.533382096850460
 Root    350 :    33.667082364850060
 Root    351 :    33.841438150585010
 Root    352 :    33.853130562509490
 Root    353 :    33.938491392803200
 Root    354 :    34.169763230523250
 Root    355 :    34.386438250055790
 Root    356 :    34.452154305883870
 Root    357 :    34.454685952470920
 Root    358 :    34.701790233919860
 Root    359 :    34.810400722916630
 Root    360 :    34.906160400122270
 Root    361 :    35.218635086097360
 Root    362 :    35.283828012359300
 Root    363 :    35.307052363872900
 Root    364 :    35.380351268719250
 Root    365 :    35.456933824614790
 Root    366 :    35.459877706966530
 Root    367 :    35.491102900521650
 Root    368 :    35.579269358065120
 Root    369 :    35.579795194443490
 Root    370 :    35.712098286406110
 Root    371 :    35.782335006333260
 Root    372 :    35.796732276016700
 Root    373 :    35.928029125167240
 Root    374 :    36.045862765333740
 Root    375 :    36.178650718446020
 Root    376 :    36.204163530161520
 Root    377 :    36.268415950783020
 Root    378 :    36.300164843890750
 Root    379 :    36.342826286462620
 Root    380 :    36.482304460418650
 Root    381 :    36.498649810795840
 Root    382 :    36.562318153022950
 Root    383 :    36.674397967771300
 Root    384 :    36.734957468935380
 Root    385 :    36.916100819642370
 Root    386 :    36.954253508432100
 Root    387 :    36.986089404360970
 Root    388 :    37.122991340586100
 Root    389 :    37.221786643601290
 Root    390 :    37.276380836712830
 Root    391 :    37.378020773997270
 Root    392 :    37.388983413751470
 Root    393 :    37.405930772080540
 Root    394 :    37.545203496237210
 Root    395 :    37.561636745032710
 Root    396 :    37.603824537220890
 Root    397 :    37.684778122562330
 Root    398 :    37.781480277755660
 Root    399 :    37.945123779975790
 Root    400 :    38.097934060701930
 Root    401 :    38.234795502330130
 Root    402 :    38.248334153140180
 Root    403 :    38.327276053357660
 Root    404 :    38.473745060340700
 Root    405 :    38.628979700765590
 Root    406 :    38.686674089984930
 Root    407 :    38.772235061884500
 Root    408 :    39.042395493648720
 Root    409 :    39.116257820707820
 Root    410 :    39.147712424769950
 Root    411 :    39.210260456737310
 Root    412 :    39.383717187029400
 Root    413 :    39.612094962465250
 Root    414 :    39.623470245403180
 Root    415 :    39.880317453928460
 Root    416 :    40.075645332211930
 Root    417 :    40.162148948217730
 Root    418 :    40.314425244834820
 Root    419 :    40.464801441423180
 Root    420 :    40.833026879831500
 Root    421 :    40.984696232037320
 Root    422 :    41.181293708688470
 Root    423 :    41.237680322977130
 Root    424 :    41.365760779888680
 Root    425 :    41.371802737236490
 Root    426 :    41.509783440121030
 Root    427 :    41.552710977043110
 Root    428 :    41.996315688638320
 Root    429 :    42.184426386578690
 Root    430 :    42.418123634873130
 Root    431 :    42.514532338188080
 Root    432 :    42.563797072380100
 Root    433 :    42.864360641062330
 Root    434 :    42.910859063378840
 Root    435 :    43.139691045279630
 Root    436 :    43.322347851781710
 Root    437 :    43.508483535353070
 Root    438 :    43.882661120994260
 Root    439 :    44.033071675113670
 Root    440 :    44.212953833718800
 Root    441 :    44.327908917130390
 Root    442 :    44.509051036121500
 Root    443 :    44.597481366698420
 Root    444 :    44.785099499975000
 Root    445 :    44.811563690151410
 Root    446 :    44.931079268332810
 Root    447 :    44.944437766602610
 Root    448 :    45.264059164168860
 Root    449 :    45.312400081631640
 Root    450 :    45.461319901760100
 Root    451 :    45.998890350132580
 Root    452 :    46.162497859197930
 Root    453 :    46.443820303827380
 Root    454 :    46.599434925333850
 Root    455 :    46.727161619028420
 Root    456 :    47.752322592696890
 Root    457 :    47.859452674618900
 Root    458 :    47.924471159313680
 Root    459 :    48.155679766750370
 Root    460 :    48.547712269279980
 Root    461 :    48.736047168092500
 Root    462 :    49.207461587967360
 Root    463 :    49.274679002424610
 Root    464 :    49.442217893682670
 Root    465 :    49.842083338511640
 Root    466 :    50.095334724189280
 Root    467 :    50.167839298851180
 Root    468 :    50.305520197676730
 Root    469 :    50.511893667354660
 Root    470 :    50.682437253494090
 Root    471 :    50.716434178344320
 Root    472 :    50.843017392806540
 Root    473 :    50.915255800423690
 Root    474 :    51.142511164750150
 Root    475 :    51.257540474146840
 Root    476 :    51.293210149406770
 Root    477 :    51.399527681879870
 Root    478 :    51.421088491613320
 Root    479 :    51.618559132501490
 Root    480 :    51.707473865962290
 Root    481 :    51.953963852541000
 Root    482 :    52.083505147096830
 Root    483 :    52.159511085799340
 Root    484 :    52.218840718301330
 Root    485 :    52.282816405171570
 Root    486 :    52.369667472846220
 Root    487 :    52.510789775383730
 Root    488 :    52.535012657140480
 Root    489 :    52.863733145117560
 Root    490 :    52.996649586231200
 Root    491 :    53.000606716817390
 Root    492 :    53.103425675123550
 Root    493 :    53.196138526337170
 Root    494 :    53.575257041867600
 Root    495 :    53.587690609965210
 Root    496 :    53.859004489226270
 Root    497 :    53.929502193985410
 Root    498 :    53.951845490122540
 Root    499 :    54.152227068100940
 Root    500 :    54.191207086498600
 Root    501 :    54.369215594477800
 Root    502 :    54.566924713113880
 Root    503 :    54.729927955440790
 Root    504 :    54.979623733206770
 Root    505 :    55.260540056114900
 Root    506 :    55.455545717531900
 Root    507 :    55.520987808788480
 Root    508 :    55.870324776068080
 Root    509 :    55.941678203426390
 Root    510 :    56.111642633759120
 Root    511 :    56.149053816453250
 Root    512 :    56.228605448437900
 Root    513 :    56.300392248756690
 Root    514 :    56.585993908860980
 Root    515 :    56.756715160698540
 Root    516 :    56.760633199218810
 Root    517 :    57.150185443724820
 Root    518 :    57.496181792665080
 Root    519 :    57.587956398551370
 Root    520 :    57.738434279123080
 Root    521 :    58.058700535138110
 Root    522 :    58.094262794116000
 Root    523 :    58.299143607464170
 Root    524 :    58.302341419252270
 Root    525 :    58.497873371797160
 Root    526 :    58.661683841040710
 Root    527 :    58.755729955891230
 Root    528 :    59.113110984623790
 Root    529 :    59.172471445707290
 Root    530 :    59.270199240080160
 Root    531 :    59.401282635597620
 Root    532 :    59.431014820097710
 Root    533 :    59.497015265170270
 Root    534 :    59.556347829835810
 Root    535 :    59.832247159127360
 Root    536 :    59.842962386896540
 Root    537 :    59.969241480026130
 Root    538 :    59.989708666081770
 Root    539 :    60.409217041582610
 Root    540 :    60.612751314062120
 Root    541 :    60.699766351825130
 Root    542 :    60.832274651073400
 Root    543 :    60.885278987822200
 Root    544 :    61.032409756113320
 Root    545 :    61.198359389307680
 Root    546 :    61.226891176876360
 Root    547 :    61.318458105371720
 Root    548 :    61.403791123975640
 Root    549 :    61.729985607335220
 Root    550 :    61.740792021882760
 Root    551 :    61.888574080996380
 Root    552 :    62.089295058999620
 Root    553 :    62.309624063128280
 Root    554 :    62.517927020199320
 Root    555 :    62.686160777247030
 Root    556 :    62.766578507395020
 Root    557 :    62.778859843459310
 Root    558 :    62.914500329028700
 Root    559 :    62.973417708621170
 Root    560 :    62.989972440083630
 Root    561 :    63.314954029481700
 Root    562 :    63.424671316778370
 Root    563 :    63.588320845471330
 Root    564 :    63.671476822954990
 Root    565 :    63.741144164551110
 Root    566 :    64.085666331140710
 Root    567 :    64.172541809689180
 Root    568 :    64.380865249756910
 Root    569 :    64.484797271381030
 Root    570 :    64.551912887936410
 Root    571 :    64.820985037283850
 Root    572 :    64.935678498989250
 Root    573 :    65.404326231811170
 Root    574 :    65.624950015026220
 Root    575 :    65.630417134395220
 Root    576 :    65.909196077470610
 Root    577 :    66.064146979617500
 Root    578 :    66.119735279248640
 Root    579 :    66.169468236292600
 Root    580 :    66.284272607197760
 Root    581 :    66.317299128446610
 Root    582 :    66.509381719760900
 Root    583 :    66.534438297017990
 Root    584 :    66.563768080404840
 Root    585 :    66.848232595724430
 Root    586 :    67.063975908943280
 Root    587 :    67.177354690118490
 Root    588 :    67.356367125700200
 Root    589 :    67.408336924090930
 Root    590 :    67.474376883350940
 Root    591 :    68.157857759286090
 Root    592 :    68.322770135304750
 Root    593 :    68.584216791975420
 Root    594 :    68.810600980514340
 Root    595 :    69.007148118535210
 Root    596 :    69.126765789214700
 Root    597 :    69.232407559247630
 Root    598 :    69.777465188500560
 Root    599 :    69.883514109201560
 Root    600 :    70.290371342711170
 Root    601 :    70.538338003587260
 Root    602 :    70.663471475439750
 Root    603 :    70.800466493805910
 Root    604 :    70.978485279843280
 Root    605 :    71.000088630806590
 Root    606 :    71.156675852539010
 Root    607 :    71.308055859343100
 Root    608 :    71.328602257298600
 Root    609 :    71.705209848759740
 Root    610 :    71.756482435522120
 Root    611 :    72.038695195241120
 Root    612 :    72.471782475923920
 Root    613 :    72.486084689136380
 Root    614 :    72.737462477908440
 Root    615 :    73.490218047937010
 Root    616 :    73.699217997121000
 Root    617 :    74.203817016106330
 Root    618 :    74.548424251745490
 Root    619 :    74.735825542182240
 Root    620 :    74.862651508406760
 Root    621 :    75.182400895797220
 Root    622 :    75.306379826446810
 Root    623 :    75.590585652635600
 Root    624 :    76.095928161621360
 Root    625 :    76.349772534140240
 Root    626 :    76.411903108028880
 Root    627 :    76.954082161526430
 Root    628 :    77.003675899904480
 Root    629 :    77.316909757885140
 Root    630 :    77.393810368458520
 Root    631 :    77.878201242309160
 Root    632 :    78.100349939167970
 Root    633 :    78.101040694283770
 Root    634 :    78.190820195206830
 Root    635 :    78.416710960949670
 Root    636 :    78.416734643429810
 Root    637 :    78.708392824014540
 Root    638 :    78.981293739983810
 Root    639 :    79.163924549954790
 Root    640 :    79.260453655491520
 Root    641 :    79.398739751237190
 Root    642 :    79.494870994611200
 Root    643 :    79.672805077392040
 Root    644 :    79.880686863365130
 Root    645 :    80.158278246878890
 Root    646 :    80.475614308408980
 Root    647 :    80.785253893307060
 Root    648 :    80.842192409061400
 Root    649 :    81.008826242409780
 Root    650 :    81.504110283416550
 Root    651 :    81.606567829021570
 Root    652 :    81.757159336222600
 Root    653 :    81.794286754202200
 Root    654 :    82.312010662931630
 Root    655 :    82.796122527136280
 Root    656 :    83.035140122665960
 Root    657 :    83.120045828182110
 Root    658 :    83.274752095485270
 Root    659 :    84.489146884583690
 Root    660 :    84.612634278064490
 Root    661 :    85.275038171441930
 Root    662 :    85.350947455382080
 Root    663 :    85.460229763957860
 Root    664 :    85.470853176646970
 Root    665 :    85.946167387931060
 Root    666 :    86.217865754604020
 Root    667 :    86.382531753235710
 Root    668 :    86.445110803945040
 Root    669 :    86.885590840286580
 Root    670 :    87.026322159160880
 Root    671 :    87.208569756432980
 Root    672 :    87.253635485614130
 Root    673 :    87.290847676677220
 Root    674 :    87.344160276650530
 Root    675 :    87.556747572351870
 Root    676 :    88.030255083788860
 Root    677 :    88.172374204989320
 Root    678 :    88.251857516213140
 Root    679 :    88.384209558459010
 Root    680 :    89.157319676341930
 Root    681 :    89.278022788507040
 Root    682 :    89.483145922793820
 Root    683 :    89.759913301506780
 Root    684 :    90.325606237484850
 Root    685 :    90.928788452994370
 Root    686 :    91.019296456313340
 Root    687 :    91.145783608952830
 Root    688 :    91.409201474622310
 Root    689 :    91.617407312111450
 Root    690 :    91.827503451374720
 Root    691 :    92.051585945520960
 Root    692 :    92.604316877285310
 Root    693 :    92.647838781118100
 Root    694 :    92.873527797426260
 Root    695 :    92.918690422997800
 Root    696 :    93.014062809802400
 Root    697 :    93.037435367407400
 Root    698 :    93.349506190198330
 Root    699 :    93.563425012203540
 Root    700 :    93.726661092336710
 Root    701 :    93.776541327305320
 Root    702 :    94.177251732670740
 Root    703 :    94.403664644752990
 Root    704 :    94.769999883204060
 Root    705 :    95.298751324325540
 Root    706 :    95.446867794338490
 Root    707 :    95.533303960179340
 Root    708 :    95.625094235950210
 Root    709 :    95.965591242194690
 Root    710 :    96.154794546206670
 Root    711 :    96.417965053973090
 Root    712 :    96.482214591036040
 Root    713 :    97.260954614629170
 Root    714 :    97.428805048690730
 Root    715 :    97.494107666506960
 Root    716 :    98.086533073422130
 Root    717 :    98.652969589080750
 Root    718 :   100.101617840359900
 Root    719 :   100.586255588894500
 Root    720 :   100.607403547111100
 Root    721 :   100.711588690947500
 Root    722 :   102.020728304438500
 Root    723 :   102.411741652013100
 Root    724 :   102.464261598856100
 Root    725 :   103.364632565852800
 Root    726 :   103.399264913437700
 Root    727 :   104.293723141742100
 Root    728 :   104.585567154782200
 Root    729 :   104.707584273375100
 Root    730 :   105.082806930770800
 Root    731 :   105.243263825850900
 Root    732 :   106.969218196158900
 Root    733 :   107.973251960545900
 Root    734 :   108.510857198006900
 Root    735 :   108.744851619013600
 Root    736 :   109.605422512717400
 Root    737 :   110.464025952358900
 Root    738 :   110.546308737099500
 Root    739 :   111.549824958705800
 Root    740 :   111.849892720903700
 Root    741 :   112.394843367975400
 Root    742 :   113.030023244889900
 Root    743 :   113.216340834925900
 Root    744 :   115.005972768194100
 Root    745 :   119.353694979249100
 Root    746 :   120.254355880456400
 Root    747 :   127.370529161545800
 Convergence achieved for final wavefunctions.
 ***********************************************************************
 Excited states from <AA,BB:AA,BB> singles matrix:
 ***********************************************************************
 
 1PDM for each excited state written to RWF  633
 Ground to excited state transition densities written to RWF  633
 Ground to excited state transition electric dipole moments (Au):
       state          X           Y           Z        Dip. S.      Osc.
         1        -0.0000      0.0000      0.0135      0.0002      0.0000
         2         0.3696     -0.0641      0.0000      0.1407      0.0223
         3         0.1601      0.5957      0.0000      0.3805      0.0667
         4         0.0000     -0.0000     -0.2730      0.0745      0.0148
         5        -0.0000     -0.0000     -0.1144      0.0131      0.0026
         6        -0.2555     -0.5025      0.0000      0.3178      0.0645
         7        -0.4157      0.2487     -0.0000      0.2346      0.0491
         8        -0.8522      0.2422     -0.0000      0.7849      0.1704
         9        -0.0000     -0.0000     -0.0073      0.0001      0.0000
        10         0.5667     -0.2657      0.0000      0.3918      0.0868
        11         0.0000     -0.0000     -0.0247      0.0006      0.0001
        12         0.1813     -0.1282     -0.0000      0.0493      0.0115
        13         0.0000      0.0000      0.1393      0.0194      0.0046
        14         0.0000      0.0000      0.0966      0.0093      0.0023
        15         0.2957     -0.0140     -0.0000      0.0876      0.0221
        16        -0.0000      0.0000     -0.2641      0.0697      0.0176
        17         0.0000     -0.0000      0.0631      0.0040      0.0010
        18        -0.4829     -0.0635      0.0000      0.2372      0.0612
        19         0.0026     -0.2242     -0.0000      0.0503      0.0134
        20         0.2940      0.0859      0.0000      0.0938      0.0253
        21        -0.2093     -0.5489      0.0000      0.3451      0.0937
        22         0.3307      0.3432      0.0000      0.2271      0.0624
        23         0.2662     -0.3326     -0.0000      0.1815      0.0504
        24         0.0000     -0.0000     -0.2864      0.0820      0.0230
        25        -0.0045      0.1753     -0.0000      0.0307      0.0086
        26        -0.0000     -0.0000     -0.6975      0.4865      0.1393
        27         0.0000     -0.0000     -0.0181      0.0003      0.0001
        28         0.1268     -0.3285      0.0000      0.1240      0.0362
        29        -0.0000      0.0000     -0.1222      0.0149      0.0044
        30         0.2966      0.1323     -0.0000      0.1055      0.0315
        31         0.0000     -0.0000     -0.2192      0.0480      0.0144
        32         0.0000      0.0000      0.1369      0.0187      0.0056
[...]
      6   0.000000D+00  0.000000D+00 -0.401541D+00 -0.181605D+00 -0.483252D-01
      7  -0.987872D-01  0.274820D+00  0.000000D+00  0.000000D+00  0.000000D+00
      8  -0.393599D+00  0.307553D-01  0.000000D+00  0.000000D+00  0.000000D+00
      9  -0.726764D+00  0.244085D+00  0.000000D+00  0.000000D+00  0.000000D+00
     10   0.000000D+00  0.000000D+00  0.256805D+00  0.392024D+00  0.212812D+00
     11   0.000000D+00  0.000000D+00  0.425158D+00 -0.262050D+00  0.107466D+00
     12   0.000000D+00  0.000000D+00  0.101474D+00 -0.565616D+00 -0.168469D+00
     13   0.000000D+00  0.000000D+00  0.267153D-01 -0.707695D-01  0.176545D+00
     14   0.000000D+00  0.000000D+00  0.855005D-01  0.508979D+00  0.843377D-01
     15   0.716648D+00 -0.191083D+00  0.000000D+00  0.000000D+00  0.000000D+00
     16  -0.521448D+00 -0.165513D+00  0.000000D+00  0.000000D+00  0.000000D+00
               681           682           683           684           685 
      1  -0.150470D+03 -0.150463D+03 -0.150453D+03 -0.150432D+03 -0.150410D+03
      2  -0.857929D-02  0.000000D+00  0.407921D-01  0.393629D-01  0.398218D-01
      3  -0.356273D-01  0.000000D+00  0.122273D+00 -0.355700D+00  0.607620D-01
      4   0.000000D+00 -0.118250D+00  0.000000D+00  0.000000D+00  0.000000D+00
      5   0.189156D-02  0.000000D+00 -0.117362D+00 -0.114595D+00 -0.110265D+00
      6   0.981246D-01  0.000000D+00 -0.319356D+00  0.990365D+00 -0.154185D+00
      7   0.000000D+00  0.322916D+00  0.000000D+00  0.000000D+00  0.000000D+00
      8   0.000000D+00  0.269894D+00  0.000000D+00  0.000000D+00  0.000000D+00
      9   0.000000D+00  0.678084D+00  0.000000D+00  0.000000D+00  0.000000D+00
     10   0.163898D-01  0.000000D+00  0.120414D+00 -0.188717D+01  0.155029D+00
     11   0.240804D+00  0.000000D+00 -0.551191D+00  0.478302D-01 -0.106852D+01
     12   0.134726D+00  0.000000D+00 -0.144436D+00  0.140925D+01 -0.661604D+00
     13  -0.102852D+00  0.000000D+00  0.530331D-01  0.999415D-01  0.876507D-01
     14  -0.114742D-01  0.000000D+00  0.427389D+00 -0.167790D+01  0.104033D+01
     15   0.000000D+00 -0.672535D+00  0.000000D+00  0.000000D+00  0.000000D+00
     16   0.000000D+00  0.404094D+00  0.000000D+00  0.000000D+00  0.000000D+00
               686           687           688           689           690 
      1  -0.150406D+03 -0.150402D+03 -0.150392D+03 -0.150384D+03 -0.150377D+03
      2  -0.206735D-01  0.000000D+00  0.138644D-01  0.000000D+00  0.000000D+00
      3   0.178264D+00  0.000000D+00 -0.374493D-01  0.000000D+00  0.000000D+00
      4   0.000000D+00 -0.859210D-01  0.000000D+00 -0.149216D+00 -0.473136D-01
      5   0.559732D-01  0.000000D+00 -0.334011D-01  0.000000D+00  0.000000D+00
      6  -0.492514D+00  0.000000D+00  0.104283D+00  0.000000D+00  0.000000D+00
      7   0.000000D+00  0.212367D+00  0.000000D+00  0.429207D+00  0.133627D+00
      8   0.000000D+00  0.493162D+00  0.000000D+00 -0.756393D-01  0.105501D+00
      9   0.000000D+00  0.118825D+01  0.000000D+00  0.228899D+00  0.269525D+00
     10   0.124958D+01  0.000000D+00  0.787082D-01  0.000000D+00  0.000000D+00
     11   0.799379D+00  0.000000D+00  0.356596D+00  0.000000D+00  0.000000D+00
     12  -0.757283D+00  0.000000D+00  0.729425D-01  0.000000D+00  0.000000D+00
     13   0.159390D+00  0.000000D+00  0.139572D+00  0.000000D+00  0.000000D+00
     14   0.838943D+00  0.000000D+00 -0.148298D+00  0.000000D+00  0.000000D+00
     15   0.000000D+00 -0.116857D+01  0.000000D+00 -0.301505D+00 -0.270834D+00
     16   0.000000D+00  0.583089D+00  0.000000D+00  0.166746D+00  0.198656D+00
               691           692           693           694           695 
      1  -0.150368D+03 -0.150348D+03 -0.150347D+03 -0.150338D+03 -0.150337D+03
      2   0.000000D+00 -0.811244D-01  0.000000D+00  0.635804D-01  0.000000D+00
      3   0.000000D+00  0.136881D+00  0.000000D+00  0.439635D-01  0.000000D+00
      4  -0.364450D-01  0.000000D+00 -0.180446D-01  0.000000D+00  0.522029D-01
      5   0.000000D+00  0.250376D+00  0.000000D+00 -0.180976D+00  0.000000D+00
      6   0.000000D+00 -0.391503D+00  0.000000D+00 -0.114167D+00  0.000000D+00
      7   0.992471D-01  0.000000D+00  0.354169D-01  0.000000D+00 -0.164417D+00
      8   0.146890D+00  0.000000D+00 -0.138710D+00  0.000000D+00  0.523955D-01
      9   0.389865D+00  0.000000D+00 -0.171867D+00  0.000000D+00  0.884829D-01
     10   0.000000D+00  0.112474D+01  0.000000D+00  0.573452D+00  0.000000D+00
     11   0.000000D+00 -0.356504D-01  0.000000D+00 -0.416566D+00  0.000000D+00
     12   0.000000D+00 -0.616692D+00  0.000000D+00 -0.668443D+00  0.000000D+00
     13   0.000000D+00 -0.809572D-01  0.000000D+00 -0.136769D+00  0.000000D+00
     14   0.000000D+00  0.116822D+01  0.000000D+00  0.951839D+00  0.000000D+00
     15  -0.345217D+00  0.000000D+00  0.305565D+00  0.000000D+00 -0.443656D-01
     16  -0.326028D-01  0.000000D+00  0.361990D-01  0.000000D+00 -0.904568D-01
               696           697           698           699           700 
      1  -0.150333D+03 -0.150332D+03 -0.150321D+03 -0.150313D+03 -0.150307D+03
      2   0.000000D+00 -0.429740D-01  0.304344D-01  0.358941D-01  0.000000D+00
      3   0.000000D+00 -0.154744D+00  0.988278D-01  0.814151D-01  0.000000D+00
      4  -0.161041D+00  0.000000D+00  0.000000D+00  0.000000D+00 -0.256885D-01
      5   0.000000D+00  0.129418D+00 -0.108168D+00 -0.135336D+00  0.000000D+00
      6   0.000000D+00  0.459286D+00 -0.279456D+00 -0.227402D+00  0.000000D+00
      7   0.462153D+00  0.000000D+00  0.000000D+00  0.000000D+00  0.644221D-01
      8   0.423687D-01  0.000000D+00  0.000000D+00  0.000000D+00  0.309413D+00
      9   0.627294D+00  0.000000D+00  0.000000D+00  0.000000D+00  0.590113D+00
     10   0.000000D+00  0.227002D+00  0.462681D+00  0.872708D+00  0.000000D+00
     11   0.000000D+00  0.316257D+00  0.808243D+00  0.367897D+00  0.000000D+00
     12   0.000000D+00 -0.487916D+00 -0.667628D+00 -0.633958D+00  0.000000D+00
     13   0.000000D+00  0.195979D-01  0.222770D-01 -0.977532D-03  0.000000D+00
     14   0.000000D+00 -0.131472D+00  0.192077D+00  0.106591D+01  0.000000D+00
     15  -0.586254D+00  0.000000D+00  0.000000D+00  0.000000D+00 -0.707910D+00
     16  -0.114811D+00  0.000000D+00  0.000000D+00  0.000000D+00  0.321098D+00
               701           702           703           704           705 
      1  -0.150305D+03 -0.150290D+03 -0.150282D+03 -0.150269D+03 -0.150249D+03
      2   0.455916D-01 -0.418953D-01 -0.149087D-01  0.000000D+00 -0.257440D-01
      3   0.514409D-01  0.118158D+00 -0.172353D-01  0.000000D+00  0.512530D-01
      4   0.000000D+00  0.000000D+00  0.000000D+00 -0.212240D-01  0.000000D+00
      5  -0.131005D+00  0.123647D+00  0.474995D-01  0.000000D+00  0.575670D-01
      6  -0.142357D+00 -0.338760D+00  0.499441D-01  0.000000D+00 -0.120217D+00
      7   0.000000D+00  0.000000D+00  0.000000D+00  0.702162D-01  0.000000D+00
      8   0.000000D+00  0.000000D+00  0.000000D+00 -0.210352D+00  0.000000D+00
      9   0.000000D+00  0.000000D+00  0.000000D+00 -0.344549D+00  0.000000D+00
     10   0.372838D+00  0.487251D+00  0.235444D+00  0.000000D+00  0.175854D-01
     11  -0.136187D+00 -0.595321D+00  0.316654D+00  0.000000D+00  0.271438D+00
     12  -0.503912D+00 -0.556648D+00 -0.338006D+00  0.000000D+00  0.193573D+00
     13   0.147271D+00  0.223135D+00  0.228410D-01  0.000000D+00 -0.119308D+00
     14   0.619925D+00  0.703832D+00 -0.972597D-01  0.000000D+00 -0.282335D+00
     15   0.000000D+00  0.000000D+00  0.000000D+00  0.283497D+00  0.000000D+00
     16   0.000000D+00  0.000000D+00  0.000000D+00 -0.846255D-01  0.000000D+00
               706           707           708           709           710 
      1  -0.150244D+03 -0.150240D+03 -0.150237D+03 -0.150225D+03 -0.150218D+03
      2  -0.135354D+00  0.000000D+00  0.885518D-01  0.413766D-01  0.000000D+00
      3   0.707551D-02  0.000000D+00  0.176250D-01  0.722857D-01  0.000000D+00
      4   0.000000D+00 -0.669862D-01  0.000000D+00  0.000000D+00  0.566412D-01
      5   0.433715D+00  0.000000D+00 -0.278161D+00 -0.136218D+00  0.000000D+00
      6  -0.252657D-02  0.000000D+00 -0.632082D-01 -0.214457D+00  0.000000D+00
      7   0.000000D+00  0.190206D+00  0.000000D+00  0.000000D+00 -0.156337D+00
      8   0.000000D+00  0.107228D+00  0.000000D+00  0.000000D+00 -0.276633D+00
      9   0.000000D+00  0.181537D+00  0.000000D+00  0.000000D+00 -0.675567D+00
     10  -0.390862D+00  0.000000D+00 -0.269898D-01  0.480297D+00  0.000000D+00
     11  -0.101315D+01  0.000000D+00  0.119708D+01  0.755468D+00  0.000000D+00
     12   0.124970D+00  0.000000D+00  0.170813D+00  0.153700D+00  0.000000D+00
     13  -0.969414D-01  0.000000D+00 -0.169535D-01 -0.198610D+00  0.000000D+00
     14  -0.110168D+00  0.000000D+00 -0.409390D+00  0.169420D+00  0.000000D+00
     15   0.000000D+00 -0.544067D-01  0.000000D+00  0.000000D+00  0.793186D+00
     16   0.000000D+00  0.266571D+00  0.000000D+00  0.000000D+00 -0.286267D+00
               711           712           713           714           715 
      1  -0.150208D+03 -0.150206D+03 -0.150177D+03 -0.150171D+03 -0.150168D+03
      2   0.000000D+00  0.000000D+00 -0.703601D-01 -0.825390D-02  0.000000D+00
      3   0.000000D+00  0.000000D+00  0.261359D-01  0.101069D+00  0.000000D+00
      4   0.658385D-01  0.187138D-02  0.000000D+00  0.000000D+00 -0.120244D+00
      5   0.000000D+00  0.000000D+00  0.240455D+00  0.427284D-01  0.000000D+00
      6   0.000000D+00  0.000000D+00 -0.947630D-01 -0.286998D+00  0.000000D+00
      7  -0.176580D+00 -0.944970D-03  0.000000D+00  0.000000D+00  0.367612D+00
      8   0.103060D+00 -0.616147D-01  0.000000D+00  0.000000D+00  0.272229D+00
      9   0.103700D+00 -0.985324D-01  0.000000D+00  0.000000D+00  0.103324D+01
     10   0.000000D+00  0.000000D+00 -0.308310D+00  0.364089D+00  0.000000D+00
     11   0.000000D+00  0.000000D+00 -0.115196D+01 -0.469459D+00  0.000000D+00
     12   0.000000D+00  0.000000D+00 -0.535922D-01 -0.274338D+00  0.000000D+00
     13   0.000000D+00  0.000000D+00 -0.881084D-01 -0.471950D-01  0.000000D+00
     14   0.000000D+00  0.000000D+00  0.280232D+00  0.207169D+00  0.000000D+00
     15  -0.373548D-01  0.609428D-01  0.000000D+00  0.000000D+00 -0.133493D+01
     16   0.133387D+00 -0.235100D+00  0.000000D+00  0.000000D+00  0.278713D+00
               716           717           718           719           720 
      1  -0.150147D+03 -0.150126D+03 -0.150073D+03 -0.150055D+03 -0.150054D+03
      2  -0.126784D-01  0.000000D+00  0.184122D+00  0.158829D-01  0.000000D+00
      3  -0.151928D-01  0.000000D+00 -0.165571D-01  0.139071D-01  0.000000D+00
      4   0.000000D+00  0.278839D+00  0.000000D+00  0.000000D+00 -0.222918D-01
      5   0.293403D-01  0.000000D+00 -0.616867D+00 -0.929574D-02  0.000000D+00
      6   0.399156D-01  0.000000D+00  0.472821D-01 -0.456570D-01  0.000000D+00
      7   0.000000D+00 -0.866805D+00  0.000000D+00  0.000000D+00  0.532201D-01
      8   0.000000D+00 -0.568206D+00  0.000000D+00  0.000000D+00 -0.502298D+00
      9   0.000000D+00 -0.193310D+01  0.000000D+00  0.000000D+00 -0.795274D+00
     10   0.114256D-01  0.000000D+00  0.292616D+00 -0.228061D+00  0.000000D+00
     11   0.758530D-01  0.000000D+00  0.312021D+01 -0.101961D+01  0.000000D+00
     12   0.746663D-01  0.000000D+00  0.942336D-01 -0.361357D-01  0.000000D+00
     13  -0.278447D-01  0.000000D+00  0.362149D-01 -0.399887D-01  0.000000D+00
     14  -0.275468D-01  0.000000D+00 -0.554722D+00  0.223648D+00  0.000000D+00
     15   0.000000D+00  0.254007D+01  0.000000D+00  0.000000D+00  0.702940D+00
     16   0.000000D+00 -0.569178D+00  0.000000D+00  0.000000D+00 -0.500748D+00
               721           722           723           724           725 
      1  -0.150050D+03 -0.150002D+03 -0.149988D+03 -0.149986D+03 -0.149953D+03
      2   0.000000D+00  0.591933D-01  0.682016D-01  0.000000D+00  0.567574D-01
      3   0.000000D+00  0.424079D-01  0.631761D-01  0.000000D+00  0.433843D-01
      4  -0.152473D+00  0.000000D+00  0.000000D+00  0.104280D-01  0.000000D+00
      5   0.000000D+00 -0.198538D+00 -0.204397D+00  0.000000D+00 -0.219155D+00
      6   0.000000D+00 -0.136631D+00 -0.176698D+00  0.000000D+00 -0.132571D+00
      7   0.460576D+00  0.000000D+00  0.000000D+00 -0.279462D-01  0.000000D+00
      8   0.149435D+00  0.000000D+00  0.000000D+00  0.625618D-02  0.000000D+00
      9   0.568460D+00  0.000000D+00  0.000000D+00 -0.517316D-01  0.000000D+00
     10   0.000000D+00  0.298624D+00 -0.604529D+00  0.000000D+00  0.577929D-01
     11   0.000000D+00  0.852633D+00 -0.525660D+00  0.000000D+00  0.517193D+00
     12   0.000000D+00  0.292092D+00  0.418928D+00  0.000000D+00 -0.213665D+00
     13   0.000000D+00 -0.638901D+00  0.152868D+00  0.000000D+00 -0.554042D-01
     14   0.000000D+00  0.976930D-02 -0.213037D+00  0.000000D+00 -0.244301D+00
     15  -0.807136D+00  0.000000D+00  0.000000D+00  0.106874D+00  0.000000D+00
     16   0.742004D-01  0.000000D+00  0.000000D+00 -0.582257D-01  0.000000D+00
               726           727           728           729           730 
      1  -0.149951D+03 -0.149919D+03 -0.149908D+03 -0.149903D+03 -0.149890D+03
      2   0.405878D-01  0.699501D-01  0.000000D+00  0.000000D+00  0.000000D+00
      3  -0.106096D+00  0.471776D-01  0.000000D+00  0.000000D+00  0.000000D+00
      4   0.000000D+00  0.000000D+00 -0.127594D-01  0.679995D-02 -0.504885D-01
      5  -0.142389D+00 -0.245598D+00  0.000000D+00  0.000000D+00  0.000000D+00
      6   0.329629D+00 -0.136825D+00  0.000000D+00  0.000000D+00  0.000000D+00
      7   0.000000D+00  0.000000D+00  0.394586D-01 -0.200052D-01  0.143570D+00
      8   0.000000D+00  0.000000D+00 -0.156210D-01 -0.285600D-01 -0.221441D-01
      9   0.000000D+00  0.000000D+00 -0.647229D-01 -0.634022D-01 -0.797383D-01
     10  -0.721796D+00  0.870141D+00  0.000000D+00  0.000000D+00  0.000000D+00
     11  -0.107900D+00  0.381294D+00  0.000000D+00  0.000000D+00  0.000000D+00
     12   0.529340D+00 -0.363718D+00  0.000000D+00  0.000000D+00  0.000000D+00
     13   0.971503D-01  0.103110D+00  0.000000D+00  0.000000D+00  0.000000D+00
     14  -0.811368D+00  0.991617D+00  0.000000D+00  0.000000D+00  0.000000D+00
     15   0.000000D+00  0.000000D+00  0.100028D-01 -0.562182D-03  0.437849D-01
     16   0.000000D+00  0.000000D+00 -0.245405D+00  0.529518D+00  0.574903D-01
               731           732           733           734           735 
      1  -0.149884D+03 -0.149820D+03 -0.149783D+03 -0.149764D+03 -0.149755D+03
      2   0.786329D-01 -0.201350D-01  0.253015D-02  0.310458D-01  0.000000D+00
      3  -0.763122D-02  0.172600D+00  0.167694D+00  0.582038D-01  0.000000D+00
      4   0.000000D+00  0.000000D+00  0.000000D+00  0.000000D+00  0.895712D-02
      5  -0.283778D+00  0.727254D-01 -0.238885D-01 -0.995648D-01  0.000000D+00
      6   0.170830D-01 -0.578928D+00 -0.575740D+00 -0.196829D+00  0.000000D+00
      7   0.000000D+00  0.000000D+00  0.000000D+00  0.000000D+00 -0.301232D-01
      8   0.000000D+00  0.000000D+00  0.000000D+00  0.000000D+00 -0.925230D-01
      9   0.000000D+00  0.000000D+00  0.000000D+00  0.000000D+00 -0.155029D+00
     10   0.225776D+00  0.142020D+01  0.112478D+01  0.336434D+00  0.000000D+00
     11   0.105331D+01 -0.396707D+00  0.214316D+00  0.377025D+00  0.000000D+00
     12  -0.274867D+00 -0.890854D+00 -0.675992D+00 -0.673510D+00  0.000000D+00
     13  -0.941353D-02  0.815784D-02 -0.203916D-01  0.167987D+00  0.000000D+00
     14  -0.454112D+00  0.193726D+01  0.130884D+01  0.193430D+00  0.000000D+00
     15   0.000000D+00  0.000000D+00  0.000000D+00  0.000000D+00  0.649900D-01
     16   0.000000D+00  0.000000D+00  0.000000D+00  0.000000D+00 -0.154074D+00
               736           737           738           739           740 
      1  -0.149723D+03 -0.149692D+03 -0.149689D+03 -0.149652D+03 -0.149641D+03
      2   0.000000D+00  0.545059D-01 -0.273090D-01  0.000000D+00 -0.123151D+00
      3   0.000000D+00  0.478442D-01  0.101431D-01  0.000000D+00  0.622374D-01
      4   0.118415D+00  0.000000D+00  0.000000D+00  0.420128D-01  0.000000D+00
      5   0.000000D+00 -0.196221D+00  0.104498D+00  0.000000D+00  0.446429D+00
      6   0.000000D+00 -0.161492D+00 -0.332888D-01  0.000000D+00 -0.208407D+00
      7  -0.415986D+00  0.000000D+00  0.000000D+00 -0.142508D+00  0.000000D+00
      8  -0.322223D+00  0.000000D+00  0.000000D+00 -0.734435D-01  0.000000D+00
      9  -0.104525D+01  0.000000D+00  0.000000D+00 -0.363367D+00  0.000000D+00
     10   0.000000D+00  0.477979D+00 -0.120654D+00  0.000000D+00  0.165867D+00
     11   0.000000D+00  0.914775D+00 -0.782106D+00  0.000000D+00 -0.210865D+01
     12   0.000000D+00 -0.188581D+00  0.105626D+00  0.000000D+00 -0.167112D+00
     13   0.000000D+00  0.650034D-03 -0.123231D-02  0.000000D+00  0.371575D-01
     14   0.000000D+00  0.292656D+00  0.812225D-01  0.000000D+00  0.104405D+01
     15   0.131955D+01  0.000000D+00  0.000000D+00  0.534432D+00  0.000000D+00
     16  -0.291340D+00  0.000000D+00  0.000000D+00 -0.857445D-01  0.000000D+00
               741           742           743           744           745 
      1  -0.149621D+03 -0.149597D+03 -0.149591D+03 -0.149525D+03 -0.149365D+03
      2   0.629284D-02  0.216948D+00  0.000000D+00 -0.577925D-01  0.170003D-01
      3  -0.416116D-02  0.399402D-01  0.000000D+00  0.581756D-02  0.126029D-02
      4   0.000000D+00  0.000000D+00 -0.910085D-01  0.000000D+00  0.000000D+00
      5  -0.127965D-01 -0.828585D+00  0.000000D+00  0.247152D+00 -0.527072D-01
      6  -0.178851D-01 -0.137891D+00  0.000000D+00 -0.205690D-01 -0.208206D-02
      7   0.000000D+00  0.000000D+00  0.320456D+00  0.000000D+00  0.000000D+00
      8   0.000000D+00  0.000000D+00  0.215683D+00  0.000000D+00  0.000000D+00
      9   0.000000D+00  0.000000D+00  0.689671D+00  0.000000D+00  0.000000D+00
     10   0.148970D+00  0.957319D+00  0.000000D+00 -0.489892D-01  0.137441D-01
     11   0.963598D-01  0.419222D+01  0.000000D+00 -0.246386D+01 -0.349426D+00
     12  -0.324810D+00 -0.303464D+00  0.000000D+00  0.900629D-01  0.808914D-01
     13   0.419934D-01 -0.125105D+00  0.000000D+00  0.172069D+00  0.746938D-01
     14   0.385016D+00 -0.151167D+00  0.000000D+00  0.276628D+00 -0.158100D+00
     15   0.000000D+00  0.000000D+00 -0.582355D+00  0.000000D+00  0.000000D+00
     16   0.000000D+00  0.000000D+00  0.222202D+00  0.000000D+00  0.000000D+00
               746           747 
      1  -0.149332D+03 -0.149070D+03
      2  -0.754801D-02  0.135132D-01
      3   0.238584D-01  0.221241D-02
      4   0.000000D+00  0.000000D+00
      5   0.281350D-01  0.982097D-02
      6  -0.105264D+00 -0.689795D-02
      7   0.000000D+00  0.000000D+00
      8   0.000000D+00  0.000000D+00
      9   0.000000D+00  0.000000D+00
     10   0.421791D+00  0.249934D-01
     11  -0.937812D-01 -0.505630D+00
     12  -0.130005D+00 -0.102865D+00
     13   0.253659D-01 -0.697544D-01
     14   0.415940D+00  0.113846D-01
     15   0.000000D+00  0.000000D+00
     16   0.000000D+00  0.000000D+00
 Unable to Open any file for archive entry.
 1\1\GINC-HEL24\SP\RTPSSTPSS TD-FC\Gen\C2H4O1\SABYASACHI\21-Mar-2022\0\
 \#P TD(Nstates=10000) tpsstpss/Gen SCF(maxcycles=100) Int(Grid=ultrafi
 ne)\\xGDB7_00001_tier4.com\\0,1\C,0,0.926252,-0.719055,0.\C,0,0.,0.459
 276,0.\O,0,-1.196998,0.387135,0.\H,0,1.575966,-0.668677,0.877698\H,0,1
 .575966,-0.668677,-0.877698\H,0,0.366734,-1.652236,0.\H,0,0.499812,1.4
 51182,0.\\Version=EM64L-G16RevC.01\State=1-A'\HF=-153.7512499\RMSD=2.0
 28e-09\PG=CS [SG(C2H2O1),X(H2)]\\@
 The archive entry for this job was punched.


 WE ARE PERHAPS NOT FAR REMOVED FROM THE TIME WHEN WE SHALL BE ABLE TO SUBMIT
 THE BULK OF CHEMICAL PHENOMENA TO CALCULATION.

            -- JOSEPH LOUIS GAY-LUSSAC
               MEMOIRES DE LA SOCIETE D'ARCUEIL, 2, 207 (1808)
 Job cpu time:       0 days  0 hours 11 minutes 24.8 seconds.
 Elapsed time:       0 days  0 hours  1 minutes 25.9 seconds.
 File lengths (MBytes):  RWF=    280 Int=      0 D2E=      0 Chk=    165 Scr=      1
 Normal termination of Gaussian 16 at Mon Mar 21 20:25:06 2022.
