 Entering Gaussian System, Link 0=g16
 Input=bigQM7w_TDwB97XD_def2SVPD_at_def2TZVP_000009.com
 Output=bigQM7w_TDwB97XD_def2SVPD_at_def2TZVP_000009.log
 Initial command:
 /home/rr/g16/l1.exe "/scratch/rr/PBS_7962933.helios/Gau-16731.inp" -scrdir="/scratch/rr/PBS_7962933.helios/"
 Entering Link 1 = /home/rr/g16/l1.exe PID=     16736.
  
 Copyright (c) 1988-2019, Gaussian, Inc.  All Rights Reserved.
  
 This is part of the Gaussian(R) 16 program.  It is based on
 the Gaussian(R) 09 system (copyright 2009, Gaussian, Inc.),
 the Gaussian(R) 03 system (copyright 2003, Gaussian, Inc.),
 the Gaussian(R) 98 system (copyright 1998, Gaussian, Inc.),
 the Gaussian(R) 94 system (copyright 1995, Gaussian, Inc.),
 the Gaussian 92(TM) system (copyright 1992, Gaussian, Inc.),
 the Gaussian 90(TM) system (copyright 1990, Gaussian, Inc.),
 the Gaussian 88(TM) system (copyright 1988, Gaussian, Inc.),
 the Gaussian 86(TM) system (copyright 1986, Carnegie Mellon
 University), and the Gaussian 82(TM) system (copyright 1983,
 Carnegie Mellon University). Gaussian is a federally registered
 trademark of Gaussian, Inc.
  
 This software contains proprietary and confidential information,
 including trade secrets, belonging to Gaussian, Inc.
  
 This software is provided under written license and may be
 used, copied, transmitted, or stored only in accord with that
 written license.
  
 The following legend is applicable only to US Government
 contracts under FAR:
  
                    RESTRICTED RIGHTS LEGEND
  
 Use, reproduction and disclosure by the US Government is
 subject to restrictions as set forth in subparagraphs (a)
 and (c) of the Commercial Computer Software - Restricted
 Rights clause in FAR 52.227-19.
  
 Gaussian, Inc.
 340 Quinnipiac St., Bldg. 40, Wallingford CT 06492
  
  
 ---------------------------------------------------------------
 Warning -- This program may not be used in any manner that
 competes with the business of Gaussian, Inc. or will provide
 assistance to any competitor of Gaussian, Inc.  The licensee
 of this program is prohibited from giving any competitor of
 Gaussian, Inc. access to this program.  By using this program,
 the user acknowledges that Gaussian, Inc. is engaged in the
 business of creating and licensing software in the field of
 computational chemistry and represents and warrants to the
 licensee that it is not a competitor of Gaussian, Inc. and that
 it will not use this program in any manner prohibited above.
 ---------------------------------------------------------------
  

 Cite this work as:
 Gaussian 16, Revision C.01,
 M. J. Frisch, G. W. Trucks, H. B. Schlegel, G. E. Scuseria, 
 M. A. Robb, J. R. Cheeseman, G. Scalmani, V. Barone, 
 G. A. Petersson, H. Nakatsuji, X. Li, M. Caricato, A. V. Marenich, 
 J. Bloino, B. G. Janesko, R. Gomperts, B. Mennucci, H. P. Hratchian, 
 J. V. Ortiz, A. F. Izmaylov, J. L. Sonnenberg, D. Williams-Young, 
 F. Ding, F. Lipparini, F. Egidi, J. Goings, B. Peng, A. Petrone, 
 T. Henderson, D. Ranasinghe, V. G. Zakrzewski, J. Gao, N. Rega, 
 G. Zheng, W. Liang, M. Hada, M. Ehara, K. Toyota, R. Fukuda, 
 J. Hasegawa, M. Ishida, T. Nakajima, Y. Honda, O. Kitao, H. Nakai, 
 T. Vreven, K. Throssell, J. A. Montgomery, Jr., J. E. Peralta, 
 F. Ogliaro, M. J. Bearpark, J. J. Heyd, E. N. Brothers, K. N. Kudin, 
 V. N. Staroverov, T. A. Keith, R. Kobayashi, J. Normand, 
 K. Raghavachari, A. P. Rendell, J. C. Burant, S. S. Iyengar, 
 J. Tomasi, M. Cossi, J. M. Millam, M. Klene, C. Adamo, R. Cammi, 
 J. W. Ochterski, R. L. Martin, K. Morokuma, O. Farkas, 
 J. B. Foresman, and D. J. Fox, Gaussian, Inc., Wallingford CT, 2019.
 
 ******************************************
 Gaussian 16:  EM64L-G16RevC.01  3-Jul-2019
                21-Mar-2022 
 ******************************************
 %mem=64gb
 %nproc=8
 Will use up to    8 processors via shared memory.
 ----------------------------------------------------------------------
 #P TD(Nstates=10000) wB97XD/Gen SCF(maxcycles=100) Int(Grid=ultrafine)
 ----------------------------------------------------------------------
 1/38=1,172=1/1;
 2/12=2,17=6,18=5,40=1/2;
 3/5=7,11=9,25=1,30=1,74=-58,75=-5/1,2,3,8;
 4//1;
 5/5=2,7=100,38=5/2;
 8/6=1,10=1,108=10000/1;
 9/41=10000,42=1,70=2/14;
 6/7=2,8=2,9=2,10=2/1;
 99/5=1,9=1/99;
 Leave Link    1 at Mon Mar 21 15:54:23 2022, MaxMem=  8589934592 cpu:               0.4 elap:               0.1
 (Enter /home/rr/g16/l101.exe)
 ---------------------
 xGDB7_00001_tier4.com
 ---------------------
 Symbolic Z-matrix:
 Charge =  0 Multiplicity = 1
 9                     0.        0.        0.68819 
 9                     0.        0.       -0.68819 
 
 ITRead=  0  0
 MicOpt= -1 -1
 NAtoms=      2 NQM=        2 NQMF=       0 NMMI=      0 NMMIF=      0
                NMic=       0 NMicF=      0.
                    Isotopes and Nuclear Properties:
 (Nuclear quadrupole moments (NQMom) in fm**2, nuclear magnetic moments (NMagM)
  in nuclear magnetons)

  Atom         1           2
 IAtWgt=          19          19
 AtmWgt=  18.9984033  18.9984033
 NucSpn=           1           1
 AtZEff=  -0.0000000  -0.0000000
 NQMom=    0.0000000   0.0000000
 NMagM=    2.6288670   2.6288670
 AtZNuc=   9.0000000   9.0000000
 Leave Link  101 at Mon Mar 21 15:54:23 2022, MaxMem=  8589934592 cpu:               0.8 elap:               0.1
 (Enter /home/rr/g16/l202.exe)
                          Input orientation:                          
 ---------------------------------------------------------------------
 Center     Atomic      Atomic             Coordinates (Angstroms)
 Number     Number       Type             X           Y           Z
 ---------------------------------------------------------------------
      1          9           0        0.000000    0.000000    0.688193
      2          9           0        0.000000    0.000000   -0.688193
 ---------------------------------------------------------------------
 Stoichiometry    F2
 Framework group  D*H[C*(F.F)]
 Deg. of freedom     1
 Full point group                 D*H     NOp   8
 Largest Abelian subgroup         D2H     NOp   8
 Largest concise Abelian subgroup C2      NOp   2
                         Standard orientation:                         
 ---------------------------------------------------------------------
 Center     Atomic      Atomic             Coordinates (Angstroms)
 Number     Number       Type             X           Y           Z
 ---------------------------------------------------------------------
      1          9           0        0.000000    0.000000    0.688193
      2          9           0        0.000000    0.000000   -0.688193
 ---------------------------------------------------------------------
 Rotational constants (GHZ):           0.0000000          28.0833945          28.0833945
 Leave Link  202 at Mon Mar 21 15:54:24 2022, MaxMem=  8589934592 cpu:               0.1 elap:               0.0
 (Enter /home/rr/g16/l301.exe)
 General basis read from cards:  (5D, 7F)
 Centers:       1      2
 S 5 1.00
     Exponent=  2.8948325990D+03 Coefficients= -5.3408255515D-03
     Exponent=  4.3541939120D+02 Coefficients= -3.9904258866D-02
     Exponent=  9.8843328866D+01 Coefficients= -1.7912768038D-01
     Exponent=  2.7485198001D+01 Coefficients= -4.6758090825D-01
     Exponent=  8.5405498171D+00 Coefficients= -4.4653131020D-01
 S 1 1.00
     Exponent=  1.0654578038D+00 Coefficients=  1.0000000000D+00
 S 1 1.00
     Exponent=  3.3247346748D-01 Coefficients=  1.0000000000D+00
 S 1 1.00
     Exponent=  9.8097752264D-02 Coefficients=  1.0000000000D+00
 P 3 1.00
     Exponent=  2.2696633924D+01 Coefficients= -4.5212874436D-02
     Exponent=  4.9872339257D+00 Coefficients= -2.3754317067D-01
     Exponent=  1.3491613954D+00 Coefficients= -5.1287353587D-01
 P 1 1.00
     Exponent=  3.4829881977D-01 Coefficients=  1.0000000000D+00
 P 1 1.00
     Exponent=  8.3372148304D-02 Coefficients=  1.0000000000D+00
 D 1 1.00
     Exponent=  1.4000000000D+00 Coefficients=  1.0000000000D+00
 D 1 1.00
     Exponent=  2.2301361948D-01 Coefficients=  1.0000000000D+00
 ****
 Ernie: Thresh=  0.10000D-02 Tol=  0.10000D-05 Strict=F.
 There are    13 symmetry adapted cartesian basis functions of AG  symmetry.
 There are     2 symmetry adapted cartesian basis functions of B1G symmetry.
 There are     5 symmetry adapted cartesian basis functions of B2G symmetry.
 There are     5 symmetry adapted cartesian basis functions of B3G symmetry.
 There are     2 symmetry adapted cartesian basis functions of AU  symmetry.
 There are    13 symmetry adapted cartesian basis functions of B1U symmetry.
 There are     5 symmetry adapted cartesian basis functions of B2U symmetry.
 There are     5 symmetry adapted cartesian basis functions of B3U symmetry.
 There are    11 symmetry adapted basis functions of AG  symmetry.
 There are     2 symmetry adapted basis functions of B1G symmetry.
 There are     5 symmetry adapted basis functions of B2G symmetry.
 There are     5 symmetry adapted basis functions of B3G symmetry.
 There are     2 symmetry adapted basis functions of AU  symmetry.
 There are    11 symmetry adapted basis functions of B1U symmetry.
 There are     5 symmetry adapted basis functions of B2U symmetry.
 There are     5 symmetry adapted basis functions of B3U symmetry.
    46 basis functions,    70 primitive gaussians,    50 cartesian basis functions
     9 alpha electrons        9 beta electrons
       nuclear repulsion energy        31.1419573321 Hartrees.
 IExCor= 4639 DFT=T Ex+Corr=wB97XD ExCW=0 ScaHFX=  1.000000
 ScaDFX=  1.000000  1.000000  1.000000  1.000000 ScalE2=  1.000000  1.000000
 IRadAn=      5 IRanWt=     -1 IRanGd=            0 ICorTp=0 IEmpDi=121
 HFx  wShort=  0.000000 wLong=  0.200000 cFull=  0.222036 cShort=  0.000000 cLong=  0.777964
 DFx  wShort=  0.000000 wLong=  0.200000 cFull=  0.000000 cShort=  0.000000 cLong=  1.000000
 NAtoms=    2 NActive=    2 NUniq=    1 SFac= 4.00D+00 NAtFMM=   60 NAOKFM=F Big=F
 Integral buffers will be    131072 words long.
 Raffenetti 1 integral format.
 Two-electron integral symmetry is turned on.
 R6Disp:  Grimme-D2 Dispersion energy=       -0.0000038265 Hartrees.
 Nuclear repulsion after empirical dispersion term =       31.1419535057 Hartrees.
 Leave Link  301 at Mon Mar 21 15:54:24 2022, MaxMem=  8589934592 cpu:               0.5 elap:               0.1
 (Enter /home/rr/g16/l302.exe)
 NPDir=0 NMtPBC=     1 NCelOv=     1 NCel=       1 NClECP=     1 NCelD=      1
         NCelK=      1 NCelE2=     1 NClLst=     1 CellRange=     0.0.
 One-electron integrals computed using PRISM.
 One-electron integral symmetry used in STVInt
 NBasis=    46 RedAO= T EigKep=  2.60D-03  NBF=    11     2     5     5     2    11     5     5
 NBsUse=    46 1.00D-06 EigRej= -1.00D+00 NBFU=    11     2     5     5     2    11     5     5
 Precomputing XC quadrature grid using
 IXCGrd= 4 IRadAn=           5 IRanWt=          -1 IRanGd=           0 AccXCQ= 0.00D+00.
 Generated NRdTot=       0 NPtTot=           0 NUsed=           0 NTot=          32
 NSgBfM=    50    50    50    50    50 MxSgAt=     2 MxSgA2=     2.
 Leave Link  302 at Mon Mar 21 15:54:24 2022, MaxMem=  8589934592 cpu:               1.0 elap:               0.1
 (Enter /home/rr/g16/l303.exe)
 DipDrv:  MaxL=1.
 Leave Link  303 at Mon Mar 21 15:54:24 2022, MaxMem=  8589934592 cpu:               0.2 elap:               0.1
 (Enter /home/rr/g16/l308.exe)
 Leave Link  308 at Mon Mar 21 15:54:24 2022, MaxMem=  8589934592 cpu:               0.2 elap:               0.1
 (Enter /home/rr/g16/l401.exe)
 ExpMin= 8.34D-02 ExpMax= 2.89D+03 ExpMxC= 4.35D+02 IAcc=3 IRadAn=         5 AccDes= 0.00D+00
 Harris functional with IExCor= 4639 and IRadAn=       5 diagonalized for initial guess.
 HarFok:  IExCor= 4639 AccDes= 0.00D+00 IRadAn=         5 IDoV= 1 UseB2=F ITyADJ=14
 ICtDFT=  3500011 ScaDFX=  1.000000  1.000000  1.000000  1.000000
 FoFCou: FMM=F IPFlag=           0 FMFlag=      100000 FMFlg1=           0
         NFxFlg=           0 DoJE=T BraDBF=F KetDBF=T FulRan=T
         wScrn=  0.000000 ICntrl=       500 IOpCl=  0 I1Cent=   200000004 NGrid=           0
         NMat0=    1 NMatS0=      1 NMatT0=    0 NMatD0=    1 NMtDS0=    0 NMtDT0=    0
 Petite list used in FoFCou.
 Harris En= -193.465864774463    
 JPrj=0 DoOrth=F DoCkMO=F.
 Initial guess orbital symmetries:
       Occupied  (SGU) (SGG) (SGG) (SGU) (SGG) (PIU) (PIU) (PIG)
                 (PIG)
       Virtual   (SGU) (SGG) (SGU) (PIU) (PIU) (PIG) (PIG) (SGG)
                 (SGU) (DLTG) (DLTG) (PIU) (PIU) (DLTU) (DLTU)
                 (SGU) (SGG) (PIG) (PIG) (PIU) (PIU) (SGG) (SGU)
                 (PIG) (PIG) (SGG) (SGU) (SGG) (PIU) (PIU) (DLTG)
                 (DLTG) (DLTU) (DLTU) (PIG) (PIG) (SGU)
 The electronic state of the initial guess is 1-SGG.
 Leave Link  401 at Mon Mar 21 15:54:24 2022, MaxMem=  8589934592 cpu:               1.2 elap:               0.2
 (Enter /home/rr/g16/l502.exe)
 Keep R1 ints in memory in symmetry-blocked form, NReq=8208712.
 FoFCou: FMM=F IPFlag=           0 FMFlag=           0 FMFlg1=           0
         NFxFlg=           0 DoJE=F BraDBF=F KetDBF=F FulRan=T
         wScrn=  0.000000 ICntrl=       600 IOpCl=  0 I1Cent=           0 NGrid=           0
         NMat0=    1 NMatS0=   1081 NMatT0=    0 NMatD0=    1 NMtDS0=    0 NMtDT0=    0
 Petite list used in FoFCou.
 Closed shell SCF:
 Using DIIS extrapolation, IDIIS=  1040.
 NGot=  8589934592 LenX=  8589844957 LenY=  8589842016
 Requested convergence on RMS density matrix=1.00D-08 within 100 cycles.
 Requested convergence on MAX density matrix=1.00D-06.
 Requested convergence on             energy=1.00D-06.
 No special actions if energy rises.
 Integral accuracy reduced to 1.0D-05 until final iterations.

 Cycle   1  Pass 0  IDiag  1:
 E= -199.011399827582    
 DIIS: error= 9.08D-02 at cycle   1 NSaved=   1.
 NSaved= 1 IEnMin= 1 EnMin= -199.011399827582     IErMin= 1 ErrMin= 9.08D-02
 ErrMax= 9.08D-02  0.00D+00 EMaxC= 1.00D-01 BMatC= 4.69D-01 BMatP= 4.69D-01
 IDIUse=3 WtCom= 9.17D-02 WtEn= 9.08D-01
 Coeff-Com:  0.100D+01
 Coeff-En:   0.100D+01
 Coeff:      0.100D+01
 Gap=     0.622 Goal=   None    Shift=    0.000
 GapD=    0.622 DampG=2.000 DampE=0.500 DampFc=1.0000 IDamp=-1.
 RMSDP=1.44D-02 MaxDP=1.82D-01              OVMax= 1.78D-01

 Cycle   2  Pass 0  IDiag  1:
 E= -199.166108845137     Delta-E=       -0.154709017555 Rises=F Damp=F
 DIIS: error= 6.12D-02 at cycle   2 NSaved=   2.
 NSaved= 2 IEnMin= 2 EnMin= -199.166108845137     IErMin= 2 ErrMin= 6.12D-02
 ErrMax= 6.12D-02  0.00D+00 EMaxC= 1.00D-01 BMatC= 2.22D-01 BMatP= 4.69D-01
 IDIUse=3 WtCom= 3.88D-01 WtEn= 6.12D-01
 Coeff-Com:  0.404D+00 0.596D+00
 Coeff-En:   0.272D+00 0.728D+00
 Coeff:      0.323D+00 0.677D+00
 Gap=     0.459 Goal=   None    Shift=    0.000
 RMSDP=6.91D-03 MaxDP=9.81D-02 DE=-1.55D-01 OVMax= 7.30D-02

 Cycle   3  Pass 0  IDiag  1:
 E= -199.299597400520     Delta-E=       -0.133488555383 Rises=F Damp=F
 DIIS: error= 7.24D-03 at cycle   3 NSaved=   3.
 NSaved= 3 IEnMin= 3 EnMin= -199.299597400520     IErMin= 3 ErrMin= 7.24D-03
 ErrMax= 7.24D-03  0.00D+00 EMaxC= 1.00D-01 BMatC= 3.19D-03 BMatP= 2.22D-01
 IDIUse=3 WtCom= 9.28D-01 WtEn= 7.24D-02
 Coeff-Com: -0.373D-01 0.639D-01 0.973D+00
 Coeff-En:   0.000D+00 0.000D+00 0.100D+01
 Coeff:     -0.346D-01 0.593D-01 0.975D+00
 Gap=     0.450 Goal=   None    Shift=    0.000
 RMSDP=9.71D-04 MaxDP=9.72D-03 DE=-1.33D-01 OVMax= 1.10D-02

 Cycle   4  Pass 0  IDiag  1:
 E= -199.301730778212     Delta-E=       -0.002133377692 Rises=F Damp=F
 DIIS: error= 5.23D-04 at cycle   4 NSaved=   4.
 NSaved= 4 IEnMin= 4 EnMin= -199.301730778212     IErMin= 4 ErrMin= 5.23D-04
 ErrMax= 5.23D-04  0.00D+00 EMaxC= 1.00D-01 BMatC= 1.51D-05 BMatP= 3.19D-03
 IDIUse=3 WtCom= 9.95D-01 WtEn= 5.23D-03
 Coeff-Com:  0.315D-02-0.205D-01-0.133D+00 0.115D+01
 Coeff-En:   0.000D+00 0.000D+00 0.000D+00 0.100D+01
 Coeff:      0.313D-02-0.204D-01-0.133D+00 0.115D+01
 Gap=     0.450 Goal=   None    Shift=    0.000
 RMSDP=9.79D-05 MaxDP=8.77D-04 DE=-2.13D-03 OVMax= 7.47D-04

 Cycle   5  Pass 0  IDiag  1:
 E= -199.301741118610     Delta-E=       -0.000010340398 Rises=F Damp=F
 DIIS: error= 1.81D-05 at cycle   5 NSaved=   5.
 NSaved= 5 IEnMin= 5 EnMin= -199.301741118610     IErMin= 5 ErrMin= 1.81D-05
 ErrMax= 1.81D-05  0.00D+00 EMaxC= 1.00D-01 BMatC= 8.83D-09 BMatP= 1.51D-05
 IDIUse=1 WtCom= 1.00D+00 WtEn= 0.00D+00
 Coeff-Com: -0.326D-03 0.202D-02 0.131D-01-0.129D+00 0.111D+01
 Coeff:     -0.326D-03 0.202D-02 0.131D-01-0.129D+00 0.111D+01
 Gap=     0.450 Goal=   None    Shift=    0.000
 RMSDP=5.30D-06 MaxDP=4.18D-05 DE=-1.03D-05 OVMax= 4.24D-05

 Initial convergence to 1.0D-05 achieved.  Increase integral accuracy.
 Cycle   6  Pass 1  IDiag  1:
 E= -199.301725222893     Delta-E=        0.000015895717 Rises=F Damp=F
 DIIS: error= 1.03D-05 at cycle   1 NSaved=   1.
 NSaved= 1 IEnMin= 1 EnMin= -199.301725222893     IErMin= 1 ErrMin= 1.03D-05
 ErrMax= 1.03D-05  0.00D+00 EMaxC= 1.00D-01 BMatC= 6.73D-09 BMatP= 6.73D-09
 IDIUse=1 WtCom= 1.00D+00 WtEn= 0.00D+00
 Coeff-Com:  0.100D+01
 Coeff:      0.100D+01
 Gap=     0.450 Goal=   None    Shift=    0.000
 RMSDP=5.30D-06 MaxDP=4.18D-05 DE= 1.59D-05 OVMax= 1.79D-05

 Cycle   7  Pass 1  IDiag  1:
 E= -199.301725229085     Delta-E=       -0.000000006192 Rises=F Damp=F
 DIIS: error= 4.58D-06 at cycle   2 NSaved=   2.
 NSaved= 2 IEnMin= 2 EnMin= -199.301725229085     IErMin= 2 ErrMin= 4.58D-06
 ErrMax= 4.58D-06  0.00D+00 EMaxC= 1.00D-01 BMatC= 7.15D-10 BMatP= 6.73D-09
 IDIUse=1 WtCom= 1.00D+00 WtEn= 0.00D+00
 Coeff-Com:  0.137D+00 0.863D+00
 Coeff:      0.137D+00 0.863D+00
 Gap=     0.450 Goal=   None    Shift=    0.000
 RMSDP=4.82D-07 MaxDP=6.09D-06 DE=-6.19D-09 OVMax= 8.20D-06

 Cycle   8  Pass 1  IDiag  1:
 E= -199.301725229564     Delta-E=       -0.000000000479 Rises=F Damp=F
 DIIS: error= 1.84D-06 at cycle   3 NSaved=   3.
 NSaved= 3 IEnMin= 3 EnMin= -199.301725229564     IErMin= 3 ErrMin= 1.84D-06
 ErrMax= 1.84D-06  0.00D+00 EMaxC= 1.00D-01 BMatC= 1.67D-10 BMatP= 7.15D-10
 IDIUse=1 WtCom= 1.00D+00 WtEn= 0.00D+00
 Coeff-Com: -0.667D-01 0.278D+00 0.789D+00
 Coeff:     -0.667D-01 0.278D+00 0.789D+00
 Gap=     0.450 Goal=   None    Shift=    0.000
 RMSDP=2.17D-07 MaxDP=2.74D-06 DE=-4.79D-10 OVMax= 2.12D-06

 Cycle   9  Pass 1  IDiag  1:
 E= -199.301725229672     Delta-E=       -0.000000000108 Rises=F Damp=F
 DIIS: error= 1.30D-07 at cycle   4 NSaved=   4.
 NSaved= 4 IEnMin= 4 EnMin= -199.301725229672     IErMin= 4 ErrMin= 1.30D-07
 ErrMax= 1.30D-07  0.00D+00 EMaxC= 1.00D-01 BMatC= 3.21D-13 BMatP= 1.67D-10
 IDIUse=1 WtCom= 1.00D+00 WtEn= 0.00D+00
 Coeff-Com:  0.191D-02-0.276D-01-0.568D-01 0.108D+01
 Coeff:      0.191D-02-0.276D-01-0.568D-01 0.108D+01
 Gap=     0.450 Goal=   None    Shift=    0.000
 RMSDP=1.73D-08 MaxDP=1.37D-07 DE=-1.08D-10 OVMax= 3.34D-07

 Cycle  10  Pass 1  IDiag  1:
 E= -199.301725229672     Delta-E=       -0.000000000000 Rises=F Damp=F
 DIIS: error= 2.60D-08 at cycle   5 NSaved=   5.
 NSaved= 5 IEnMin= 5 EnMin= -199.301725229672     IErMin= 5 ErrMin= 2.60D-08
 ErrMax= 2.60D-08  0.00D+00 EMaxC= 1.00D-01 BMatC= 2.67D-14 BMatP= 3.21D-13
 IDIUse=1 WtCom= 1.00D+00 WtEn= 0.00D+00
 Coeff-Com:  0.312D-02-0.152D-01-0.395D-01 0.242D+00 0.810D+00
 Coeff:      0.312D-02-0.152D-01-0.395D-01 0.242D+00 0.810D+00
 Gap=     0.450 Goal=   None    Shift=    0.000
 RMSDP=2.53D-09 MaxDP=2.01D-08 DE=-5.68D-14 OVMax= 3.66D-08

 SCF Done:  E(RwB97XD) =  -199.301725230     A.U. after   10 cycles
            NFock= 10  Conv=0.25D-08     -V/T= 2.0048
 KE= 1.983449986274D+02 PE=-5.379880563819D+02 EE= 1.091993790192D+02
 Leave Link  502 at Mon Mar 21 15:54:24 2022, MaxMem=  8589934592 cpu:               2.4 elap:               0.3
 (Enter /home/rr/g16/l801.exe)
 DoSCS=F DFT=T ScalE2(SS,OS)=  1.000000  1.000000
 ExpMin= 8.34D-02 ExpMax= 2.89D+03 ExpMxC= 4.35D+02 IAcc=3 IRadAn=         5 AccDes= 0.00D+00
 HarFok:  IExCor=  205 AccDes= 0.00D+00 IRadAn=         5 IDoV=-2 UseB2=F ITyADJ=14
 ICtDFT= 12500011 ScaDFX=  1.000000  1.000000  1.000000  1.000000
 Largest valence mixing into a core orbital is  3.86D-05
 Largest core mixing into a valence orbital is  1.53D-05
 Range of M.O.s used for correlation:     3    46
 NBasis=    46 NAE=     9 NBE=     9 NFC=     2 NFV=     0
 NROrb=     44 NOA=     7 NOB=     7 NVA=    37 NVB=    37
 Leave Link  801 at Mon Mar 21 15:54:24 2022, MaxMem=  8589934592 cpu:               0.4 elap:               0.1
 (Enter /home/rr/g16/l914.exe)
 RHF ground state
 Keep R1, R2, and R3 ints in memory in symmetry-blocked form, NReq=77772932.
 FoFCou: FMM=F IPFlag=           0 FMFlag=           0 FMFlg1=           0
         NFxFlg=           0 DoJE=F BraDBF=F KetDBF=F FulRan=T
         wScrn=  0.000000 ICntrl=       600 IOpCl=  0 I1Cent=           0 NGrid=           0
         NMat0=    1 NMatS0=   1081 NMatT0=    0 NMatD0=    1 NMtDS0=    0 NMtDT0=    0
 Petite list used in FoFCou.
 MDV=  8589934592 DFT=T DoStab=F Mixed=T DoRPA=T DoScal=F NonHer=T
 Making orbital integer symmetry assigments:
 Orbital symmetries:
       Occupied  (SGU) (SGG) (SGG) (SGU) (SGG) (PIU) (PIU) (PIG)
                 (PIG)
       Virtual   (SGU) (SGU) (SGG) (PIU) (PIU) (PIG) (PIG) (SGG)
                 (SGU) (DLTG) (DLTG) (PIU) (PIU) (DLTU) (DLTU)
                 (SGU) (PIG) (PIG) (SGG) (PIU) (PIU) (SGG) (SGU)
                 (PIG) (PIG) (SGG) (SGU) (SGG) (PIU) (PIU) (DLTG)
                 (DLTG) (DLTU) (DLTU) (PIG) (PIG) (SGU)
   259 initial guesses have been made.
 Convergence on wavefunction:    0.001000000000000
 Davidson Disk Diagonalization:  ConvIn= 1.00D-03 SkipCon=T Conv= 1.00D-03.
 Max sub-space:  1554 roots to seek:   518 dimension of matrix:          518
 *** WARNING: Number of orthogonal guesses is          259
 Iteration     1 Dimension   259 NMult     0 NNew    259
 CISAX will form   259 AO SS matrices at one time.
 NMat=   259 NSing=   259 JSym2X=-1.
 DSYEVD-2 returned Info=       50959 IAlg= 4 N=   259 NDim=   259 NE2=    33164823 trying  DSYEV.
 New state      5 was old state      8
 New state      6 was old state      9
 New state      7 was old state      6
 New state      8 was old state      7
 New state      9 was old state      5
 New state     11 was old state     12
 New state     12 was old state     13
 New state     13 was old state     18
 New state     14 was old state     19
 New state     15 was old state     14
 New state     16 was old state     15
 New state     17 was old state     16
 New state     18 was old state     11
 New state     19 was old state     17
 New state     20 was old state     23
 New state     21 was old state     22
 New state     22 was old state     20
 New state     23 was old state     21
 New state     24 was old state     25
 New state     25 was old state     26
 New state     26 was old state     28
 New state     27 was old state     29
 New state     28 was old state     27
 New state     29 was old state     24
 New state     30 was old state     35
 New state     31 was old state     34
 New state     32 was old state     36
 New state     33 was old state     37
 New state     34 was old state     32
 New state     35 was old state     30
 New state     36 was old state     31
 New state     37 was old state     33
 New state     38 was old state     41
 New state     39 was old state     40
 New state     40 was old state     38
 New state     41 was old state     39
 New state     43 was old state     46
 New state     44 was old state     45
 New state     45 was old state     43
 New state     46 was old state     44
 New state     48 was old state     49
 New state     49 was old state     48
 New state     50 was old state     54
 New state     51 was old state     53
 New state     52 was old state     50
 New state     53 was old state     55
 New state     54 was old state     56
 New state     55 was old state     58
 New state     56 was old state     51
 New state     57 was old state     52
 New state     58 was old state     59
 New state     59 was old state     60
 New state     60 was old state     57
 New state     63 was old state     66
 New state     64 was old state     65
 New state     65 was old state     63
 New state     66 was old state     64
 New state     67 was old state     75
 New state     68 was old state     76
 New state     69 was old state     78
 New state     70 was old state     73
 New state     71 was old state     72
 New state     72 was old state     77
 New state     73 was old state     68
 New state     74 was old state     69
 New state     75 was old state     70
 New state     76 was old state     74
 New state     77 was old state     67
 New state     78 was old state     79
 New state     79 was old state     71
 New state     84 was old state     86
 New state     85 was old state     87
 New state     86 was old state     85
 New state     87 was old state     84
 New state     90 was old state     95
 New state     91 was old state     93
 New state     92 was old state     94
 New state     93 was old state     91
 New state     94 was old state     90
 New state     95 was old state     92
 New state     96 was old state     99
 New state     97 was old state     98
 New state     98 was old state     97
 New state     99 was old state    101
 New state    101 was old state     96
 New state    102 was old state    103
 New state    103 was old state    102
 New state    105 was old state    106
 New state    106 was old state    105
 New state    108 was old state    109
 New state    109 was old state    108
 New state    110 was old state    113
 New state    111 was old state    114
 New state    113 was old state    110
 New state    114 was old state    111
 New state    115 was old state    116
 New state    116 was old state    117
 New state    117 was old state    115
 New state    118 was old state    119
 New state    119 was old state    120
 New state    120 was old state    126
 New state    121 was old state    125
 New state    122 was old state    127
 New state    123 was old state    121
 New state    124 was old state    122
 New state    125 was old state    123
 New state    126 was old state    124
 New state    127 was old state    134
 New state    128 was old state    135
 New state    129 was old state    118
 New state    130 was old state    129
 New state    131 was old state    130
 New state    132 was old state    137
 New state    133 was old state    136
 New state    134 was old state    133
 New state    135 was old state    131
 New state    136 was old state    132
 New state    137 was old state    128
 New state    138 was old state    140
 New state    139 was old state    141
 New state    140 was old state    139
 New state    141 was old state    138
 New state    142 was old state    152
 New state    143 was old state    153
 New state    144 was old state    145
 New state    145 was old state    151
 New state    146 was old state    150
 New state    147 was old state    149
 New state    148 was old state    142
 New state    149 was old state    143
 New state    150 was old state    147
 New state    151 was old state    146
 New state    152 was old state    144
 New state    153 was old state    155
 New state    155 was old state    156
 New state    156 was old state    168
 New state    157 was old state    159
 New state    158 was old state    161
 New state    159 was old state    160
 New state    160 was old state    164
 New state    161 was old state    163
 New state    162 was old state    157
 New state    163 was old state    158
 New state    164 was old state    165
 New state    165 was old state    166
 New state    166 was old state    167
 New state    167 was old state    170
 New state    168 was old state    169
 New state    169 was old state    171
 New state    170 was old state    148
 New state    171 was old state    173
 New state    173 was old state    175
 New state    175 was old state    181
 New state    178 was old state    182
 New state    181 was old state    178
 New state    182 was old state    184
 New state    184 was old state    185
 New state    185 was old state    186
 No map to state    186
 New state    188 was old state    189
 New state    189 was old state    188
 New state    191 was old state    192
 New state    192 was old state    191
 New state    195 was old state    196
 New state    196 was old state    197
 New state    197 was old state    195
 New state    198 was old state    200
 New state    199 was old state    202
 New state    200 was old state    199
 New state    201 was old state    198
 New state    202 was old state    205
 New state    203 was old state    206
 New state    204 was old state    203
 New state    205 was old state    204
 New state    206 was old state    212
 New state    207 was old state    211
 New state    208 was old state    201
 New state    209 was old state    208
 New state    210 was old state    207
 New state    211 was old state    210
 New state    212 was old state    209
 New state    213 was old state    216
 New state    214 was old state    215
 New state    215 was old state    217
 New state    216 was old state    218
 New state    217 was old state    220
 New state    218 was old state    219
 New state    219 was old state    224
 New state    220 was old state    223
 New state    221 was old state    226
 New state    222 was old state    227
 New state    223 was old state    228
 New state    224 was old state    222
 New state    225 was old state    221
 New state    226 was old state    229
 New state    227 was old state    231
 New state    228 was old state    233
 New state    229 was old state    230
 New state    230 was old state    213
 New state    231 was old state    214
 New state    232 was old state    225
 New state    233 was old state    232
 New state    234 was old state    236
 New state    235 was old state    237
 New state    236 was old state    234
 New state    237 was old state    235
 New state    245 was old state    246
 New state    246 was old state    245
 New state    251 was old state    252
 New state    252 was old state    251
 New state    253 was old state    254
 New state    254 was old state    253
 Excitation Energies [eV] at current iteration:
 Root      1 :     4.893292925471163
 Root      2 :     4.893292925471419
 Root      3 :     8.799918336864060
 Root      4 :     8.799918336864204
 Root      5 :    13.360553056518690
 Root      6 :    13.360553056518950
 Root      7 :    13.497226434801380
 Root      8 :    13.497226434801660
 Root      9 :    13.542904514166340
 Root     10 :    14.447394321385820
 Root     11 :    14.447436179230480
 Root     12 :    14.511204337386860
 Root     13 :    16.124438454684900
 Root     14 :    16.124438454685130
 Root     15 :    16.258267323843980
 Root     16 :    16.258291627492000
 Root     17 :    16.322006301113700
 Root     18 :    16.325365489706270
 Root     19 :    16.834469385529310
 Root     20 :    17.438526752937420
 Root     21 :    17.438526752937590
 Root     22 :    17.664732407597490
 Root     23 :    17.664732407597560
 Root     24 :    18.428562318088770
 Root     25 :    18.428573818994360
 Root     26 :    18.518293163882250
 Root     27 :    18.764352233193130
 Root     28 :    19.472907841453020
 Root     29 :    19.497046712265170
 Root     30 :    19.998723220024280
 Root     31 :    19.998723220024300
 Root     32 :    20.179464969803010
 Root     33 :    20.179464969803070
 Root     34 :    20.282018795427100
 Root     35 :    20.282019572090240
 Root     36 :    20.336011727354960
 Root     37 :    20.696482878484820
 Root     38 :    21.676582351681030
 Root     39 :    21.676582351681170
 Root     40 :    21.823594148000400
 Root     41 :    21.823594148000560
 Root     42 :    21.840023553282340
 Root     43 :    22.991267475784540
 Root     44 :    22.991267475784590
 Root     45 :    23.417463931342190
 Root     46 :    23.417463931342210
 Root     47 :    25.350875074028040
 Root     48 :    25.523317760096240
 Root     49 :    25.523317760096620
 Root     50 :    26.604531335021930
 Root     51 :    26.604531335021970
 Root     52 :    27.017355121197720
 Root     53 :    27.100842521570520
 Root     54 :    27.100996350410980
 Root     55 :    27.334141093162430
 Root     56 :    27.742666695415940
 Root     57 :    27.742666695415980
 Root     58 :    28.695471753381450
 Root     59 :    28.695484607343620
 Root     60 :    28.802732265753590
 Root     61 :    29.418567203193350
 Root     62 :    29.418567203193370
 Root     63 :    29.464810262749950
 Root     64 :    29.464810262750040
 Root     65 :    29.843939298158950
 Root     66 :    29.843939298158980
 Root     67 :    30.538446418742720
 Root     68 :    30.538543480615940
 Root     69 :    30.926081037356860
 Root     70 :    31.222118374096820
 Root     71 :    31.222118374096850
 Root     72 :    31.552282266662520
 Root     73 :    31.807950401913700
 Root     74 :    31.807986413949730
 Root     75 :    31.857902079370660
 Root     76 :    32.323299192719050
 Root     77 :    32.375128899525620
 Root     78 :    32.754427986792330
 Root     79 :    32.782312703320650
 Root     80 :    33.058569399410020
 Root     81 :    33.058569399410250
 Root     82 :    33.069603663229570
 Root     83 :    33.069603663229610
 Root     84 :    33.147021578198280
 Root     85 :    33.147021578198330
 Root     86 :    33.650360169603550
 Root     87 :    33.650360169603720
 Root     88 :    33.839898836714700
 Root     89 :    33.839898836714900
 Root     90 :    34.435713604194170
 Root     91 :    34.790766785878250
 Root     92 :    34.790853541465870
 Root     93 :    35.033090404111800
 Root     94 :    35.033090404112110
 Root     95 :    35.081330103529010
 Root     96 :    35.403370561060320
 Root     97 :    35.403377580425970
 Root     98 :    35.456617193097450
 Root     99 :    35.724658037437540
 Root    100 :    35.724658037437680
 Root    101 :    36.691579335740500
 Root    102 :    36.718156915494040
 Root    103 :    36.718156915494260
 Root    104 :    36.886629360193960
 Root    105 :    39.629543011605720
 Root    106 :    39.763478751566080
 Root    107 :    40.473052424667970
 Root    108 :    40.669421645482790
 Root    109 :    40.669421645482960
 Root    110 :    41.820346992687540
 Root    111 :    41.820374275051890
 Root    112 :    42.454757627394270
 Root    113 :    42.481485544042300
 Root    114 :    42.481485544042490
 Root    115 :    43.563052279093230
 Root    116 :    43.641688337305320
 Root    117 :    43.641709407876880
 Root    118 :    45.983252803248020
 Root    119 :    45.983252803248120
 Root    120 :    47.422960886423330
 Root    121 :    47.461695446283980
 Root    122 :    47.461745093828360
 Root    123 :    47.474815761536690
 Root    124 :    48.000266153759650
 Root    125 :    48.000383058596950
 Root    126 :    48.198704599344730
 Root    127 :    48.825819336421130
 Root    128 :    48.825819336421430
 Root    129 :    48.962356068872990
 Root    130 :    49.399528212602680
 Root    131 :    49.399545053209070
 Root    132 :    49.652273876687860
 Root    133 :    49.652273876690620
 Root    134 :    50.163927908106810
 Root    135 :    50.245148172060300
 Root    136 :    50.245148172060550
 Root    137 :    50.484776164186360
 Root    138 :    53.185262472290200
 Root    139 :    53.185262472291620
 Root    140 :    53.711948775129890
 Root    141 :    53.711948775131260
 Root    142 :    55.043158616507210
 Root    143 :    55.043158616507230
 Root    144 :    55.258650984422820
 Root    145 :    55.287816355641110
 Root    146 :    55.287870426686130
 Root    147 :    55.346180175614320
 Root    148 :    55.504356956485390
 Root    149 :    55.504486677332590
 Root    150 :    55.529030860823130
 Root    151 :    55.529030860824580
 Root    152 :    55.976061930387840
 Root    153 :    57.706617943667080
 Root    154 :    57.706617943667400
 Root    155 :    57.839769962128730
 Root    156 :    58.060973762796680
 Root    157 :    59.101157272864040
 Root    158 :    59.101181812160130
 Root    159 :    59.221393521289680
 Root    160 :    59.279613698106780
 Root    161 :    59.279613698107180
 Root    162 :    59.392087968921520
 Root    163 :    59.392087968922490
 Root    164 :    60.030619074413660
 Root    165 :    60.559695240198540
 Root    166 :    60.559695240199720
 Root    167 :    62.637132142131880
 Root    168 :    62.637132142132610
 Root    169 :    63.949693015300400
 Root    170 :    64.541291324452320
 Root    171 :    68.695836465425300
 Root    172 :    68.695836465426770
 Root    173 :    69.887424815343290
 Root    174 :    69.887424815345300
 Root    175 :    71.229934558731140
 Root    176 :    72.488486740635510
 Root    177 :    72.488486740637640
 Root    178 :    73.606574234802850
 Root    179 :    74.107151873453820
 Root    180 :    74.107151873454240
 Root    181 :    75.116908785390480
 Root    182 :    75.784608268039420
 Root    183 :    77.480401867314010
 Root    184 :    81.337161408596320
 Root    185 :    81.337161408596560
 Root    186 :    82.024837636295600
 Root    187 :    82.521123721721550
 Root    188 :    86.104464715371210
 Root    189 :    86.104464715371450
 Root    190 :    87.995824323365130
 Root    191 :    89.895560108849910
 Root    192 :    89.895560108849930
 Root    193 :    90.141009868748360
 Root    194 :    90.141027711798330
 Root    195 :    90.263431240689570
 Root    196 :    91.722004129243400
 Root    197 :    93.196325040313980
 Root    198 :    93.974216816090110
 Root    199 :    93.974245453593750
 Root    200 :    94.097955251335690
 Root    201 :    95.489097701035900
 Root    202 :    95.728549429133350
 Root    203 :    95.728549429133510
 Root    204 :    96.003981046437430
 Root    205 :    96.003981046437560
 Root    206 :    97.058786324760110
 Root    207 :    97.058786324760160
 Root    208 :    98.108574128111910
 Root    209 :    98.636898006984000
 Root    210 :    98.636898006984110
 Root    211 :   100.155050153065000
 Root    212 :   100.155050153065100
 Root    213 :   100.594915531602000
 Root    214 :   100.594915531602100
 Root    215 :   101.583780139220100
 Root    216 :   101.583856945671200
 Root    217 :   101.931479095832100
 Root    218 :   101.931479095832200
 Root    219 :   102.792590721877700
 Root    220 :   102.792595494085000
 Root    221 :   102.846456759032100
 Root    222 :   103.200145544971800
 Root    223 :   103.200228733640500
 Root    224 :   104.003884381951400
 Root    225 :   104.003884381951500
 Root    226 :   105.050461361963900
 Root    227 :   106.600219877253500
 Root    228 :   106.600221750809900
 Root    229 :   106.692314707817500
 Root    230 :   106.715222161345900
 Root    231 :   106.715222161346000
 Root    232 :   108.050291447742300
 Root    233 :   109.512416978404300
 Root    234 :   109.725214847449100
 Root    235 :   109.725214847449500
 Root    236 :   111.065649941237300
 Root    237 :   111.065649941237500
 Root    238 :   113.172379248816500
 Root    239 :   115.581572170202500
 Root    240 :   115.581667884088700
 Root    241 :   117.286142838845100
 Root    242 :   117.286230165865300
 Root    243 :   117.469441259762500
 Root    244 :   117.469441259762600
 Root    245 :   122.169723736269500
 Root    246 :   122.169723736269700
 Root    247 :   122.813557818618000
 Root    248 :   122.813642069270600
 Root    249 :   124.389267162586100
 Root    250 :   124.389353724159700
 Root    251 :   129.204218548571500
 Root    252 :   129.204218548571700
 Root    253 :   131.017883246583100
 Root    254 :   131.017883246583700
 Root    255 :   134.710678774042000
 Root    256 :   134.710678774042200
 Root    257 :   136.988364410432400
 Root    258 :   149.580675029113000
 Root    259 :   156.536844885897700
 Convergence achieved for final wavefunctions.
 ***********************************************************************
 Excited states from <AA,BB:AA,BB> singles matrix:
 ***********************************************************************
 
 1PDM for each excited state written to RWF  633
 Ground to excited state transition densities written to RWF  633
 Ground to excited state transition electric dipole moments (Au):
       state          X           Y           Z        Dip. S.      Osc.
         1        -0.0184     -0.0115     -0.0000      0.0005      0.0001
         2         0.0115     -0.0184      0.0000      0.0005      0.0001
         3         0.0000      0.0000      0.0000      0.0000      0.0000
         4         0.0000      0.0000     -0.0000      0.0000      0.0000
         5         0.0000     -0.0000     -0.0000      0.0000      0.0000
         6        -0.0000      0.0000     -0.0000      0.0000      0.0000
         7        -0.3126      0.0358      0.0000      0.0990      0.0327
         8        -0.0358     -0.3126      0.0000      0.0990      0.0327
         9        -0.0000     -0.0000     -1.1556      1.3353      0.4430
        10        -0.0000      0.0000     -0.0000      0.0000      0.0000
        11         0.0000     -0.0000     -0.0000      0.0000      0.0000
        12         0.0000     -0.0000     -0.0000      0.0000      0.0000
        13         0.0000     -0.0000      0.0000      0.0000      0.0000
        14        -0.0000      0.0000     -0.0000      0.0000      0.0000
        15        -0.0000     -0.0000      0.0000      0.0000      0.0000
        16         0.0000      0.0000      0.0000      0.0000      0.0000
        17        -0.0000     -0.0000      0.0000      0.0000      0.0000
        18         0.0000     -0.0000     -0.8062      0.6499      0.2600
        19         0.0000      0.0000     -0.0000      0.0000      0.0000
        20        -0.1008      0.5341      0.0000      0.2954      0.1262
        21         0.5341      0.1008      0.0000      0.2954      0.1262
        22        -0.0000     -0.0000      0.0000      0.0000      0.0000
        23        -0.0000     -0.0000     -0.0000      0.0000      0.0000
        24        -0.0000      0.0000     -0.0000      0.0000      0.0000
        25         0.0000      0.0000      0.0000      0.0000      0.0000
        26         0.0000     -0.0000      0.0000      0.0000      0.0000
        27         0.0000      0.0000     -0.0000      0.0000      0.0000
        28         0.0000     -0.0000      0.0000      0.0000      0.0000
        29        -0.0000      0.0000      0.1259      0.0159      0.0076
        30         0.1241      0.0569     -0.0000      0.0186      0.0091
        31        -0.0569      0.1241      0.0000      0.0186      0.0091
        32        -0.3775     -0.0987     -0.0000      0.1522      0.0753
        33         0.0987     -0.3775     -0.0000      0.1522      0.0753
        34        -0.0000     -0.0000      0.0000      0.0000      0.0000
        35         0.0000      0.0000      0.0000      0.0000      0.0000
        36        -0.0000      0.0000     -0.0000      0.0000      0.0000
        37         0.0000      0.0000      0.1337      0.0179      0.0091
        38        -0.0902      0.3340     -0.0000      0.1197      0.0636
        39         0.3340      0.0902      0.0000      0.1197      0.0636
        40        -0.0000     -0.0000      0.0000      0.0000      0.0000
        41         0.0000      0.0000     -0.0000      0.0000      0.0000
        42         0.0000      0.0000     -0.0000      0.0000      0.0000
        43        -0.0000     -0.0000     -0.0000      0.0000      0.0000
        44         0.0000      0.0000      0.0000      0.0000      0.0000
        45        -0.0000     -0.0000     -0.0000      0.0000      0.0000
        46         0.0000     -0.0000     -0.0000      0.0000      0.0000
        47         0.0000      0.0000      0.0000      0.0000      0.0000
        48         0.0000     -0.0000     -0.0000      0.0000      0.0000
        49        -0.0000      0.0000      0.0000      0.0000      0.0000
        50         0.0000     -0.0000      0.0000      0.0000      0.0000
        51         0.0000      0.0000     -0.0000      0.0000      0.0000
        52        -0.0000     -0.0000      0.6731      0.4530      0.2999
        53         0.0000      0.0000     -0.0000      0.0000      0.0000
        54         0.0000     -0.0000      0.0000      0.0000      0.0000
        55         0.0000     -0.0000     -0.0000      0.0000      0.0000
        56         0.6408     -0.5407     -0.0000      0.7030      0.4778
        57        -0.5407     -0.6408     -0.0000      0.7030      0.4778
        58        -0.0000     -0.0000      0.0000      0.0000      0.0000
        59        -0.0000      0.0000      0.0000      0.0000      0.0000
        60        -0.0000     -0.0000      1.1530      1.3295      0.9382
        61         0.0004     -0.0001     -0.0000      0.0000      0.0000
        62        -0.0001     -0.0004      0.0000      0.0000      0.0000
        63        -0.0935     -0.1544     -0.0000      0.0326      0.0235
        64        -0.1544      0.0935     -0.0000      0.0326      0.0235
        65         0.0884      0.7191      0.0000      0.5249      0.3838
        66         0.7191     -0.0884      0.0000      0.5249      0.3838
        67         0.0000      0.0000      0.0000      0.0000      0.0000
        68         0.0000     -0.0000     -0.0000      0.0000      0.0000
        69         0.0000      0.0000      0.0000      0.0000      0.0000
        70        -0.0000     -0.0000     -0.0000      0.0000      0.0000
        71         0.0000     -0.0000     -0.0000      0.0000      0.0000
        72         0.0000      0.0000     -0.0000      0.0000      0.0000
        73        -0.0000     -0.0000      0.0000      0.0000      0.0000
        74        -0.0000     -0.0000     -0.0000      0.0000      0.0000
        75         0.0000     -0.0000     -0.0000      0.0000      0.0000
        76         0.0000     -0.0000      0.1532      0.0235      0.0186
        77        -0.0000     -0.0000      0.0000      0.0000      0.0000
        78        -0.0000      0.0000     -0.2777      0.0771      0.0619
        79        -0.0000     -0.0000     -0.0000      0.0000      0.0000
        80         0.0000      0.0000     -0.0000      0.0000      0.0000
        81         0.0000     -0.0000      0.0000      0.0000      0.0000
        82         0.1392      0.6863     -0.0000      0.4904      0.3973
        83         0.6863     -0.1392      0.0000      0.4904      0.3973
        84        -0.0000     -0.0000     -0.0000      0.0000      0.0000
        85        -0.0000      0.0000      0.0000      0.0000      0.0000
        86         0.0000     -0.0000     -0.0000      0.0000      0.0000
        87         0.0000      0.0000     -0.0000      0.0000      0.0000
        88         0.0000     -0.0000     -0.0000      0.0000      0.0000
        89         0.0000     -0.0000     -0.0000      0.0000      0.0000
        90        -0.0000     -0.0000      0.2426      0.0588      0.0496
        91         0.0000      0.0000      0.0000      0.0000      0.0000
        92        -0.0000      0.0000     -0.0000      0.0000      0.0000
        93         0.0036      0.0305     -0.0000      0.0009      0.0008
        94         0.0305     -0.0036     -0.0000      0.0009      0.0008
        95         0.0000     -0.0000      0.0067      0.0000      0.0000
        96         0.0000      0.0000     -0.0000      0.0000      0.0000
        97        -0.0000      0.0000      0.0000      0.0000      0.0000
        98         0.0000     -0.0000     -0.0000      0.0000      0.0000
        99         0.0134     -0.2670      0.0000      0.0715      0.0625
       100        -0.2670     -0.0134      0.0000      0.0715      0.0625
       101         0.0000      0.0000      0.2286      0.0523      0.0470
       102         0.0000      0.0000     -0.0000      0.0000      0.0000
       103        -0.0000      0.0000     -0.0000      0.0000      0.0000
       104        -0.0000     -0.0000     -0.0000      0.0000      0.0000
       105        -0.0000      0.0000     -0.0000      0.0000      0.0000
       106         0.0000      0.0000      0.0326      0.0011      0.0010
       107         0.0000     -0.0000      0.0000      0.0000      0.0000
       108        -0.0103     -0.0005     -0.0000      0.0001      0.0001
       109         0.0005     -0.0103     -0.0000      0.0001      0.0001
       110        -0.0000     -0.0000      0.0000      0.0000      0.0000
       111        -0.0000     -0.0000     -0.0000      0.0000      0.0000
       112         0.0000      0.0000     -0.0000      0.0000      0.0000
       113         0.0000     -0.0000     -0.0000      0.0000      0.0000
       114         0.0000     -0.0000     -0.0000      0.0000      0.0000
       115         0.0000      0.0000     -0.0000      0.0000      0.0000
       116        -0.0000     -0.0000      0.0000      0.0000      0.0000
       117        -0.0000      0.0000     -0.0000      0.0000      0.0000
       118         0.0000      0.0000      0.0000      0.0000      0.0000
       119        -0.0000      0.0000     -0.0000      0.0000      0.0000
       120        -0.0000     -0.0000     -0.0000      0.0000      0.0000
       121         0.0000      0.0000     -0.0000      0.0000      0.0000
       122         0.0000     -0.0000     -0.0000      0.0000      0.0000
       123         0.0000      0.0000     -0.1151      0.0133      0.0154
       124        -0.0000      0.0000      0.0000      0.0000      0.0000
       125        -0.0000     -0.0000     -0.0000      0.0000      0.0000
       126        -0.0000      0.0000     -0.0000      0.0000      0.0000
       127         0.1638     -0.0200      0.0000      0.0272      0.0326
       128         0.0200      0.1638     -0.0000      0.0272      0.0326
       129         0.0000      0.0000     -0.1831      0.0335      0.0402
       130        -0.0000      0.0000      0.0000      0.0000      0.0000
       131         0.0000     -0.0000     -0.0000      0.0000      0.0000
       132         0.0000     -0.0000     -0.0000      0.0000      0.0000
       133        -0.0000      0.0000     -0.0000      0.0000      0.0000
       134        -0.0000      0.0000     -0.1021      0.0104      0.0128
       135        -0.1000     -0.0100     -0.0000      0.0101      0.0124
       136         0.0100     -0.1000      0.0000      0.0101      0.0124
       137         0.0000      0.0000     -0.0000      0.0000      0.0000
       138         0.1799      0.0001      0.0000      0.0324      0.0422
       139        -0.0001      0.1799      0.0000      0.0324      0.0422
       140         0.3351     -0.0006     -0.0000      0.1123      0.1477
       141         0.0006      0.3351      0.0000      0.1123      0.1477
       142         0.0000     -0.0000      0.0000      0.0000      0.0000
       143         0.0000      0.0000      0.0000      0.0000      0.0000
       144        -0.0000     -0.0000     -0.0000      0.0000      0.0000
       145         0.0000     -0.0000      0.0000      0.0000      0.0000
       146        -0.0000     -0.0000     -0.0000      0.0000      0.0000
       147         0.0000      0.0000     -0.0000      0.0000      0.0000
       148         0.0000      0.0000     -0.0000      0.0000      0.0000
       149         0.0000     -0.0000      0.0000      0.0000      0.0000
       150         0.0005     -0.0696     -0.0000      0.0048      0.0066
       151        -0.0696     -0.0005     -0.0000      0.0048      0.0066
       152         0.0000     -0.0000     -0.0853      0.0073      0.0100
       153         0.0000      0.0000      0.0000      0.0000      0.0000
       154        -0.0000      0.0000      0.0000      0.0000      0.0000
       155        -0.0000     -0.0000      0.0000      0.0000      0.0000
       156        -0.0000      0.0000      0.0000      0.0000      0.0000
       157        -0.0000     -0.0000     -0.0000      0.0000      0.0000
       158        -0.0000     -0.0000      0.0000      0.0000      0.0000
       159        -0.0000      0.0000      0.0000      0.0000      0.0000
       160         0.0015     -0.0956     -0.0000      0.0091      0.0133
       161        -0.0956     -0.0015     -0.0000      0.0091      0.0133
       162         0.0000     -0.0000     -0.0000      0.0000      0.0000
       163        -0.0000      0.0000     -0.0000      0.0000      0.0000
       164        -0.0000     -0.0000     -0.1473      0.0217      0.0319
       165         0.0000      0.0000      0.0000      0.0000      0.0000
       166        -0.0000      0.0000      0.0000      0.0000      0.0000
       167        -0.0000     -0.0000      0.0000      0.0000      0.0000
       168         0.0000     -0.0000     -0.0000      0.0000      0.0000
       169         0.0000     -0.0000     -0.1080      0.0117      0.0183
       170        -0.0000     -0.0000      0.0000      0.0000      0.0000
       171         0.0027      0.2174     -0.0000      0.0473      0.0796
       172         0.2174     -0.0027     -0.0000      0.0473      0.0796
       173         0.0016     -0.3568      0.0000      0.1273      0.2179
       174        -0.3568     -0.0016      0.0000      0.1273      0.2179
       175         0.0000     -0.0000     -0.0755      0.0057      0.0099
       176        -0.0000     -0.0000     -0.0000      0.0000      0.0000
       177        -0.0000     -0.0000      0.0000      0.0000      0.0000
       178         0.0000      0.0000     -0.4010      0.1608      0.2900
       179        -0.2670     -0.0312     -0.0000      0.0723      0.1312
       180         0.0312     -0.2670      0.0000      0.0723      0.1312
       181         0.0000     -0.0000     -0.0000      0.0000      0.0000
       182         0.0000     -0.0000      0.0026      0.0000      0.0000
       183        -0.0000      0.0000     -0.0000      0.0000      0.0000
       184         0.0000      0.0000      0.0000      0.0000      0.0000
       185        -0.0000     -0.0000     -0.0000      0.0000      0.0000
       186         0.0000      0.0000      0.1414      0.0200      0.0402
       187         0.0000     -0.0000     -0.0000      0.0000      0.0000
       188        -0.0000     -0.0000     -0.0000      0.0000      0.0000
       189        -0.0000      0.0000      0.0000      0.0000      0.0000
       190         0.0000      0.0000     -0.0000      0.0000      0.0000
       191         0.0155     -0.0854      0.0000      0.0075      0.0166
       192        -0.0854     -0.0155     -0.0000      0.0075      0.0166
       193         0.0000      0.0000      0.0000      0.0000      0.0000
       194        -0.0000     -0.0000      0.0000      0.0000      0.0000
       195        -0.0000     -0.0000      0.0000      0.0000      0.0000
       196        -0.0000      0.0000     -0.0000      0.0000      0.0000
       197         0.0000     -0.0000      0.6242      0.3897      0.8897
       198        -0.0000      0.0000      0.0000      0.0000      0.0000
       199         0.0000      0.0000      0.0000      0.0000      0.0000
       200        -0.0000     -0.0000     -0.0000      0.0000      0.0000
       201         0.0000     -0.0000      0.0735      0.0054      0.0126
       202        -0.0000     -0.0000      0.0000      0.0000      0.0000
       203         0.0000      0.0000      0.0000      0.0000      0.0000
       204        -0.0270      0.0474      0.0000      0.0030      0.0070
       205         0.0474      0.0270      0.0000      0.0030      0.0070
       206        -0.0000      0.0000      0.0000      0.0000      0.0000
       207        -0.0000     -0.0000      0.0000      0.0000      0.0000
       208        -0.0000      0.0000     -0.0000      0.0000      0.0000
       209        -0.0000     -0.0000      0.0000      0.0000      0.0000
       210         0.0000      0.0000     -0.0000      0.0000      0.0000
       211         0.1566     -0.0163     -0.0000      0.0248      0.0608
       212         0.0163      0.1566      0.0000      0.0248      0.0608
       213        -0.0000      0.0000     -0.0000      0.0000      0.0000
       214        -0.0000     -0.0000      0.0000      0.0000      0.0000
       215        -0.0000      0.0000     -0.0000      0.0000      0.0000
       216        -0.0000      0.0000     -0.0000      0.0000      0.0000
       217         0.0000      0.0000      0.0000      0.0000      0.0000
       218        -0.0000     -0.0000      0.0000      0.0000      0.0000
       219        -0.0000     -0.0000      0.0000      0.0000      0.0000
       220        -0.0000     -0.0000     -0.0000      0.0000      0.0000
       221         0.0000     -0.0000     -0.0000      0.0000      0.0000
       222        -0.0000     -0.0000      0.0000      0.0000      0.0000
       223         0.0000     -0.0000     -0.0000      0.0000      0.0000
       224         0.0000      0.0000     -0.0000      0.0000      0.0000
       225        -0.0000      0.0000     -0.0000      0.0000      0.0000
       226        -0.0000     -0.0000      0.0492      0.0024      0.0062
       227         0.0000     -0.0000      0.0000      0.0000      0.0000
       228         0.0000     -0.0000      0.0000      0.0000      0.0000
       229        -0.0000     -0.0000      0.0000      0.0000      0.0000
       230        -0.1339     -0.8677     -0.0000      0.7708      2.0152
       231         0.8677     -0.1339     -0.0000      0.7708      2.0152
       232        -0.0000      0.0000     -0.0000      0.0000      0.0000
       233        -0.0000     -0.0000      0.4861      0.2363      0.6341
       234         0.0000     -0.0000     -0.0000      0.0000      0.0000
       235         0.0000     -0.0000     -0.0000      0.0000      0.0000
       236        -0.0000      0.0000     -0.0000      0.0000      0.0000
       237         0.0000     -0.0000      0.0000      0.0000      0.0000
       238        -0.0000      0.0000     -0.0000      0.0000      0.0000
       239         0.0000     -0.0000      0.0000      0.0000      0.0000
       240         0.0000     -0.0000     -0.0000      0.0000      0.0000
       241         0.0000     -0.0000      0.0000      0.0000      0.0000
       242         0.0000      0.0000      0.0000      0.0000      0.0000
       243         0.0072      0.1621     -0.0000      0.0263      0.0757
       244         0.1621     -0.0072      0.0000      0.0263      0.0757
       245        -0.0333      0.0225     -0.0000      0.0016      0.0048
       246        -0.0225     -0.0333      0.0000      0.0016      0.0048
       247        -0.0000      0.0000     -0.0000      0.0000      0.0000
       248        -0.0000     -0.0000      0.0000      0.0000      0.0000
       249         0.0000     -0.0000      0.0000      0.0000      0.0000
       250        -0.0000      0.0000     -0.0000      0.0000      0.0000
       251         0.0000     -0.0000      0.0000      0.0000      0.0000
       252        -0.0000      0.0000     -0.0000      0.0000      0.0000
       253        -0.0027     -0.1986      0.0000      0.0394      0.1266
       254        -0.1986      0.0027      0.0000      0.0394      0.1266
       255        -0.0000     -0.0000     -0.0000      0.0000      0.0000
       256        -0.0000     -0.0000      0.0000      0.0000      0.0000
       257         0.0000      0.0000      0.2672      0.0714      0.2395
       258         0.0000      0.0000     -0.0000      0.0000      0.0000
       259         0.0000     -0.0000      0.0483      0.0023      0.0089
 Ground to excited state transition velocity dipole moments (Au):
       state          X           Y           Z        Dip. S.      Osc.
         1         0.0134      0.0083      0.0000      0.0002      0.0009
         2        -0.0083      0.0134      0.0000      0.0002      0.0009
         3         0.0000     -0.0000     -0.0000      0.0000      0.0000
         4        -0.0000      0.0000      0.0000      0.0000      0.0000
         5         0.0000      0.0000      0.0000      0.0000      0.0000
         6         0.0000     -0.0000      0.0000      0.0000      0.0000
         7         0.1554     -0.0178      0.0000      0.0245      0.0329
         8         0.0178      0.1554      0.0000      0.0245      0.0329
         9         0.0000      0.0000      0.5816      0.3383      0.4532
        10         0.0000     -0.0000      0.0000      0.0000      0.0000
        11         0.0000      0.0000      0.0000      0.0000      0.0000
        12        -0.0000      0.0000      0.0000      0.0000      0.0000
        13         0.0000      0.0000     -0.0000      0.0000      0.0000
        14        -0.0000     -0.0000      0.0000      0.0000      0.0000
        15         0.0000      0.0000     -0.0000      0.0000      0.0000
        16        -0.0000     -0.0000     -0.0000      0.0000      0.0000
        17         0.0000      0.0000     -0.0000      0.0000      0.0000
        18        -0.0000      0.0000      0.4934      0.2435      0.2706
        19        -0.0000     -0.0000      0.0000      0.0000      0.0000
        20         0.0669     -0.3543     -0.0000      0.1300      0.1353
        21        -0.3543     -0.0669     -0.0000      0.1300      0.1353
        22         0.0000      0.0000     -0.0000      0.0000      0.0000
        23         0.0000      0.0000      0.0000      0.0000      0.0000
        24         0.0000     -0.0000      0.0000      0.0000      0.0000
        25        -0.0000     -0.0000     -0.0000      0.0000      0.0000
        26        -0.0000     -0.0000     -0.0000      0.0000      0.0000
        27        -0.0000     -0.0000      0.0000      0.0000      0.0000
        28        -0.0000      0.0000     -0.0000      0.0000      0.0000
        29        -0.0000     -0.0000     -0.0812      0.0066      0.0061
        30        -0.0813     -0.0373      0.0000      0.0080      0.0073
        31         0.0373     -0.0813     -0.0000      0.0080      0.0073
        32         0.2677      0.0700      0.0000      0.0766      0.0688
        33        -0.0700      0.2677      0.0000      0.0766      0.0688
        34         0.0000     -0.0000     -0.0000      0.0000      0.0000
        35        -0.0000      0.0000     -0.0000      0.0000      0.0000
        36         0.0000     -0.0000     -0.0000      0.0000      0.0000
        37        -0.0000     -0.0000     -0.1119      0.0125      0.0110
        38         0.0748     -0.2771      0.0000      0.0824      0.0689
        39        -0.2771     -0.0748     -0.0000      0.0824      0.0689
        40         0.0000      0.0000     -0.0000      0.0000      0.0000
        41        -0.0000     -0.0000      0.0000      0.0000      0.0000
        42        -0.0000     -0.0000      0.0000      0.0000      0.0000
        43         0.0000      0.0000      0.0000      0.0000      0.0000
        44        -0.0000     -0.0000     -0.0000      0.0000      0.0000
        45        -0.0000      0.0000      0.0000      0.0000      0.0000
        46        -0.0000      0.0000      0.0000      0.0000      0.0000
        47        -0.0000      0.0000     -0.0000      0.0000      0.0000
        48        -0.0000      0.0000      0.0000      0.0000      0.0000
        49         0.0000     -0.0000     -0.0000      0.0000      0.0000
        50        -0.0000      0.0000     -0.0000      0.0000      0.0000
        51        -0.0000     -0.0000      0.0000      0.0000      0.0000
        52         0.0000      0.0000     -0.6581      0.4331      0.2908
        53        -0.0000     -0.0000      0.0000      0.0000      0.0000
        54        -0.0000      0.0000     -0.0000      0.0000      0.0000
        55        -0.0000      0.0000      0.0000      0.0000      0.0000
        56        -0.6622      0.5587      0.0000      0.7506      0.4908
        57         0.5587      0.6622      0.0000      0.7506      0.4908
        58         0.0000     -0.0000     -0.0000      0.0000      0.0000
        59         0.0000     -0.0000     -0.0000      0.0000      0.0000
        60        -0.0000     -0.0000     -1.2632      1.5956      1.0049
        61        -0.0005      0.0001      0.0000      0.0000      0.0000
        62         0.0001      0.0005     -0.0000      0.0000      0.0000
        63         0.0916      0.1513     -0.0000      0.0313      0.0193
        64         0.1513     -0.0916     -0.0000      0.0313      0.0193
        65        -0.0988     -0.8040     -0.0000      0.6562      0.3989
        66        -0.8040      0.0988      0.0000      0.6562      0.3989
        67        -0.0000     -0.0000     -0.0000      0.0000      0.0000
        68        -0.0000      0.0000      0.0000      0.0000      0.0000
        69        -0.0000     -0.0000      0.0000      0.0000      0.0000
        70        -0.0000      0.0000      0.0000      0.0000      0.0000
        71        -0.0000      0.0000      0.0000      0.0000      0.0000
        72        -0.0000     -0.0000      0.0000      0.0000      0.0000
        73         0.0000      0.0000     -0.0000      0.0000      0.0000
        74         0.0000      0.0000      0.0000      0.0000      0.0000
        75        -0.0000      0.0000     -0.0000      0.0000      0.0000
        76         0.0000      0.0000     -0.2083      0.0434      0.0243
        77        -0.0000      0.0000     -0.0000      0.0000      0.0000
        78         0.0000     -0.0000      0.3224      0.1039      0.0576
        79         0.0000      0.0000      0.0000      0.0000      0.0000
        80        -0.0000     -0.0000      0.0000      0.0000      0.0000
        81        -0.0000      0.0000     -0.0000      0.0000      0.0000
        82        -0.1682     -0.8292      0.0000      0.7158      0.3927
        83        -0.8292      0.1682      0.0000      0.7158      0.3927
        84         0.0000      0.0000      0.0000      0.0000      0.0000
        85         0.0000     -0.0000     -0.0000      0.0000      0.0000
        86        -0.0000      0.0000      0.0000      0.0000      0.0000
        87        -0.0000     -0.0000      0.0000      0.0000      0.0000
        88        -0.0000      0.0000      0.0000      0.0000      0.0000
        89        -0.0000      0.0000      0.0000      0.0000      0.0000
        90        -0.0000      0.0000     -0.3217      0.1035      0.0545
        91         0.0000     -0.0000     -0.0000      0.0000      0.0000
        92         0.0000     -0.0000      0.0000      0.0000      0.0000
        93        -0.0054     -0.0457     -0.0000      0.0021      0.0011
        94        -0.0457      0.0054     -0.0000      0.0021      0.0011
        95         0.0000      0.0000     -0.0274      0.0007      0.0004
        96         0.0000     -0.0000      0.0000      0.0000      0.0000
        97         0.0000     -0.0000     -0.0000      0.0000      0.0000
        98        -0.0000      0.0000     -0.0000      0.0000      0.0000
        99        -0.0176      0.3513     -0.0000      0.1237      0.0628
       100         0.3513      0.0176     -0.0000      0.1237      0.0628
       101        -0.0000      0.0000     -0.3545      0.1257      0.0621
       102        -0.0000     -0.0000      0.0000      0.0000      0.0000
       103         0.0000     -0.0000      0.0000      0.0000      0.0000
       104         0.0000      0.0000      0.0000      0.0000      0.0000
       105         0.0000     -0.0000      0.0000      0.0000      0.0000
       106         0.0000     -0.0000     -0.0324      0.0011      0.0005
       107        -0.0000      0.0000      0.0000      0.0000      0.0000
       108         0.0171      0.0008      0.0000      0.0003      0.0001
       109        -0.0008      0.0171      0.0000      0.0003      0.0001
       110         0.0000      0.0000     -0.0000      0.0000      0.0000
       111         0.0000     -0.0000      0.0000      0.0000      0.0000
       112        -0.0000     -0.0000     -0.0000      0.0000      0.0000
       113        -0.0000      0.0000      0.0000      0.0000      0.0000
       114        -0.0000      0.0000     -0.0000      0.0000      0.0000
       115        -0.0000     -0.0000      0.0000      0.0000      0.0000
       116         0.0000      0.0000     -0.0000      0.0000      0.0000
       117         0.0000     -0.0000      0.0000      0.0000      0.0000
       118        -0.0000     -0.0000      0.0000      0.0000      0.0000
       119         0.0000     -0.0000      0.0000      0.0000      0.0000
       120         0.0000     -0.0000     -0.0000      0.0000      0.0000
       121         0.0000     -0.0000      0.0000      0.0000      0.0000
       122         0.0000     -0.0000      0.0000      0.0000      0.0000
       123        -0.0000     -0.0000      0.2089      0.0436      0.0167
       124         0.0000     -0.0000     -0.0000      0.0000      0.0000
       125         0.0000      0.0000      0.0000      0.0000      0.0000
       126         0.0000     -0.0000      0.0000      0.0000      0.0000
       127        -0.3075      0.0375     -0.0000      0.0960      0.0357
       128        -0.0375     -0.3075     -0.0000      0.0960      0.0357
       129        -0.0000     -0.0000      0.3194      0.1020      0.0378
       130         0.0000     -0.0000     -0.0000      0.0000      0.0000
       131        -0.0000      0.0000      0.0000      0.0000      0.0000
       132        -0.0000     -0.0000     -0.0000      0.0000      0.0000
       133         0.0000     -0.0000     -0.0000      0.0000      0.0000
       134         0.0000     -0.0000      0.1944      0.0378      0.0137
       135         0.1683      0.0169      0.0000      0.0286      0.0103
       136        -0.0169      0.1683     -0.0000      0.0286      0.0103
       137        -0.0000     -0.0000      0.0000      0.0000      0.0000
       138        -0.3650     -0.0001      0.0000      0.1332      0.0454
       139         0.0001     -0.3650     -0.0000      0.1332      0.0454
       140        -0.6395      0.0011      0.0000      0.4090      0.1381
       141        -0.0011     -0.6395      0.0000      0.4090      0.1381
       142        -0.0000      0.0000     -0.0000      0.0000      0.0000
       143         0.0000     -0.0000     -0.0000      0.0000      0.0000
       144         0.0000      0.0000     -0.0000      0.0000      0.0000
       145        -0.0000      0.0000      0.0000      0.0000      0.0000
       146         0.0000      0.0000      0.0000      0.0000      0.0000
       147        -0.0000     -0.0000      0.0000      0.0000      0.0000
       148        -0.0000     -0.0000      0.0000      0.0000      0.0000
       149        -0.0000      0.0000     -0.0000      0.0000      0.0000
       150        -0.0012      0.1494     -0.0000      0.0223      0.0073
       151         0.1494      0.0012     -0.0000      0.0223      0.0073
       152        -0.0000     -0.0000      0.1162      0.0135      0.0044
       153        -0.0000      0.0000     -0.0000      0.0000      0.0000
       154         0.0000     -0.0000     -0.0000      0.0000      0.0000
       155         0.0000      0.0000      0.0000      0.0000      0.0000
       156         0.0000     -0.0000     -0.0000      0.0000      0.0000
       157         0.0000      0.0000      0.0000      0.0000      0.0000
       158         0.0000      0.0000     -0.0000      0.0000      0.0000
       159         0.0000     -0.0000     -0.0000      0.0000      0.0000
       160        -0.0032      0.2070      0.0000      0.0429      0.0131
       161         0.2070      0.0032      0.0000      0.0429      0.0131
       162        -0.0000      0.0000      0.0000      0.0000      0.0000
       163         0.0000     -0.0000     -0.0000      0.0000      0.0000
       164         0.0000      0.0000      0.3714      0.1380      0.0417
       165        -0.0000      0.0000     -0.0000      0.0000      0.0000
       166         0.0000     -0.0000     -0.0000      0.0000      0.0000
       167         0.0000     -0.0000      0.0000      0.0000      0.0000
       168        -0.0000      0.0000     -0.0000      0.0000      0.0000
       169        -0.0000      0.0000      0.2367      0.0560      0.0159
       170         0.0000      0.0000      0.0000      0.0000      0.0000
       171        -0.0073     -0.5779      0.0000      0.3340      0.0882
       172        -0.5779      0.0073     -0.0000      0.3340      0.0882
       173        -0.0043      0.9722     -0.0000      0.9451      0.2453
       174         0.9722      0.0043     -0.0000      0.9451      0.2453
       175        -0.0000      0.0000      0.2467      0.0609      0.0155
       176         0.0000      0.0000      0.0000      0.0000      0.0000
       177         0.0000      0.0000     -0.0000      0.0000      0.0000
       178        -0.0000     -0.0000      1.1142      1.2415      0.3060
       179         0.8025      0.0939     -0.0000      0.6528      0.1598
       180        -0.0939      0.8025     -0.0000      0.6528      0.1598
       181        -0.0000      0.0000     -0.0000      0.0000      0.0000
       182        -0.0000     -0.0000     -0.0944      0.0089      0.0021
       183         0.0000     -0.0000     -0.0000      0.0000      0.0000
       184        -0.0000      0.0000     -0.0000      0.0000      0.0000
       185         0.0000     -0.0000      0.0000      0.0000      0.0000
       186        -0.0000     -0.0000     -0.4666      0.2178      0.0482
       187        -0.0000      0.0000      0.0000      0.0000      0.0000
       188         0.0000     -0.0000      0.0000      0.0000      0.0000
       189         0.0000     -0.0000     -0.0000      0.0000      0.0000
       190        -0.0000     -0.0000     -0.0000      0.0000      0.0000
       191        -0.0409      0.2261     -0.0000      0.0528      0.0107
       192         0.2261      0.0409      0.0000      0.0528      0.0107
       193        -0.0000     -0.0000     -0.0000      0.0000      0.0000
       194         0.0000      0.0000     -0.0000      0.0000      0.0000
       195         0.0000      0.0000     -0.0000      0.0000      0.0000
       196         0.0000     -0.0000      0.0000      0.0000      0.0000
       197        -0.0000      0.0000     -1.8157      3.2969      0.6417
       198         0.0000     -0.0000     -0.0000      0.0000      0.0000
       199        -0.0000     -0.0000     -0.0000      0.0000      0.0000
       200         0.0000      0.0000      0.0000      0.0000      0.0000
       201         0.0000      0.0000     -0.3493      0.1220      0.0232
       202         0.0000     -0.0000      0.0000      0.0000      0.0000
       203        -0.0000     -0.0000     -0.0000      0.0000      0.0000
       204         0.0589     -0.1034     -0.0000      0.0142      0.0027
       205        -0.1034     -0.0589     -0.0000      0.0142      0.0027
       206         0.0000     -0.0000     -0.0000      0.0000      0.0000
       207         0.0000      0.0000     -0.0000      0.0000      0.0000
       208         0.0000     -0.0000      0.0000      0.0000      0.0000
       209         0.0000      0.0000     -0.0000      0.0000      0.0000
       210        -0.0000     -0.0000      0.0000      0.0000      0.0000
       211        -0.5323      0.0556      0.0000      0.2865      0.0519
       212        -0.0556     -0.5323     -0.0000      0.2865      0.0519
       213         0.0000     -0.0001      0.0000      0.0000      0.0000
       214         0.0001      0.0000     -0.0000      0.0000      0.0000
       215         0.0000     -0.0000      0.0000      0.0000      0.0000
       216         0.0000      0.0000      0.0000      0.0000      0.0000
       217        -0.0000     -0.0000     -0.0000      0.0000      0.0000
       218         0.0000      0.0000     -0.0000      0.0000      0.0000
       219         0.0000      0.0000     -0.0000      0.0000      0.0000
       220         0.0000      0.0000      0.0000      0.0000      0.0000
       221        -0.0000      0.0000      0.0000      0.0000      0.0000
       222         0.0000      0.0000     -0.0000      0.0000      0.0000
       223        -0.0000      0.0000      0.0000      0.0000      0.0000
       224        -0.0000     -0.0000      0.0000      0.0000      0.0000
       225         0.0000     -0.0000      0.0000      0.0000      0.0000
       226         0.0000      0.0000     -0.1339      0.0179      0.0031
       227        -0.0000      0.0000     -0.0000      0.0000      0.0000
       228        -0.0000      0.0000     -0.0000      0.0000      0.0000
       229         0.0000      0.0000     -0.0000      0.0000      0.0000
       230         0.4544      2.9452      0.0000      8.8804      1.5096
       231        -2.9452      0.4544      0.0000      8.8804      1.5096
       232         0.0000     -0.0000      0.0000      0.0000      0.0000
       233         0.0000      0.0000     -1.8260      3.3341      0.5523
       234        -0.0000      0.0000      0.0000      0.0000      0.0000
       235        -0.0000      0.0000      0.0000      0.0000      0.0000
       236         0.0000     -0.0000      0.0000      0.0000      0.0000
       237        -0.0000      0.0000     -0.0000      0.0000      0.0000
       238         0.0000     -0.0000      0.0000      0.0000      0.0000
       239        -0.0000      0.0000      0.0000      0.0000      0.0000
       240        -0.0000      0.0000      0.0000      0.0000      0.0000
       241        -0.0000      0.0000     -0.0000      0.0000      0.0000
       242        -0.0000     -0.0000     -0.0000      0.0000      0.0000
       243        -0.0260     -0.5823      0.0000      0.3397      0.0525
       244        -0.5823      0.0260     -0.0000      0.3397      0.0525
       245         0.1288     -0.0870      0.0000      0.0242      0.0036
       246         0.0870      0.1288     -0.0000      0.0242      0.0036
       247         0.0000     -0.0000      0.0000      0.0000      0.0000
       248         0.0000      0.0000      0.0000      0.0000      0.0000
       249        -0.0000      0.0000     -0.0000      0.0000      0.0000
       250         0.0000     -0.0000      0.0000      0.0000      0.0000
       251         0.0000      0.0000     -0.0000      0.0000      0.0000
       252         0.0000     -0.0000      0.0000      0.0000      0.0000
       253         0.0115      0.8328     -0.0000      0.6937      0.0961
       254         0.8328     -0.0115     -0.0000      0.6937      0.0961
       255         0.0000      0.0000      0.0000      0.0000      0.0000
       256        -0.0000      0.0000     -0.0000      0.0000      0.0000
       257        -0.0000     -0.0000     -1.3927      1.9396      0.2569
       258        -0.0000     -0.0000      0.0000      0.0000      0.0000
       259        -0.0000      0.0000     -0.4063      0.1650      0.0191
 Ground to excited state transition magnetic dipole moments (Au):
       state          X           Y           Z
         1         0.0000     -0.0000      0.0000
         2        -0.0000     -0.0000      0.0000
         3        -0.0401     -1.0161      0.0000
         4         1.0161     -0.0401     -0.0000
         5        -0.0502     -0.6531     -0.0000
         6         0.6531     -0.0502      0.0000
         7        -0.0000      0.0000     -0.0000
         8         0.0000     -0.0000      0.0000
         9         0.0000      0.0000     -0.0000
        10        -0.0000     -0.0000      0.0000
        11         0.0000      0.0000     -0.0000
        12        -0.0000     -0.0000     -0.0000
        13        -0.0122      0.4920      0.0000
        14        -0.4920     -0.0122      0.0000
        15         0.0000      0.0000     -0.0000
        16         0.0000     -0.0000     -0.0000
        17         0.0000      0.0000      0.0000
        18        -0.0000      0.0000     -0.0000
        19         0.0000      0.0000     -0.0000
        20        -0.0000      0.0000     -0.0000
        21        -0.0000      0.0000     -0.0000
[...]
      9   0.000000D+00  0.000000D+00  0.113152D+00  0.527674D+00  0.000000D+00
     10   0.000000D+00  0.000000D+00  0.000000D+00  0.000000D+00  0.000000D+00
     11   0.000000D+00 -0.997555D+00  0.000000D+00  0.000000D+00  0.121601D+01
     12   0.000000D+00 -0.997555D+00  0.000000D+00  0.000000D+00  0.121601D+01
     13   0.000000D+00  0.584681D+00  0.000000D+00  0.000000D+00 -0.176499D+01
     14   0.000000D+00  0.000000D+00  0.000000D+00  0.000000D+00  0.000000D+00
     15   0.000000D+00  0.000000D+00  0.699156D-01  0.326044D+00  0.000000D+00
     16   0.000000D+00  0.000000D+00  0.326044D+00 -0.699156D-01  0.000000D+00
               191           192           193           194           195 
      1  -0.195998D+03 -0.195998D+03 -0.195989D+03 -0.195989D+03 -0.195985D+03
      2   0.154698D-01 -0.854116D-01  0.000000D+00  0.000000D+00  0.000000D+00
      3  -0.854116D-01 -0.154698D-01  0.000000D+00  0.000000D+00  0.000000D+00
      4   0.000000D+00  0.000000D+00  0.000000D+00  0.000000D+00  0.000000D+00
      5  -0.409429D-01  0.226054D+00  0.000000D+00  0.000000D+00  0.000000D+00
      6   0.226054D+00  0.409429D-01  0.000000D+00  0.000000D+00  0.000000D+00
      7   0.000000D+00  0.000000D+00  0.000000D+00  0.000000D+00  0.000000D+00
      8   0.000000D+00  0.000000D+00  0.000000D+00  0.000000D+00  0.000000D+00
      9   0.000000D+00  0.000000D+00  0.000000D+00  0.000000D+00  0.000000D+00
     10   0.000000D+00  0.000000D+00  0.000000D+00  0.000000D+00  0.000000D+00
     11   0.000000D+00  0.000000D+00  0.000000D+00  0.000000D+00  0.000000D+00
     12   0.000000D+00  0.000000D+00  0.000000D+00  0.000000D+00  0.000000D+00
     13   0.000000D+00  0.000000D+00  0.000000D+00  0.000000D+00  0.000000D+00
     14   0.000000D+00  0.000000D+00  0.000000D+00  0.000000D+00  0.000000D+00
     15   0.000000D+00  0.000000D+00  0.000000D+00  0.000000D+00  0.000000D+00
     16   0.000000D+00  0.000000D+00  0.000000D+00  0.000000D+00  0.000000D+00
               196           197           198           199           200 
      1  -0.195931D+03 -0.195877D+03 -0.195848D+03 -0.195848D+03 -0.195844D+03
      2   0.000000D+00  0.000000D+00  0.000000D+00  0.000000D+00  0.000000D+00
      3   0.000000D+00  0.000000D+00  0.000000D+00  0.000000D+00  0.000000D+00
      4   0.000000D+00  0.624222D+00  0.000000D+00  0.000000D+00  0.000000D+00
      5   0.000000D+00  0.000000D+00  0.000000D+00  0.000000D+00  0.000000D+00
      6   0.000000D+00  0.000000D+00  0.000000D+00  0.000000D+00  0.000000D+00
      7   0.000000D+00 -0.181573D+01  0.000000D+00  0.000000D+00  0.000000D+00
      8   0.000000D+00  0.000000D+00  0.000000D+00  0.000000D+00  0.000000D+00
      9   0.000000D+00  0.000000D+00  0.000000D+00  0.000000D+00  0.000000D+00
     10   0.000000D+00  0.000000D+00  0.000000D+00  0.000000D+00  0.000000D+00
     11   0.194240D-01  0.000000D+00 -0.120547D+00  0.000000D+00  0.000000D+00
     12   0.194240D-01  0.000000D+00  0.120547D+00  0.000000D+00  0.000000D+00
     13  -0.114707D+01  0.000000D+00  0.000000D+00  0.000000D+00  0.000000D+00
     14   0.000000D+00  0.000000D+00  0.000000D+00 -0.120545D+00  0.000000D+00
     15   0.000000D+00  0.000000D+00  0.000000D+00  0.000000D+00  0.000000D+00
     16   0.000000D+00  0.000000D+00  0.000000D+00  0.000000D+00  0.000000D+00
               201           202           203           204           205 
      1  -0.195793D+03 -0.195784D+03 -0.195784D+03 -0.195774D+03 -0.195774D+03
      2   0.000000D+00  0.000000D+00  0.000000D+00 -0.270100D-01  0.473913D-01
      3   0.000000D+00  0.000000D+00  0.000000D+00  0.473913D-01  0.270100D-01
      4   0.734903D-01  0.000000D+00  0.000000D+00  0.000000D+00  0.000000D+00
      5   0.000000D+00  0.000000D+00  0.000000D+00  0.589372D-01 -0.103410D+00
      6   0.000000D+00  0.000000D+00  0.000000D+00 -0.103410D+00 -0.589372D-01
      7  -0.349331D+00  0.000000D+00  0.000000D+00  0.000000D+00  0.000000D+00
      8   0.000000D+00  0.323498D-04  0.828391D-05  0.000000D+00  0.000000D+00
      9   0.000000D+00  0.828391D-05 -0.323498D-04  0.000000D+00  0.000000D+00
     10   0.000000D+00  0.000000D+00  0.000000D+00  0.000000D+00  0.000000D+00
     11   0.000000D+00  0.000000D+00  0.000000D+00  0.000000D+00  0.000000D+00
     12   0.000000D+00  0.000000D+00  0.000000D+00  0.000000D+00  0.000000D+00
     13   0.000000D+00  0.000000D+00  0.000000D+00  0.000000D+00  0.000000D+00
     14   0.000000D+00  0.000000D+00  0.000000D+00  0.000000D+00  0.000000D+00
     15   0.000000D+00  0.750654D-05 -0.293141D-04  0.000000D+00  0.000000D+00
     16   0.000000D+00 -0.293141D-04 -0.750654D-05  0.000000D+00  0.000000D+00
               206           207           208           209           210 
      1  -0.195735D+03 -0.195735D+03 -0.195696D+03 -0.195677D+03 -0.195677D+03
      2  -0.107882D-05 -0.505032D-05  0.000000D+00  0.000000D+00  0.000000D+00
      3   0.505032D-05 -0.107882D-05  0.000000D+00  0.000000D+00  0.000000D+00
      4   0.000000D+00  0.000000D+00  0.000000D+00  0.000000D+00  0.000000D+00
      5   0.347281D-05  0.162574D-04  0.000000D+00  0.000000D+00  0.000000D+00
      6  -0.162574D-04  0.347281D-05  0.000000D+00  0.000000D+00  0.000000D+00
      7   0.000000D+00  0.000000D+00  0.000000D+00  0.000000D+00  0.000000D+00
      8   0.000000D+00  0.000000D+00  0.000000D+00 -0.171170D+01  0.144469D+00
      9   0.000000D+00  0.000000D+00  0.000000D+00 -0.144469D+00 -0.171170D+01
     10   0.000000D+00  0.000000D+00  0.000000D+00  0.000000D+00  0.000000D+00
     11   0.000000D+00  0.000000D+00 -0.432117D+00  0.000000D+00  0.000000D+00
     12   0.000000D+00  0.000000D+00 -0.432117D+00  0.000000D+00  0.000000D+00
     13   0.000000D+00  0.000000D+00 -0.325828D+01  0.000000D+00  0.000000D+00
     14   0.000000D+00  0.000000D+00  0.000000D+00  0.000000D+00  0.000000D+00
     15   0.000000D+00  0.000000D+00  0.000000D+00 -0.129174D+00 -0.153048D+01
     16   0.000000D+00  0.000000D+00  0.000000D+00  0.153048D+01 -0.129174D+00
               211           212           213           214           215 
      1  -0.195621D+03 -0.195621D+03 -0.195605D+03 -0.195605D+03 -0.195569D+03
      2   0.156574D+00  0.163490D-01 -0.511721D-05 -0.176375D-04  0.000000D+00
      3  -0.163490D-01  0.156574D+00  0.176375D-04 -0.511721D-05  0.000000D+00
      4   0.000000D+00  0.000000D+00  0.000000D+00  0.000000D+00  0.000000D+00
      5  -0.532331D+00 -0.555846D-01  0.172958D-04  0.596136D-04  0.000000D+00
      6   0.555846D-01 -0.532331D+00 -0.596136D-04  0.172958D-04  0.000000D+00
      7   0.000000D+00  0.000000D+00  0.000000D+00  0.000000D+00  0.000000D+00
      8   0.000000D+00  0.000000D+00  0.000000D+00  0.000000D+00  0.000000D+00
      9   0.000000D+00  0.000000D+00  0.000000D+00  0.000000D+00  0.000000D+00
     10   0.000000D+00  0.000000D+00  0.000000D+00  0.000000D+00  0.000000D+00
     11   0.000000D+00  0.000000D+00  0.000000D+00  0.000000D+00  0.000000D+00
     12   0.000000D+00  0.000000D+00  0.000000D+00  0.000000D+00  0.000000D+00
     13   0.000000D+00  0.000000D+00  0.000000D+00  0.000000D+00  0.000000D+00
     14   0.000000D+00  0.000000D+00  0.000000D+00  0.000000D+00 -0.208274D+00
     15   0.000000D+00  0.000000D+00  0.000000D+00  0.000000D+00  0.000000D+00
     16   0.000000D+00  0.000000D+00  0.000000D+00  0.000000D+00  0.000000D+00
               216           217           218           219           220 
      1  -0.195569D+03 -0.195556D+03 -0.195556D+03 -0.195524D+03 -0.195524D+03
      2   0.000000D+00  0.000000D+00  0.000000D+00  0.000000D+00  0.000000D+00
      3   0.000000D+00  0.000000D+00  0.000000D+00  0.000000D+00  0.000000D+00
      4   0.000000D+00  0.000000D+00  0.000000D+00  0.000000D+00  0.000000D+00
      5   0.000000D+00  0.000000D+00  0.000000D+00  0.000000D+00  0.000000D+00
      6   0.000000D+00  0.000000D+00  0.000000D+00  0.000000D+00  0.000000D+00
      7   0.000000D+00  0.000000D+00  0.000000D+00  0.000000D+00  0.000000D+00
      8   0.000000D+00  0.000000D+00  0.457138D-04  0.000000D+00  0.000000D+00
      9   0.000000D+00 -0.457138D-04  0.000000D+00  0.000000D+00  0.000000D+00
     10   0.000000D+00  0.000000D+00  0.000000D+00  0.000000D+00  0.000000D+00
     11  -0.208274D+00  0.000000D+00  0.000000D+00  0.134652D+00  0.000000D+00
     12   0.208274D+00  0.000000D+00  0.000000D+00 -0.134652D+00  0.000000D+00
     13   0.000000D+00  0.000000D+00  0.000000D+00  0.000000D+00  0.000000D+00
     14   0.000000D+00  0.000000D+00  0.000000D+00  0.000000D+00  0.134652D+00
     15   0.000000D+00 -0.402891D-04  0.000000D+00  0.000000D+00  0.000000D+00
     16   0.000000D+00  0.000000D+00 -0.402891D-04  0.000000D+00  0.000000D+00
               221           222           223           224           225 
      1  -0.195522D+03 -0.195509D+03 -0.195509D+03 -0.195480D+03 -0.195480D+03
      2   0.000000D+00  0.000000D+00  0.000000D+00  0.000000D+00  0.000000D+00
      3   0.000000D+00  0.000000D+00  0.000000D+00  0.000000D+00  0.000000D+00
      4   0.000000D+00  0.000000D+00  0.000000D+00  0.000000D+00  0.000000D+00
      5   0.000000D+00  0.000000D+00  0.000000D+00  0.000000D+00  0.000000D+00
      6   0.000000D+00  0.000000D+00  0.000000D+00  0.000000D+00  0.000000D+00
      7   0.000000D+00  0.000000D+00  0.000000D+00  0.000000D+00  0.000000D+00
      8   0.000000D+00  0.000000D+00  0.000000D+00 -0.178006D+01 -0.178117D+00
      9   0.000000D+00  0.000000D+00  0.000000D+00  0.178117D+00 -0.178006D+01
     10   0.000000D+00  0.000000D+00  0.000000D+00  0.000000D+00  0.000000D+00
     11   0.000000D+00  0.000000D+00  0.000000D+00  0.000000D+00  0.000000D+00
     12   0.000000D+00  0.000000D+00  0.000000D+00  0.000000D+00  0.000000D+00
     13   0.000000D+00  0.000000D+00  0.000000D+00  0.000000D+00  0.000000D+00
     14   0.000000D+00  0.000000D+00  0.000000D+00  0.000000D+00  0.000000D+00
     15   0.000000D+00  0.000000D+00  0.000000D+00  0.149703D+00 -0.149610D+01
     16   0.000000D+00  0.000000D+00  0.000000D+00  0.149610D+01  0.149703D+00
               226           227           228           229           230 
      1  -0.195441D+03 -0.195384D+03 -0.195384D+03 -0.195381D+03 -0.195380D+03
      2   0.000000D+00  0.000000D+00  0.000000D+00  0.000000D+00 -0.133862D+00
      3   0.000000D+00  0.000000D+00  0.000000D+00  0.000000D+00 -0.867686D+00
      4   0.492273D-01  0.000000D+00  0.000000D+00  0.000000D+00  0.000000D+00
      5   0.000000D+00  0.000000D+00  0.000000D+00  0.000000D+00  0.454362D+00
      6   0.000000D+00  0.000000D+00  0.000000D+00  0.000000D+00  0.294516D+01
      7  -0.133889D+00  0.000000D+00  0.000000D+00  0.000000D+00  0.000000D+00
      8   0.000000D+00  0.000000D+00  0.000000D+00  0.000000D+00  0.000000D+00
      9   0.000000D+00  0.000000D+00  0.000000D+00  0.000000D+00  0.000000D+00
     10   0.000000D+00  0.000000D+00  0.000000D+00  0.000000D+00  0.000000D+00
     11   0.000000D+00  0.000000D+00  0.000000D+00  0.000000D+00  0.000000D+00
     12   0.000000D+00  0.000000D+00  0.000000D+00  0.000000D+00  0.000000D+00
     13   0.000000D+00  0.000000D+00  0.000000D+00  0.000000D+00  0.000000D+00
     14   0.000000D+00  0.000000D+00  0.000000D+00  0.000000D+00  0.000000D+00
     15   0.000000D+00  0.000000D+00  0.000000D+00  0.000000D+00  0.000000D+00
     16   0.000000D+00  0.000000D+00  0.000000D+00  0.000000D+00  0.000000D+00
               231           232           233           234           235 
      1  -0.195380D+03 -0.195331D+03 -0.195277D+03 -0.195269D+03 -0.195269D+03
      2   0.867686D+00  0.000000D+00  0.000000D+00  0.000000D+00  0.000000D+00
      3  -0.133862D+00  0.000000D+00  0.000000D+00  0.000000D+00  0.000000D+00
      4   0.000000D+00  0.000000D+00  0.486142D+00  0.000000D+00  0.000000D+00
      5  -0.294516D+01  0.000000D+00  0.000000D+00  0.000000D+00  0.000000D+00
      6   0.454362D+00  0.000000D+00  0.000000D+00  0.000000D+00  0.000000D+00
      7   0.000000D+00  0.000000D+00 -0.182595D+01  0.000000D+00  0.000000D+00
      8   0.000000D+00  0.000000D+00  0.000000D+00 -0.153961D+00 -0.198189D-01
      9   0.000000D+00  0.000000D+00  0.000000D+00 -0.198189D-01  0.153961D+00
     10   0.000000D+00  0.000000D+00  0.000000D+00  0.000000D+00  0.000000D+00
     11   0.000000D+00  0.245299D+00  0.000000D+00  0.000000D+00  0.000000D+00
     12   0.000000D+00  0.245299D+00  0.000000D+00  0.000000D+00  0.000000D+00
     13   0.000000D+00 -0.741913D+01  0.000000D+00  0.000000D+00  0.000000D+00
     14   0.000000D+00  0.000000D+00  0.000000D+00  0.000000D+00  0.000000D+00
     15   0.000000D+00  0.000000D+00  0.000000D+00 -0.124354D+00  0.966029D+00
     16   0.000000D+00  0.000000D+00  0.000000D+00  0.966029D+00  0.124354D+00
               236           237           238           239           240 
      1  -0.195220D+03 -0.195220D+03 -0.195143D+03 -0.195054D+03 -0.195054D+03
      2   0.000000D+00  0.000000D+00  0.000000D+00  0.000000D+00  0.000000D+00
      3   0.000000D+00  0.000000D+00  0.000000D+00  0.000000D+00  0.000000D+00
      4   0.000000D+00  0.000000D+00  0.000000D+00  0.000000D+00  0.000000D+00
      5   0.000000D+00  0.000000D+00  0.000000D+00  0.000000D+00  0.000000D+00
      6   0.000000D+00  0.000000D+00  0.000000D+00  0.000000D+00  0.000000D+00
      7   0.000000D+00  0.000000D+00  0.000000D+00  0.000000D+00  0.000000D+00
      8   0.289308D+01  0.131156D-01  0.000000D+00  0.000000D+00  0.000000D+00
      9   0.131156D-01 -0.289308D+01  0.000000D+00  0.000000D+00  0.000000D+00
     10   0.000000D+00  0.000000D+00  0.000000D+00  0.000000D+00  0.000000D+00
     11   0.000000D+00  0.000000D+00 -0.428872D+00  0.000000D+00  0.000000D+00
     12   0.000000D+00  0.000000D+00 -0.428872D+00  0.000000D+00  0.000000D+00
     13   0.000000D+00  0.000000D+00 -0.191380D+01  0.000000D+00  0.000000D+00
     14   0.000000D+00  0.000000D+00  0.000000D+00  0.000000D+00  0.000000D+00
     15   0.156298D-01 -0.344768D+01  0.000000D+00  0.000000D+00  0.000000D+00
     16  -0.344768D+01 -0.156298D-01  0.000000D+00  0.000000D+00  0.000000D+00
               241           242           243           244           245 
      1  -0.194992D+03 -0.194992D+03 -0.194985D+03 -0.194985D+03 -0.194812D+03
      2   0.000000D+00  0.000000D+00  0.723388D-02  0.162072D+00 -0.333013D-01
      3   0.000000D+00  0.000000D+00  0.162072D+00 -0.723388D-02  0.224943D-01
      4   0.000000D+00  0.000000D+00  0.000000D+00  0.000000D+00  0.000000D+00
      5   0.000000D+00  0.000000D+00 -0.259890D-01 -0.582274D+00  0.128782D+00
      6   0.000000D+00  0.000000D+00 -0.582274D+00  0.259890D-01 -0.869891D-01
      7   0.000000D+00  0.000000D+00  0.000000D+00  0.000000D+00  0.000000D+00
      8   0.000000D+00  0.000000D+00  0.000000D+00  0.000000D+00  0.000000D+00
      9   0.000000D+00  0.000000D+00  0.000000D+00  0.000000D+00  0.000000D+00
     10   0.000000D+00  0.000000D+00  0.000000D+00  0.000000D+00  0.000000D+00
     11   0.000000D+00  0.909303D+00  0.000000D+00  0.000000D+00  0.000000D+00
     12   0.000000D+00 -0.909303D+00  0.000000D+00  0.000000D+00  0.000000D+00
     13   0.000000D+00  0.000000D+00  0.000000D+00  0.000000D+00  0.000000D+00
     14   0.909303D+00  0.000000D+00  0.000000D+00  0.000000D+00  0.000000D+00
     15   0.000000D+00  0.000000D+00  0.000000D+00  0.000000D+00  0.000000D+00
     16   0.000000D+00  0.000000D+00  0.000000D+00  0.000000D+00  0.000000D+00
               246           247           248           249           250 
      1  -0.194812D+03 -0.194788D+03 -0.194788D+03 -0.194731D+03 -0.194731D+03
      2  -0.224943D-01  0.000000D+00  0.000000D+00  0.000000D+00  0.000000D+00
      3  -0.333013D-01  0.000000D+00  0.000000D+00  0.000000D+00  0.000000D+00
      4   0.000000D+00  0.000000D+00  0.000000D+00  0.000000D+00  0.000000D+00
      5   0.869891D-01  0.000000D+00  0.000000D+00  0.000000D+00  0.000000D+00
      6   0.128782D+00  0.000000D+00  0.000000D+00  0.000000D+00  0.000000D+00
      7   0.000000D+00  0.000000D+00  0.000000D+00  0.000000D+00  0.000000D+00
      8   0.000000D+00  0.000000D+00  0.000000D+00  0.000000D+00  0.000000D+00
      9   0.000000D+00  0.000000D+00  0.000000D+00  0.000000D+00  0.000000D+00
     10   0.000000D+00  0.000000D+00  0.000000D+00  0.000000D+00  0.000000D+00
     11   0.000000D+00  0.000000D+00  0.757450D+00  0.000000D+00  0.000000D+00
     12   0.000000D+00  0.000000D+00 -0.757450D+00  0.000000D+00  0.000000D+00
     13   0.000000D+00  0.000000D+00  0.000000D+00  0.000000D+00  0.000000D+00
     14   0.000000D+00  0.757449D+00  0.000000D+00  0.000000D+00  0.000000D+00
     15   0.000000D+00  0.000000D+00  0.000000D+00  0.000000D+00  0.000000D+00
     16   0.000000D+00  0.000000D+00  0.000000D+00  0.000000D+00  0.000000D+00
               251           252           253           254           255 
      1  -0.194554D+03 -0.194554D+03 -0.194487D+03 -0.194487D+03 -0.194351D+03
      2   0.000000D+00  0.000000D+00 -0.274705D-02 -0.198573D+00  0.000000D+00
      3   0.000000D+00  0.000000D+00 -0.198573D+00  0.274705D-02  0.000000D+00
      4   0.000000D+00  0.000000D+00  0.000000D+00  0.000000D+00  0.000000D+00
      5   0.000000D+00  0.000000D+00  0.115214D-01  0.832833D+00  0.000000D+00
      6   0.000000D+00  0.000000D+00  0.832833D+00 -0.115214D-01  0.000000D+00
      7   0.000000D+00  0.000000D+00  0.000000D+00  0.000000D+00  0.000000D+00
      8   0.104566D+00  0.335181D+00  0.000000D+00  0.000000D+00 -0.352200D+00
      9  -0.335181D+00  0.104566D+00  0.000000D+00  0.000000D+00  0.802906D+00
     10   0.000000D+00  0.000000D+00  0.000000D+00  0.000000D+00  0.000000D+00
     11   0.000000D+00  0.000000D+00  0.000000D+00  0.000000D+00  0.000000D+00
     12   0.000000D+00  0.000000D+00  0.000000D+00  0.000000D+00  0.000000D+00
     13   0.000000D+00  0.000000D+00  0.000000D+00  0.000000D+00  0.000000D+00
     14   0.000000D+00  0.000000D+00  0.000000D+00  0.000000D+00  0.000000D+00
     15   0.220887D+00 -0.689096D-01  0.000000D+00  0.000000D+00  0.110299D+01
     16   0.689096D-01  0.220887D+00  0.000000D+00  0.000000D+00  0.483832D+00
               256           257           258           259 
      1  -0.194351D+03 -0.194267D+03 -0.193805D+03 -0.193549D+03
      2   0.000000D+00  0.000000D+00  0.000000D+00  0.000000D+00
      3   0.000000D+00  0.000000D+00  0.000000D+00  0.000000D+00
      4   0.000000D+00  0.267151D+00  0.000000D+00  0.482696D-01
      5   0.000000D+00  0.000000D+00  0.000000D+00  0.000000D+00
      6   0.000000D+00  0.000000D+00  0.000000D+00  0.000000D+00
      7   0.000000D+00 -0.139269D+01  0.000000D+00 -0.406260D+00
      8  -0.802906D+00  0.000000D+00  0.000000D+00  0.000000D+00
      9  -0.352200D+00  0.000000D+00  0.000000D+00  0.000000D+00
     10   0.000000D+00  0.000000D+00  0.000000D+00  0.000000D+00
     11   0.000000D+00  0.000000D+00 -0.142919D+00  0.000000D+00
     12   0.000000D+00  0.000000D+00 -0.142919D+00  0.000000D+00
     13   0.000000D+00  0.000000D+00  0.628327D+00  0.000000D+00
     14   0.000000D+00  0.000000D+00  0.000000D+00  0.000000D+00
     15  -0.483832D+00  0.000000D+00  0.000000D+00  0.000000D+00
     16   0.110299D+01  0.000000D+00  0.000000D+00  0.000000D+00
 Unable to Open any file for archive entry.
 1\1\GINC-HEL03\SP\RwB97XD TD-FC\Gen\F2\RR\21-Mar-2022\0\\#P TD(Nstates
 =10000) wB97XD/Gen SCF(maxcycles=100) Int(Grid=ultrafine)\\xGDB7_00001
 _tier4.com\\0,1\F,0,0.,0.,0.688193\F,0,0.,0.,-0.688193\\Version=EM64L-
 G16RevC.01\State=1-SGG\HF=-199.3017252\RMSD=2.528e-09\PG=D*H [C*(F1.F1
 )]\\@
 The archive entry for this job was punched.


 I DO NOT DEFINE TIME, SPACE, PLACE, AND MOTION, AS BEING WELL KNOWN TO ALL.
                                            -- NEWTON (1642-1726), PRINCIPIA
 Job cpu time:       0 days  0 hours  0 minutes 23.3 seconds.
 Elapsed time:       0 days  0 hours  0 minutes  3.2 seconds.
 File lengths (MBytes):  RWF=     87 Int=      0 D2E=      0 Chk=     16 Scr=      1
 Normal termination of Gaussian 16 at Mon Mar 21 15:54:27 2022.
