 Entering Gaussian System, Link 0=g16
 Input=bigQM7w_TDwB97XD_def2SVPD_at_def2TZVP_000008.com
 Output=bigQM7w_TDwB97XD_def2SVPD_at_def2TZVP_000008.log
 Initial command:
 /home/rr/g16/l1.exe "/scratch/rr/PBS_7962932.helios/Gau-18531.inp" -scrdir="/scratch/rr/PBS_7962932.helios/"
 Entering Link 1 = /home/rr/g16/l1.exe PID=     18533.
  
 Copyright (c) 1988-2019, Gaussian, Inc.  All Rights Reserved.
  
 This is part of the Gaussian(R) 16 program.  It is based on
 the Gaussian(R) 09 system (copyright 2009, Gaussian, Inc.),
 the Gaussian(R) 03 system (copyright 2003, Gaussian, Inc.),
 the Gaussian(R) 98 system (copyright 1998, Gaussian, Inc.),
 the Gaussian(R) 94 system (copyright 1995, Gaussian, Inc.),
 the Gaussian 92(TM) system (copyright 1992, Gaussian, Inc.),
 the Gaussian 90(TM) system (copyright 1990, Gaussian, Inc.),
 the Gaussian 88(TM) system (copyright 1988, Gaussian, Inc.),
 the Gaussian 86(TM) system (copyright 1986, Carnegie Mellon
 University), and the Gaussian 82(TM) system (copyright 1983,
 Carnegie Mellon University). Gaussian is a federally registered
 trademark of Gaussian, Inc.
  
 This software contains proprietary and confidential information,
 including trade secrets, belonging to Gaussian, Inc.
  
 This software is provided under written license and may be
 used, copied, transmitted, or stored only in accord with that
 written license.
  
 The following legend is applicable only to US Government
 contracts under FAR:
  
                    RESTRICTED RIGHTS LEGEND
  
 Use, reproduction and disclosure by the US Government is
 subject to restrictions as set forth in subparagraphs (a)
 and (c) of the Commercial Computer Software - Restricted
 Rights clause in FAR 52.227-19.
  
 Gaussian, Inc.
 340 Quinnipiac St., Bldg. 40, Wallingford CT 06492
  
  
 ---------------------------------------------------------------
 Warning -- This program may not be used in any manner that
 competes with the business of Gaussian, Inc. or will provide
 assistance to any competitor of Gaussian, Inc.  The licensee
 of this program is prohibited from giving any competitor of
 Gaussian, Inc. access to this program.  By using this program,
 the user acknowledges that Gaussian, Inc. is engaged in the
 business of creating and licensing software in the field of
 computational chemistry and represents and warrants to the
 licensee that it is not a competitor of Gaussian, Inc. and that
 it will not use this program in any manner prohibited above.
 ---------------------------------------------------------------
  

 Cite this work as:
 Gaussian 16, Revision C.01,
 M. J. Frisch, G. W. Trucks, H. B. Schlegel, G. E. Scuseria, 
 M. A. Robb, J. R. Cheeseman, G. Scalmani, V. Barone, 
 G. A. Petersson, H. Nakatsuji, X. Li, M. Caricato, A. V. Marenich, 
 J. Bloino, B. G. Janesko, R. Gomperts, B. Mennucci, H. P. Hratchian, 
 J. V. Ortiz, A. F. Izmaylov, J. L. Sonnenberg, D. Williams-Young, 
 F. Ding, F. Lipparini, F. Egidi, J. Goings, B. Peng, A. Petrone, 
 T. Henderson, D. Ranasinghe, V. G. Zakrzewski, J. Gao, N. Rega, 
 G. Zheng, W. Liang, M. Hada, M. Ehara, K. Toyota, R. Fukuda, 
 J. Hasegawa, M. Ishida, T. Nakajima, Y. Honda, O. Kitao, H. Nakai, 
 T. Vreven, K. Throssell, J. A. Montgomery, Jr., J. E. Peralta, 
 F. Ogliaro, M. J. Bearpark, J. J. Heyd, E. N. Brothers, K. N. Kudin, 
 V. N. Staroverov, T. A. Keith, R. Kobayashi, J. Normand, 
 K. Raghavachari, A. P. Rendell, J. C. Burant, S. S. Iyengar, 
 J. Tomasi, M. Cossi, J. M. Millam, M. Klene, C. Adamo, R. Cammi, 
 J. W. Ochterski, R. L. Martin, K. Morokuma, O. Farkas, 
 J. B. Foresman, and D. J. Fox, Gaussian, Inc., Wallingford CT, 2019.
 
 ******************************************
 Gaussian 16:  EM64L-G16RevC.01  3-Jul-2019
                21-Mar-2022 
 ******************************************
 %mem=64gb
 %nproc=8
 Will use up to    8 processors via shared memory.
 ----------------------------------------------------------------------
 #P TD(Nstates=10000) wB97XD/Gen SCF(maxcycles=100) Int(Grid=ultrafine)
 ----------------------------------------------------------------------
 1/38=1,172=1/1;
 2/12=2,17=6,18=5,40=1/2;
 3/5=7,11=9,25=1,30=1,74=-58,75=-5/1,2,3,8;
 4//1;
 5/5=2,7=100,38=5/2;
 8/6=1,10=1,108=10000/1;
 9/41=10000,42=1,70=2/14;
 6/7=2,8=2,9=2,10=2/1;
 99/5=1,9=1/99;
 Leave Link    1 at Mon Mar 21 16:00:35 2022, MaxMem=  8589934592 cpu:               0.4 elap:               0.1
 (Enter /home/rr/g16/l101.exe)
 ---------------------
 xGDB7_00001_tier4.com
 ---------------------
 Symbolic Z-matrix:
 Charge =  0 Multiplicity = 1
 6                    -0.63015  0.         0. 
 9                     0.74851   0.       0. 
 1                    -0.98525   0.89968   0.50542 
 1                    -0.98522  -0.88756   0.52642 
 1                    -0.98525  -0.01213  -1.03184 
 
 ITRead=  0  0  0  0  0
 MicOpt= -1 -1 -1 -1 -1
 NAtoms=      5 NQM=        5 NQMF=       0 NMMI=      0 NMMIF=      0
                NMic=       0 NMicF=      0.
                    Isotopes and Nuclear Properties:
 (Nuclear quadrupole moments (NQMom) in fm**2, nuclear magnetic moments (NMagM)
  in nuclear magnetons)

  Atom         1           2           3           4           5
 IAtWgt=          12          19           1           1           1
 AtmWgt=  12.0000000  18.9984033   1.0078250   1.0078250   1.0078250
 NucSpn=           0           1           1           1           1
 AtZEff=  -0.0000000  -0.0000000  -0.0000000  -0.0000000  -0.0000000
 NQMom=    0.0000000   0.0000000   0.0000000   0.0000000   0.0000000
 NMagM=    0.0000000   2.6288670   2.7928460   2.7928460   2.7928460
 AtZNuc=   6.0000000   9.0000000   1.0000000   1.0000000   1.0000000
 Leave Link  101 at Mon Mar 21 16:00:35 2022, MaxMem=  8589934592 cpu:               0.8 elap:               0.1
 (Enter /home/rr/g16/l202.exe)
                          Input orientation:                          
 ---------------------------------------------------------------------
 Center     Atomic      Atomic             Coordinates (Angstroms)
 Number     Number       Type             X           Y           Z
 ---------------------------------------------------------------------
      1          6           0       -0.630149   -0.000001    0.000003
      2          9           0        0.748512    0.000002   -0.000001
      3          1           0       -0.985250    0.899676    0.505416
      4          1           0       -0.985222   -0.887557    0.526417
      5          1           0       -0.985245   -0.012128   -1.031840
 ---------------------------------------------------------------------
                    Distance matrix (angstroms):
                    1          2          3          4          5
     1  C    0.000000
     2  F    1.378661   0.000000
     3  H    1.091310   2.017620   0.000000
     4  H    1.091304   2.017600   1.787356   0.000000
     5  H    1.091302   2.017611   1.787328   1.787328   0.000000
 Stoichiometry    CH3F
 Framework group  C1[X(CH3F)]
 Deg. of freedom     9
 Full point group                 C1      NOp   1
 Largest Abelian subgroup         C1      NOp   1
 Largest concise Abelian subgroup C1      NOp   1
                         Standard orientation:                         
 ---------------------------------------------------------------------
 Center     Atomic      Atomic             Coordinates (Angstroms)
 Number     Number       Type             X           Y           Z
 ---------------------------------------------------------------------
      1          6           0        0.630149   -0.000001   -0.000003
      2          9           0       -0.748512    0.000002    0.000001
      3          1           0        0.985250    0.897475   -0.509314
      4          1           0        0.985222   -0.889832   -0.522562
      5          1           0        0.985245   -0.007652    1.031883
 ---------------------------------------------------------------------
 Rotational constants (GHZ):         156.9708152          25.8428001          25.8427103
 Leave Link  202 at Mon Mar 21 16:00:35 2022, MaxMem=  8589934592 cpu:               0.1 elap:               0.0
 (Enter /home/rr/g16/l301.exe)
 General basis read from cards:  (5D, 7F)
 Centers:       3      4      5
 S 3 1.00
     Exponent=  1.3010701000D+01 Coefficients=  1.9682158000D-02
     Exponent=  1.9622572000D+00 Coefficients=  1.3796524000D-01
     Exponent=  4.4453796000D-01 Coefficients=  4.7831935000D-01
 S 1 1.00
     Exponent=  1.2194962000D-01 Coefficients=  1.0000000000D+00
 P 1 1.00
     Exponent=  8.0000000000D-01 Coefficients=  1.0000000000D+00
 P 1 1.00
     Exponent=  1.1704099050D-01 Coefficients=  1.0000000000D+00
 ****
 Centers:       1
 S 5 1.00
     Exponent=  1.2384016938D+03 Coefficients=  5.4568832082D-03
     Exponent=  1.8629004992D+02 Coefficients=  4.0638409211D-02
     Exponent=  4.2251176346D+01 Coefficients=  1.8025593888D-01
     Exponent=  1.1676557932D+01 Coefficients=  4.6315121755D-01
     Exponent=  3.5930506482D+00 Coefficients=  4.4087173314D-01
 S 1 1.00
     Exponent=  4.0245147363D-01 Coefficients=  1.0000000000D+00
 S 1 1.00
     Exponent=  1.3090182668D-01 Coefficients=  1.0000000000D+00
 S 1 1.00
     Exponent=  6.7053540256D-02 Coefficients=  1.0000000000D+00
 P 3 1.00
     Exponent=  9.4680970621D+00 Coefficients=  3.8387871728D-02
     Exponent=  2.0103545142D+00 Coefficients=  2.1117025112D-01
     Exponent=  5.4771004707D-01 Coefficients=  5.1328172114D-01
 P 1 1.00
     Exponent=  1.5268613795D-01 Coefficients=  1.0000000000D+00
 D 1 1.00
     Exponent=  8.0000000000D-01 Coefficients=  1.0000000000D+00
 D 1 1.00
     Exponent=  1.1713185140D-01 Coefficients=  1.0000000000D+00
 ****
 Centers:       2
 S 5 1.00
     Exponent=  2.8948325990D+03 Coefficients= -5.3408255515D-03
     Exponent=  4.3541939120D+02 Coefficients= -3.9904258866D-02
     Exponent=  9.8843328866D+01 Coefficients= -1.7912768038D-01
     Exponent=  2.7485198001D+01 Coefficients= -4.6758090825D-01
     Exponent=  8.5405498171D+00 Coefficients= -4.4653131020D-01
 S 1 1.00
     Exponent=  1.0654578038D+00 Coefficients=  1.0000000000D+00
 S 1 1.00
     Exponent=  3.3247346748D-01 Coefficients=  1.0000000000D+00
 S 1 1.00
     Exponent=  9.8097752264D-02 Coefficients=  1.0000000000D+00
 P 3 1.00
     Exponent=  2.2696633924D+01 Coefficients= -4.5212874436D-02
     Exponent=  4.9872339257D+00 Coefficients= -2.3754317067D-01
     Exponent=  1.3491613954D+00 Coefficients= -5.1287353587D-01
 P 1 1.00
     Exponent=  3.4829881977D-01 Coefficients=  1.0000000000D+00
 P 1 1.00
     Exponent=  8.3372148304D-02 Coefficients=  1.0000000000D+00
 D 1 1.00
     Exponent=  1.4000000000D+00 Coefficients=  1.0000000000D+00
 D 1 1.00
     Exponent=  2.2301361948D-01 Coefficients=  1.0000000000D+00
 ****
 Ernie: Thresh=  0.10000D-02 Tol=  0.10000D-05 Strict=F.
 There are    71 symmetry adapted cartesian basis functions of A   symmetry.
 There are    67 symmetry adapted basis functions of A   symmetry.
    67 basis functions,    97 primitive gaussians,    71 cartesian basis functions
     9 alpha electrons        9 beta electrons
       nuclear repulsion energy        37.4250480537 Hartrees.
 IExCor= 4639 DFT=T Ex+Corr=wB97XD ExCW=0 ScaHFX=  1.000000
 ScaDFX=  1.000000  1.000000  1.000000  1.000000 ScalE2=  1.000000  1.000000
 IRadAn=      5 IRanWt=     -1 IRanGd=            0 ICorTp=0 IEmpDi=121
 HFx  wShort=  0.000000 wLong=  0.200000 cFull=  0.222036 cShort=  0.000000 cLong=  0.777964
 DFx  wShort=  0.000000 wLong=  0.200000 cFull=  0.000000 cShort=  0.000000 cLong=  1.000000
 NAtoms=    5 NActive=    5 NUniq=    5 SFac= 1.00D+00 NAtFMM=   60 NAOKFM=F Big=F
 Integral buffers will be    131072 words long.
 Raffenetti 1 integral format.
 Two-electron integral symmetry is turned on.
 R6Disp:  Grimme-D2 Dispersion energy=       -0.0004023116 Hartrees.
 Nuclear repulsion after empirical dispersion term =       37.4246457421 Hartrees.
 Leave Link  301 at Mon Mar 21 16:00:35 2022, MaxMem=  8589934592 cpu:               0.6 elap:               0.1
 (Enter /home/rr/g16/l302.exe)
 NPDir=0 NMtPBC=     1 NCelOv=     1 NCel=       1 NClECP=     1 NCelD=      1
         NCelK=      1 NCelE2=     1 NClLst=     1 CellRange=     0.0.
 One-electron integrals computed using PRISM.
 One-electron integral symmetry used in STVInt
 NBasis=    67 RedAO= T EigKep=  6.61D-04  NBF=    67
 NBsUse=    67 1.00D-06 EigRej= -1.00D+00 NBFU=    67
 Precomputing XC quadrature grid using
 IXCGrd= 4 IRadAn=           5 IRanWt=          -1 IRanGd=           0 AccXCQ= 0.00D+00.
 Generated NRdTot=       0 NPtTot=           0 NUsed=           0 NTot=          32
 NSgBfM=    71    71    71    71    71 MxSgAt=     5 MxSgA2=     5.
 Leave Link  302 at Mon Mar 21 16:00:35 2022, MaxMem=  8589934592 cpu:               1.0 elap:               0.1
 (Enter /home/rr/g16/l303.exe)
 DipDrv:  MaxL=1.
 Leave Link  303 at Mon Mar 21 16:00:35 2022, MaxMem=  8589934592 cpu:               0.2 elap:               0.1
 (Enter /home/rr/g16/l308.exe)
 Leave Link  308 at Mon Mar 21 16:00:35 2022, MaxMem=  8589934592 cpu:               0.2 elap:               0.1
 (Enter /home/rr/g16/l401.exe)
 ExpMin= 6.71D-02 ExpMax= 2.89D+03 ExpMxC= 4.35D+02 IAcc=3 IRadAn=         5 AccDes= 0.00D+00
 Harris functional with IExCor= 4639 and IRadAn=       5 diagonalized for initial guess.
 HarFok:  IExCor= 4639 AccDes= 0.00D+00 IRadAn=         5 IDoV= 1 UseB2=F ITyADJ=14
 ICtDFT=  3500011 ScaDFX=  1.000000  1.000000  1.000000  1.000000
 FoFCou: FMM=F IPFlag=           0 FMFlag=      100000 FMFlg1=           0
         NFxFlg=           0 DoJE=T BraDBF=F KetDBF=T FulRan=T
         wScrn=  0.000000 ICntrl=       500 IOpCl=  0 I1Cent=   200000004 NGrid=           0
         NMat0=    1 NMatS0=      1 NMatT0=    0 NMatD0=    1 NMtDS0=    0 NMtDT0=    0
 Petite list used in FoFCou.
 Harris En= -134.520690323739    
 JPrj=0 DoOrth=F DoCkMO=F.
 Leave Link  401 at Mon Mar 21 16:00:36 2022, MaxMem=  8589934592 cpu:               2.1 elap:               0.3
 (Enter /home/rr/g16/l502.exe)
 Keep R1 ints in memory in canonical form, NReq=12497692.
 FoFCou: FMM=F IPFlag=           0 FMFlag=           0 FMFlg1=           0
         NFxFlg=           0 DoJE=F BraDBF=F KetDBF=F FulRan=T
         wScrn=  0.000000 ICntrl=       600 IOpCl=  0 I1Cent=           0 NGrid=           0
         NMat0=    1 NMatS0=   2278 NMatT0=    0 NMatD0=    1 NMtDS0=    0 NMtDT0=    0
 Symmetry not used in FoFCou.
 Two-electron integral symmetry not used.
 Closed shell SCF:
 Using DIIS extrapolation, IDIIS=  1040.
 NGot=  8589934592 LenX=  8584731422 LenY=  8584725940
 Requested convergence on RMS density matrix=1.00D-08 within 100 cycles.
 Requested convergence on MAX density matrix=1.00D-06.
 Requested convergence on             energy=1.00D-06.
 No special actions if energy rises.
 Integral accuracy reduced to 1.0D-05 until final iterations.

 Cycle   1  Pass 0  IDiag  1:
 E= -139.501406956805    
 DIIS: error= 4.55D-02 at cycle   1 NSaved=   1.
 NSaved= 1 IEnMin= 1 EnMin= -139.501406956805     IErMin= 1 ErrMin= 4.55D-02
 ErrMax= 4.55D-02  0.00D+00 EMaxC= 1.00D-01 BMatC= 1.93D-01 BMatP= 1.93D-01
 IDIUse=3 WtCom= 5.45D-01 WtEn= 4.55D-01
 Coeff-Com:  0.100D+01
 Coeff-En:   0.100D+01
 Coeff:      0.100D+01
 Gap=     0.711 Goal=   None    Shift=    0.000
 GapD=    0.711 DampG=2.000 DampE=0.500 DampFc=1.0000 IDamp=-1.
 RMSDP=7.59D-03 MaxDP=1.44D-01              OVMax= 1.39D-01

 Cycle   2  Pass 0  IDiag  1:
 E= -139.491456234501     Delta-E=        0.009950722304 Rises=F Damp=F
 DIIS: error= 5.14D-02 at cycle   2 NSaved=   2.
 NSaved= 2 IEnMin= 1 EnMin= -139.501406956805     IErMin= 1 ErrMin= 4.55D-02
 ErrMax= 5.14D-02  0.00D+00 EMaxC= 1.00D-01 BMatC= 1.89D-01 BMatP= 1.93D-01
 IDIUse=3 WtCom= 4.86D-01 WtEn= 5.14D-01
 Coeff-Com:  0.498D+00 0.502D+00
 Coeff-En:   0.523D+00 0.477D+00
 Coeff:      0.511D+00 0.489D+00
 Gap=     0.588 Goal=   None    Shift=    0.000
 RMSDP=3.42D-03 MaxDP=8.88D-02 DE= 9.95D-03 OVMax= 9.13D-02

 Cycle   3  Pass 0  IDiag  1:
 E= -139.604678009475     Delta-E=       -0.113221774974 Rises=F Damp=F
 DIIS: error= 1.95D-03 at cycle   3 NSaved=   3.
 NSaved= 3 IEnMin= 3 EnMin= -139.604678009475     IErMin= 3 ErrMin= 1.95D-03
 ErrMax= 1.95D-03  0.00D+00 EMaxC= 1.00D-01 BMatC= 2.78D-04 BMatP= 1.89D-01
 IDIUse=3 WtCom= 9.80D-01 WtEn= 1.95D-02
 Coeff-Com:  0.826D-02 0.228D-01 0.969D+00
 Coeff-En:   0.000D+00 0.000D+00 0.100D+01
 Coeff:      0.810D-02 0.223D-01 0.970D+00
 Gap=     0.529 Goal=   None    Shift=    0.000
 RMSDP=4.03D-04 MaxDP=6.64D-03 DE=-1.13D-01 OVMax= 6.60D-03

 Cycle   4  Pass 0  IDiag  1:
 E= -139.604892427509     Delta-E=       -0.000214418034 Rises=F Damp=F
 DIIS: error= 1.05D-03 at cycle   4 NSaved=   4.
 NSaved= 4 IEnMin= 4 EnMin= -139.604892427509     IErMin= 4 ErrMin= 1.05D-03
 ErrMax= 1.05D-03  0.00D+00 EMaxC= 1.00D-01 BMatC= 9.35D-05 BMatP= 2.78D-04
 IDIUse=3 WtCom= 9.90D-01 WtEn= 1.05D-02
 Coeff-Com: -0.870D-02-0.756D-02 0.356D+00 0.661D+00
 Coeff-En:   0.000D+00 0.000D+00 0.000D+00 0.100D+01
 Coeff:     -0.861D-02-0.749D-02 0.352D+00 0.664D+00
 Gap=     0.531 Goal=   None    Shift=    0.000
 RMSDP=1.81D-04 MaxDP=3.93D-03 DE=-2.14D-04 OVMax= 2.17D-03

 Cycle   5  Pass 0  IDiag  1:
 E= -139.604970963831     Delta-E=       -0.000078536322 Rises=F Damp=F
 DIIS: error= 1.13D-04 at cycle   5 NSaved=   5.
 NSaved= 5 IEnMin= 5 EnMin= -139.604970963831     IErMin= 5 ErrMin= 1.13D-04
 ErrMax= 1.13D-04  0.00D+00 EMaxC= 1.00D-01 BMatC= 1.26D-06 BMatP= 9.35D-05
 IDIUse=3 WtCom= 9.99D-01 WtEn= 1.13D-03
 Coeff-Com: -0.352D-03-0.270D-02-0.327D-01 0.876D-02 0.103D+01
 Coeff-En:   0.000D+00 0.000D+00 0.000D+00 0.000D+00 0.100D+01
 Coeff:     -0.351D-03-0.270D-02-0.327D-01 0.875D-02 0.103D+01
 Gap=     0.530 Goal=   None    Shift=    0.000
 RMSDP=2.90D-05 MaxDP=3.68D-04 DE=-7.85D-05 OVMax= 3.78D-04

 Cycle   6  Pass 0  IDiag  1:
 E= -139.604972460050     Delta-E=       -0.000001496219 Rises=F Damp=F
 DIIS: error= 2.57D-05 at cycle   6 NSaved=   6.
 NSaved= 6 IEnMin= 6 EnMin= -139.604972460050     IErMin= 6 ErrMin= 2.57D-05
 ErrMax= 2.57D-05  0.00D+00 EMaxC= 1.00D-01 BMatC= 5.74D-08 BMatP= 1.26D-06
 IDIUse=1 WtCom= 1.00D+00 WtEn= 0.00D+00
 Coeff-Com:  0.253D-03-0.395D-03-0.191D-01-0.304D-01 0.143D+00 0.906D+00
 Coeff:      0.253D-03-0.395D-03-0.191D-01-0.304D-01 0.143D+00 0.906D+00
 Gap=     0.530 Goal=   None    Shift=    0.000
 RMSDP=7.01D-06 MaxDP=8.43D-05 DE=-1.50D-06 OVMax= 8.05D-05

 Initial convergence to 1.0D-05 achieved.  Increase integral accuracy.
 Cycle   7  Pass 1  IDiag  1:
 E= -139.604989720007     Delta-E=       -0.000017259957 Rises=F Damp=F
 DIIS: error= 2.33D-05 at cycle   1 NSaved=   1.
 NSaved= 1 IEnMin= 1 EnMin= -139.604989720007     IErMin= 1 ErrMin= 2.33D-05
 ErrMax= 2.33D-05  0.00D+00 EMaxC= 1.00D-01 BMatC= 2.95D-08 BMatP= 2.95D-08
 IDIUse=1 WtCom= 1.00D+00 WtEn= 0.00D+00
 Coeff-Com:  0.100D+01
 Coeff:      0.100D+01
 Gap=     0.530 Goal=   None    Shift=    0.000
 RMSDP=7.01D-06 MaxDP=8.43D-05 DE=-1.73D-05 OVMax= 4.37D-05

 Cycle   8  Pass 1  IDiag  1:
 E= -139.604989743563     Delta-E=       -0.000000023557 Rises=F Damp=F
 DIIS: error= 3.14D-06 at cycle   2 NSaved=   2.
 NSaved= 2 IEnMin= 2 EnMin= -139.604989743563     IErMin= 2 ErrMin= 3.14D-06
 ErrMax= 3.14D-06  0.00D+00 EMaxC= 1.00D-01 BMatC= 6.68D-10 BMatP= 2.95D-08
 IDIUse=1 WtCom= 1.00D+00 WtEn= 0.00D+00
 Coeff-Com: -0.337D-01 0.103D+01
 Coeff:     -0.337D-01 0.103D+01
 Gap=     0.530 Goal=   None    Shift=    0.000
 RMSDP=1.03D-06 MaxDP=1.84D-05 DE=-2.36D-08 OVMax= 9.40D-06

 Cycle   9  Pass 1  IDiag  1:
 E= -139.604989744228     Delta-E=       -0.000000000664 Rises=F Damp=F
 DIIS: error= 1.32D-06 at cycle   3 NSaved=   3.
 NSaved= 3 IEnMin= 3 EnMin= -139.604989744228     IErMin= 3 ErrMin= 1.32D-06
 ErrMax= 1.32D-06  0.00D+00 EMaxC= 1.00D-01 BMatC= 1.50D-10 BMatP= 6.68D-10
 IDIUse=1 WtCom= 1.00D+00 WtEn= 0.00D+00
 Coeff-Com: -0.285D-01 0.305D+00 0.724D+00
 Coeff:     -0.285D-01 0.305D+00 0.724D+00
 Gap=     0.530 Goal=   None    Shift=    0.000
 RMSDP=2.00D-07 MaxDP=3.54D-06 DE=-6.64D-10 OVMax= 3.69D-06

 Cycle  10  Pass 1  IDiag  1:
 E= -139.604989744355     Delta-E=       -0.000000000127 Rises=F Damp=F
 DIIS: error= 3.36D-07 at cycle   4 NSaved=   4.
 NSaved= 4 IEnMin= 4 EnMin= -139.604989744355     IErMin= 4 ErrMin= 3.36D-07
 ErrMax= 3.36D-07  0.00D+00 EMaxC= 1.00D-01 BMatC= 1.26D-11 BMatP= 1.50D-10
 IDIUse=1 WtCom= 1.00D+00 WtEn= 0.00D+00
 Coeff-Com: -0.818D-02 0.355D-01 0.228D+00 0.745D+00
 Coeff:     -0.818D-02 0.355D-01 0.228D+00 0.745D+00
 Gap=     0.530 Goal=   None    Shift=    0.000
 RMSDP=5.91D-08 MaxDP=8.60D-07 DE=-1.27D-10 OVMax= 9.22D-07

 Cycle  11  Pass 1  IDiag  1:
 E= -139.604989744364     Delta-E=       -0.000000000009 Rises=F Damp=F
 DIIS: error= 1.46D-07 at cycle   5 NSaved=   5.
 NSaved= 5 IEnMin= 5 EnMin= -139.604989744364     IErMin= 5 ErrMin= 1.46D-07
 ErrMax= 1.46D-07  0.00D+00 EMaxC= 1.00D-01 BMatC= 1.59D-12 BMatP= 1.26D-11
 IDIUse=1 WtCom= 1.00D+00 WtEn= 0.00D+00
 Coeff-Com:  0.132D-04-0.197D-01 0.721D-02 0.253D+00 0.759D+00
 Coeff:      0.132D-04-0.197D-01 0.721D-02 0.253D+00 0.759D+00
 Gap=     0.530 Goal=   None    Shift=    0.000
 RMSDP=2.11D-08 MaxDP=3.72D-07 DE=-9.09D-12 OVMax= 4.45D-07

 Cycle  12  Pass 1  IDiag  1:
 E= -139.604989744364     Delta-E=       -0.000000000000 Rises=F Damp=F
 DIIS: error= 4.75D-08 at cycle   6 NSaved=   6.
 NSaved= 6 IEnMin= 6 EnMin= -139.604989744364     IErMin= 6 ErrMin= 4.75D-08
 ErrMax= 4.75D-08  0.00D+00 EMaxC= 1.00D-01 BMatC= 1.83D-13 BMatP= 1.59D-12
 IDIUse=1 WtCom= 1.00D+00 WtEn= 0.00D+00
 Coeff-Com:  0.771D-03-0.853D-02-0.208D-01-0.134D-01 0.280D+00 0.762D+00
 Coeff:      0.771D-03-0.853D-02-0.208D-01-0.134D-01 0.280D+00 0.762D+00
 Gap=     0.530 Goal=   None    Shift=    0.000
 RMSDP=7.79D-09 MaxDP=9.91D-08 DE=-3.69D-13 OVMax= 1.40D-07

 SCF Done:  E(RwB97XD) =  -139.604989744     A.U. after   12 cycles
            NFock= 12  Conv=0.78D-08     -V/T= 2.0081
 KE= 1.384802764758D+02 PE=-4.047674512368D+02 EE= 8.925753927453D+01
 Leave Link  502 at Mon Mar 21 16:00:37 2022, MaxMem=  8589934592 cpu:              10.7 elap:               1.4
 (Enter /home/rr/g16/l801.exe)
 DoSCS=F DFT=T ScalE2(SS,OS)=  1.000000  1.000000
 ExpMin= 6.71D-02 ExpMax= 2.89D+03 ExpMxC= 4.35D+02 IAcc=3 IRadAn=         5 AccDes= 0.00D+00
 HarFok:  IExCor=  205 AccDes= 0.00D+00 IRadAn=         5 IDoV=-2 UseB2=F ITyADJ=14
 ICtDFT= 12500011 ScaDFX=  1.000000  1.000000  1.000000  1.000000
 Largest valence mixing into a core orbital is  7.50D-05
 Largest core mixing into a valence orbital is  2.01D-05
 Range of M.O.s used for correlation:     3    67
 NBasis=    67 NAE=     9 NBE=     9 NFC=     2 NFV=     0
 NROrb=     65 NOA=     7 NOB=     7 NVA=    58 NVB=    58

 **** Warning!!: The largest alpha MO coefficient is  0.21328918D+02

 Leave Link  801 at Mon Mar 21 16:00:37 2022, MaxMem=  8589934592 cpu:               0.5 elap:               0.1
 (Enter /home/rr/g16/l914.exe)
 RHF ground state
 Keep R1, R2, and R3 ints in memory in canonical form, NReq=207421788.
 FoFCou: FMM=F IPFlag=           0 FMFlag=           0 FMFlg1=           0
         NFxFlg=           0 DoJE=F BraDBF=F KetDBF=F FulRan=T
         wScrn=  0.000000 ICntrl=       600 IOpCl=  0 I1Cent=           0 NGrid=           0
         NMat0=    1 NMatS0=   2278 NMatT0=    0 NMatD0=    1 NMtDS0=    0 NMtDT0=    0
 Symmetry not used in FoFCou.
 Two-electron integral symmetry not used.
 MDV=  8589934592 DFT=T DoStab=F Mixed=T DoRPA=T DoScal=F NonHer=T
 Making orbital integer symmetry assigments:
 Orbital symmetries:
       Occupied  (A) (A) (A) (A) (A) (A) (A) (A) (A)
       Virtual   (A) (A) (A) (A) (A) (A) (A) (A) (A) (A) (A) (A)
                 (A) (A) (A) (A) (A) (A) (A) (A) (A) (A) (A) (A)
                 (A) (A) (A) (A) (A) (A) (A) (A) (A) (A) (A) (A)
                 (A) (A) (A) (A) (A) (A) (A) (A) (A) (A) (A) (A)
                 (A) (A) (A) (A) (A) (A) (A) (A) (A) (A)
   406 initial guesses have been made.
 Convergence on wavefunction:    0.001000000000000
 Davidson Disk Diagonalization:  ConvIn= 1.00D-03 SkipCon=T Conv= 1.00D-03.
 Max sub-space:  2436 roots to seek:   812 dimension of matrix:          812
 *** WARNING: Number of orthogonal guesses is          406
 Iteration     1 Dimension   406 NMult     0 NNew    406
 CISAX will form   406 AO SS matrices at one time.
 NMat=   406 NSing=   406 JSym2X= 0.
 New state      7 was old state      8
 New state      8 was old state      7
 New state      9 was old state     12
 New state     10 was old state      9
 New state     11 was old state     10
 New state     12 was old state     11
 New state     13 was old state     14
 New state     14 was old state     13
 New state     17 was old state     19
 New state     19 was old state     21
 New state     20 was old state     17
 New state     21 was old state     22
 New state     22 was old state     23
 New state     23 was old state     20
 New state     25 was old state     32
 New state     26 was old state     31
 New state     27 was old state     25
 New state     29 was old state     27
 New state     31 was old state     29
 New state     32 was old state     26
 New state     35 was old state     40
 New state     36 was old state     38
 New state     37 was old state     42
 New state     38 was old state     43
 New state     39 was old state     35
 New state     40 was old state     36
 New state     41 was old state     39
 New state     42 was old state     41
 New state     43 was old state     37
 New state     44 was old state     46
 New state     45 was old state     44
 New state     46 was old state     45
 New state     48 was old state     52
 New state     49 was old state     53
 New state     50 was old state     54
 New state     51 was old state     55
 New state     52 was old state     48
 New state     53 was old state     51
 New state     54 was old state     49
 New state     55 was old state     50
 New state     58 was old state     59
 New state     59 was old state     60
 New state     60 was old state     58
 New state     62 was old state     63
 New state     63 was old state     64
 New state     64 was old state     62
 New state     65 was old state     68
 New state     67 was old state     69
 New state     68 was old state     67
 New state     69 was old state     72
 New state     72 was old state     74
 New state     73 was old state     75
 New state     74 was old state     73
 New state     75 was old state     65
 New state     76 was old state     77
 New state     77 was old state     76
 New state     79 was old state     84
 New state     80 was old state     85
 New state     81 was old state     79
 New state     82 was old state     80
 New state     83 was old state     81
 New state     84 was old state     83
 New state     85 was old state     82
 New state     89 was old state     95
 New state     90 was old state    102
 New state     91 was old state    100
 New state     92 was old state     89
 New state     93 was old state     90
 New state     94 was old state     99
 New state     95 was old state     97
 New state     96 was old state     98
 New state     97 was old state     92
 New state     98 was old state     93
 New state     99 was old state    104
 New state    100 was old state    103
 New state    101 was old state     96
 New state    102 was old state     94
 New state    103 was old state     91
 New state    104 was old state    105
 New state    105 was old state    106
 New state    106 was old state    101
 New state    108 was old state    110
 New state    110 was old state    111
 New state    111 was old state    112
 New state    112 was old state    115
 New state    115 was old state    108
 New state    118 was old state    119
 New state    119 was old state    118
 New state    120 was old state    127
 New state    121 was old state    128
 New state    125 was old state    120
 New state    126 was old state    125
 New state    127 was old state    126
 New state    128 was old state    121
 New state    131 was old state    134
 New state    132 was old state    131
 New state    134 was old state    135
 New state    135 was old state    132
 New state    139 was old state    141
 New state    140 was old state    139
 New state    141 was old state    140
 New state    149 was old state    151
 New state    150 was old state    149
 New state    151 was old state    153
 New state    153 was old state    154
 New state    154 was old state    155
 New state    155 was old state    150
 New state    156 was old state    159
 New state    157 was old state    160
 New state    158 was old state    157
 New state    159 was old state    158
 New state    160 was old state    156
 New state    161 was old state    162
 New state    162 was old state    167
 New state    163 was old state    166
 New state    164 was old state    161
 New state    165 was old state    163
 New state    166 was old state    169
 New state    167 was old state    164
 New state    169 was old state    172
 New state    170 was old state    173
 New state    172 was old state    170
 New state    173 was old state    165
 New state    174 was old state    177
 New state    175 was old state    176
 New state    176 was old state    179
 New state    177 was old state    174
 New state    178 was old state    175
 New state    179 was old state    180
 New state    180 was old state    185
 New state    181 was old state    183
 New state    182 was old state    184
 New state    183 was old state    181
 New state    184 was old state    182
 New state    185 was old state    188
 New state    186 was old state    178
 New state    187 was old state    197
 New state    188 was old state    198
 New state    189 was old state    187
 New state    190 was old state    186
 New state    191 was old state    193
 New state    192 was old state    195
 New state    193 was old state    196
 New state    194 was old state    191
 New state    195 was old state    189
 New state    196 was old state    190
 New state    197 was old state    194
 New state    198 was old state    192
 New state    199 was old state    200
 New state    200 was old state    201
 New state    201 was old state    199
 New state    202 was old state    205
 New state    204 was old state    206
 New state    205 was old state    210
 New state    206 was old state    211
 New state    207 was old state    202
 New state    209 was old state    207
 New state    210 was old state    209
 New state    211 was old state    212
 New state    212 was old state    213
 New state    213 was old state    218
 New state    215 was old state    219
 New state    216 was old state    220
 New state    217 was old state    221
 New state    218 was old state    216
 New state    219 was old state    217
 New state    220 was old state    215
 New state    221 was old state    204
 New state    224 was old state    225
 New state    225 was old state    226
 New state    226 was old state    227
 New state    227 was old state    224
 New state    228 was old state    229
 New state    229 was old state    230
 New state    230 was old state    228
 New state    234 was old state    235
 New state    235 was old state    234
 New state    237 was old state    238
 New state    238 was old state    237
 New state    243 was old state    246
 New state    244 was old state    247
 New state    246 was old state    244
 New state    247 was old state    243
 New state    248 was old state    253
 New state    249 was old state    254
 New state    250 was old state    252
 New state    252 was old state    250
 New state    253 was old state    249
 New state    254 was old state    248
 New state    256 was old state    257
 New state    257 was old state    256
 New state    260 was old state    268
 New state    261 was old state    269
 New state    262 was old state    264
 New state    264 was old state    265
 New state    265 was old state    260
 New state    266 was old state    261
 New state    267 was old state    262
 New state    268 was old state    267
 New state    269 was old state    270
 New state    270 was old state    271
 New state    271 was old state    266
 New state    278 was old state    279
 New state    279 was old state    280
 New state    280 was old state    281
 New state    281 was old state    282
 New state    282 was old state    283
 New state    283 was old state    278
 New state    293 was old state    294
 New state    294 was old state    293
 New state    296 was old state    297
 New state    297 was old state    298
 New state    298 was old state    299
 New state    299 was old state    296
 New state    306 was old state    309
 New state    307 was old state    310
 New state    309 was old state    307
 New state    310 was old state    313
 New state    313 was old state    306
 New state    314 was old state    316
 New state    315 was old state    317
 New state    316 was old state    314
 New state    317 was old state    315
 New state    324 was old state    325
 New state    325 was old state    326
 New state    326 was old state    328
 New state    328 was old state    330
 New state    330 was old state    324
 New state    332 was old state    334
 New state    333 was old state    332
 New state    334 was old state    336
 New state    336 was old state    339
 New state    339 was old state    333
 New state    340 was old state    342
 New state    341 was old state    343
 New state    342 was old state    340
 New state    343 was old state    341
 New state    354 was old state    355
 New state    355 was old state    354
 New state    358 was old state    359
 New state    359 was old state    360
 New state    360 was old state    362
 New state    362 was old state    363
 New state    363 was old state    364
 New state    364 was old state    358
 New state    365 was old state    367
 New state    366 was old state    368
 New state    367 was old state    369
 New state    368 was old state    370
 New state    369 was old state    365
 New state    370 was old state    366
 New state    371 was old state    373
 New state    372 was old state    374
 New state    373 was old state    375
 New state    374 was old state    371
 New state    375 was old state    372
 New state    376 was old state    381
 New state    377 was old state    382
 New state    378 was old state    377
 New state    379 was old state    378
 New state    380 was old state    388
 New state    381 was old state    389
 New state    382 was old state    376
 New state    383 was old state    385
 New state    385 was old state    383
 New state    388 was old state    396
 New state    389 was old state    397
 New state    392 was old state    394
 New state    393 was old state    395
 New state    394 was old state    392
 New state    395 was old state    393
 New state    396 was old state    398
 New state    397 was old state    399
 No map to state    398
 No map to state    399
 New state    401 was old state    402
 New state    402 was old state    403
 New state    403 was old state    401
 Excitation Energies [eV] at current iteration:
 Root      1 :     9.644120597946911
 Root      2 :     9.644134111270066
 Root      3 :    10.264701630285710
 Root      4 :    10.264741274104380
 Root      5 :    11.743930508984760
 Root      6 :    11.743935611354670
 Root      7 :    11.814164643922390
 Root      8 :    11.955511393069210
 Root      9 :    12.700198044291540
 Root     10 :    12.772160033736010
 Root     11 :    12.772185676708320
 Root     12 :    13.093170081566490
 Root     13 :    13.144516993362070
 Root     14 :    13.144536422520780
 Root     15 :    13.556442530615650
 Root     16 :    13.556492086049650
 Root     17 :    13.772425786918340
 Root     18 :    13.772434558962700
 Root     19 :    13.807151497056930
 Root     20 :    13.903765249415000
 Root     21 :    14.104582727036470
 Root     22 :    14.104637245865660
 Root     23 :    14.221068020473780
 Root     24 :    14.952875099724660
 Root     25 :    15.354553251258370
 Root     26 :    15.354578679332500
 Root     27 :    15.604008488113130
 Root     28 :    15.628198082041580
 Root     29 :    15.628205920373070
 Root     30 :    15.775808154399300
 Root     31 :    15.775825171967980
 Root     32 :    16.068104974271440
 Root     33 :    16.326662385372120
 Root     34 :    16.326698443750170
 Root     35 :    16.556400799551340
 Root     36 :    16.707345412128910
 Root     37 :    16.844565274340040
 Root     38 :    16.844659815665220
 Root     39 :    17.005540909618930
 Root     40 :    17.005594669092010
 Root     41 :    17.068549326458760
 Root     42 :    17.068580028993480
 Root     43 :    17.153898253903750
 Root     44 :    17.206497652528630
 Root     45 :    17.206508136686780
 Root     46 :    17.332767583505300
 Root     47 :    17.361477320705750
 Root     48 :    17.655013389216140
 Root     49 :    17.655037609214400
 Root     50 :    17.822532896965680
 Root     51 :    17.822544486919770
 Root     52 :    17.870920957464520
 Root     53 :    17.910273465166670
 Root     54 :    17.910311885899500
 Root     55 :    18.062293022599970
 Root     56 :    18.587200730051880
 Root     57 :    18.587241193583250
 Root     58 :    18.657484567759800
 Root     59 :    18.789469425755320
 Root     60 :    18.789478147536130
 Root     61 :    18.874536207942620
 Root     62 :    19.170007767947330
 Root     63 :    19.170046646169990
 Root     64 :    19.587276723360670
 Root     65 :    19.898541949631190
 Root     66 :    19.976604311564570
 Root     67 :    20.039091031120890
 Root     68 :    20.039093395140120
 Root     69 :    20.232027340430870
 Root     70 :    20.234326328110160
 Root     71 :    20.234394461214960
 Root     72 :    20.436741263783500
 Root     73 :    20.436795523855930
 Root     74 :    20.503539606832840
 Root     75 :    20.920474636109370
 Root     76 :    21.123195720169210
 Root     77 :    21.123202260570980
 Root     78 :    21.129368754238900
 Root     79 :    21.203922788488270
 Root     80 :    21.203958776523580
 Root     81 :    21.264437295940300
 Root     82 :    21.375593111756950
 Root     83 :    21.375623307974640
 Root     84 :    21.577764420033080
 Root     85 :    21.577776375322950
 Root     86 :    21.797810830142620
 Root     87 :    21.797859156998350
 Root     88 :    21.966727311065580
 Root     89 :    22.281646927781680
 Root     90 :    22.283777636193300
 Root     91 :    22.283779936452200
 Root     92 :    22.333340223687350
 Root     93 :    22.333377194637310
 Root     94 :    22.521453810483820
 Root     95 :    22.589456497531440
 Root     96 :    22.589481492356860
 Root     97 :    22.750169352135810
 Root     98 :    22.776931039106180
 Root     99 :    22.798460201833190
 Root    100 :    22.798465136879500
 Root    101 :    22.863601234257780
 Root    102 :    22.863669744850620
 Root    103 :    23.092008973300190
 Root    104 :    23.682498374306010
 Root    105 :    23.682544212188860
 Root    106 :    23.712375821593120
 Root    107 :    23.713873796320620
 Root    108 :    23.840305513604640
 Root    109 :    23.840353010616890
 Root    110 :    24.093779314780000
 Root    111 :    24.093832273281380
 Root    112 :    24.110971230781560
 Root    113 :    24.255585285615840
 Root    114 :    24.255632348771960
 Root    115 :    24.557549625281770
 Root    116 :    25.281195604610830
 Root    117 :    25.281255672057150
 Root    118 :    25.407781312063570
 Root    119 :    25.689583867533240
 Root    120 :    26.127955564916910
 Root    121 :    26.127969948945960
 Root    122 :    26.189100463434990
 Root    123 :    26.296145933210510
 Root    124 :    26.296158957215720
 Root    125 :    26.348810544373000
 Root    126 :    26.494709540792000
 Root    127 :    26.494742308337870
 Root    128 :    27.032922650152390
 Root    129 :    27.113800184754680
 Root    130 :    27.113835318855560
 Root    131 :    27.334322435099140
 Root    132 :    27.684577946524160
 Root    133 :    27.764549630085390
 Root    134 :    27.764552761994600
 Root    135 :    27.855646476377170
 Root    136 :    28.192722142403910
 Root    137 :    28.379228211982780
 Root    138 :    28.379285284859160
 Root    139 :    28.947151973319200
 Root    140 :    29.069185700102700
 Root    141 :    29.069245600715440
 Root    142 :    29.193746638503530
 Root    143 :    29.749284035426420
 Root    144 :    29.749315804832940
 Root    145 :    29.977782004154210
 Root    146 :    30.076132469690710
 Root    147 :    30.076175812615800
 Root    148 :    30.417115149725530
 Root    149 :    31.038442055872880
 Root    150 :    31.388175150469170
 Root    151 :    31.410611901072790
 Root    152 :    31.410636326085040
 Root    153 :    31.425748460362080
 Root    154 :    31.425827951733140
 Root    155 :    31.513843258553840
 Root    156 :    32.134759483017880
 Root    157 :    32.134790839645080
 Root    158 :    32.361850979219330
 Root    159 :    32.361883638009100
 Root    160 :    32.693663420285380
 Root    161 :    32.889832123568640
 Root    162 :    32.897106989531100
 Root    163 :    32.897141486135100
 Root    164 :    32.959300429069390
 Root    165 :    32.959356703257600
 Root    166 :    33.359405750664590
 Root    167 :    33.431917513009730
 Root    168 :    33.562737145473510
 Root    169 :    33.587135266829340
 Root    170 :    33.587147022486520
 Root    171 :    33.777101146313470
 Root    172 :    33.777117636801730
 Root    173 :    34.544067667748220
 Root    174 :    34.655464788868510
 Root    175 :    34.655496731735060
 Root    176 :    34.765194767137910
 Root    177 :    34.781851074664670
 Root    178 :    34.781856970595210
 Root    179 :    35.481221113834960
 Root    180 :    35.767290766027490
 Root    181 :    35.856778935554710
 Root    182 :    35.856837945360500
 Root    183 :    35.955324831993180
 Root    184 :    35.955379483888420
 Root    185 :    36.094933075838320
 Root    186 :    36.303330809290540
 Root    187 :    36.870155781817780
 Root    188 :    36.870207512470660
 Root    189 :    36.967633462935020
 Root    190 :    36.967646314795400
 Root    191 :    37.044828267857720
 Root    192 :    37.133719592888120
 Root    193 :    37.133758982963170
 Root    194 :    37.376334886657770
 Root    195 :    37.537634850305540
 Root    196 :    37.537699022151650
 Root    197 :    37.787182708992200
 Root    198 :    37.787220343317780
 Root    199 :    38.039586775055250
 Root    200 :    38.039629251428880
 Root    201 :    38.084756723906050
 Root    202 :    38.320992634325380
 Root    203 :    38.321034139078360
 Root    204 :    38.412641497340310
 Root    205 :    38.550121286555860
 Root    206 :    38.550143699151840
 Root    207 :    38.615545412546660
 Root    208 :    39.241158539133980
 Root    209 :    39.241176044986250
 Root    210 :    39.426566206818140
 Root    211 :    40.397005989369060
 Root    212 :    40.397042173006420
 Root    213 :    40.627087491060510
 Root    214 :    40.954991131937430
 Root    215 :    41.487153383324680
 Root    216 :    41.487218222289940
 Root    217 :    41.635590811136650
 Root    218 :    41.757814013089790
 Root    219 :    41.757861470209410
 Root    220 :    41.812517350491270
 Root    221 :    42.387008328342870
 Root    222 :    43.033045139944680
 Root    223 :    43.033082154747820
 Root    224 :    43.286723985752340
 Root    225 :    43.286882802466220
 Root    226 :    43.541743452783600
 Root    227 :    43.749983174158990
 Root    228 :    44.300739878987570
 Root    229 :    44.300823547073190
 Root    230 :    44.499618060520640
 Root    231 :    45.545654048461820
 Root    232 :    45.545704987872860
 Root    233 :    47.897070942662220
 Root    234 :    49.246560427822430
 Root    235 :    49.297547495176670
 Root    236 :    49.363032496210640
 Root    237 :    49.363474773576070
 Root    238 :    50.214471437093560
 Root    239 :    50.286602671677230
 Root    240 :    50.286650121646040
 Root    241 :    51.699770671701650
 Root    242 :    51.699792234366120
 Root    243 :    52.321424751511920
 Root    244 :    52.372271979150640
 Root    245 :    52.372320265403130
 Root    246 :    53.125206785219760
 Root    247 :    53.125323800758440
 Root    248 :    53.135675476359720
 Root    249 :    53.135817822503980
 Root    250 :    53.151714093303070
 Root    251 :    53.312410137467280
 Root    252 :    53.627147663528870
 Root    253 :    53.627477998823150
 Root    254 :    54.511394386710410
 Root    255 :    55.173253119113040
 Root    256 :    55.375307510124990
 Root    257 :    55.375317054262930
 Root    258 :    56.247290688609790
 Root    259 :    56.247381043754910
 Root    260 :    56.369328622690050
 Root    261 :    56.369448269775500
 Root    262 :    56.389468335350330
 Root    263 :    56.443588780777230
 Root    264 :    56.443674198222300
 Root    265 :    56.555991394597500
 Root    266 :    56.887985913535800
 Root    267 :    56.888031003591610
 Root    268 :    57.065132693963150
 Root    269 :    57.624467395518650
 Root    270 :    57.624510936637040
 Root    271 :    57.658240456990850
 Root    272 :    59.114089329545730
 Root    273 :    59.114780557673340
 Root    274 :    59.427552370832250
 Root    275 :    59.427614350424620
 Root    276 :    59.564276717749070
 Root    277 :    60.015276970818040
 Root    278 :    60.015288190612350
 Root    279 :    60.019632268034640
 Root    280 :    60.758386736278820
 Root    281 :    60.986171761788250
 Root    282 :    60.986199025819180
 Root    283 :    61.557199762509160
 Root    284 :    62.340537264619980
 Root    285 :    62.424093256164720
 Root    286 :    62.424304922920020
 Root    287 :    63.547210437251840
 Root    288 :    63.665074358505440
 Root    289 :    63.687900874837930
 Root    290 :    63.687958406756440
 Root    291 :    64.028199507108710
 Root    292 :    64.028468902665890
 Root    293 :    64.557470953802480
 Root    294 :    64.557545528474390
 Root    295 :    65.257459984591250
 Root    296 :    65.397197132999480
 Root    297 :    65.397357238413420
 Root    298 :    65.429218307796420
 Root    299 :    65.940592860093790
 Root    300 :    68.021620608468000
 Root    301 :    68.355139806998080
 Root    302 :    68.355221008416350
 Root    303 :    69.076604681162270
 Root    304 :    69.076709686434740
 Root    305 :    69.117973925015260
 Root    306 :    69.293090176294440
 Root    307 :    69.293209808493560
 Root    308 :    69.519171113231210
 Root    309 :    69.519253897693870
 Root    310 :    69.802528295463770
 Root    311 :    70.160592707550760
 Root    312 :    70.160658796561250
 Root    313 :    71.363495612771670
 Root    314 :    72.259768941825090
 Root    315 :    72.259841047280470
 Root    316 :    72.380391012352670
 Root    317 :    72.380426746104580
 Root    318 :    73.182048664411430
 Root    319 :    73.824717601401570
 Root    320 :    73.824791369368880
 Root    321 :    74.450203712903170
 Root    322 :    74.923258393055160
 Root    323 :    74.923408438242730
 Root    324 :    75.337226687965230
 Root    325 :    75.337332782651540
 Root    326 :    75.381397957588120
 Root    327 :    75.808954069866830
 Root    328 :    75.830123591326380
 Root    329 :    75.830284352579890
 Root    330 :    76.269841939987290
 Root    331 :    78.117680778516170
 Root    332 :    79.208987387564700
 Root    333 :    79.473967058381130
 Root    334 :    79.484486381207200
 Root    335 :    79.484603891060760
 Root    336 :    79.774345475038230
 Root    337 :    79.869445718499720
 Root    338 :    79.869927494274520
 Root    339 :    80.430103815295510
 Root    340 :    82.812089258026890
 Root    341 :    82.812153910647110
 Root    342 :    83.028181847774590
 Root    343 :    83.028491945610400
 Root    344 :    83.924106445666270
 Root    345 :    85.076882949804000
 Root    346 :    85.077094986215120
 Root    347 :    86.662110204644780
 Root    348 :    86.662164652126340
 Root    349 :    87.178565699381780
 Root    350 :    88.430344760437580
 Root    351 :    88.430559086051630
 Root    352 :    89.471597320095410
 Root    353 :    89.472155461223050
 Root    354 :    89.520462977490500
 Root    355 :    89.607594938840830
 Root    356 :    91.868977584074330
 Root    357 :    92.446000651430850
 Root    358 :    93.214898905999590
 Root    359 :    93.234193355554950
 Root    360 :    93.385244767930300
 Root    361 :    93.385665801692780
 Root    362 :    93.447627788904440
 Root    363 :    93.448052977217340
 Root    364 :    94.205460912650740
 Root    365 :    98.711337073282610
 Root    366 :    98.711682469344860
 Root    367 :    98.714262237828460
 Root    368 :    98.717001332033490
 Root    369 :    98.856549721495980
 Root    370 :    98.856814984488080
 Root    371 :   101.360728857742600
 Root    372 :   101.360737222848200
 Root    373 :   101.449404539033300
 Root    374 :   101.536892758638900
 Root    375 :   101.536909867634300
 Root    376 :   102.653498958196800
 Root    377 :   102.653533461816300
 Root    378 :   103.734706794269400
 Root    379 :   103.736867116631600
 Root    380 :   104.194188431468800
 Root    381 :   104.194213155188000
 Root    382 :   104.580291996229400
 Root    383 :   106.206701824973400
 Root    384 :   106.206781210587600
 Root    385 :   106.264390511159200
 Root    386 :   106.285652886139000
 Root    387 :   107.937067571840100
 Root    388 :   108.812352273338800
 Root    389 :   108.812379637988700
 Root    390 :   110.222756062713800
 Root    391 :   110.222779499920300
 Root    392 :   112.471729596807800
 Root    393 :   112.471793536794500
 Root    394 :   112.695547578716900
 Root    395 :   112.696164937766500
 Root    396 :   114.177440499199500
 Root    397 :   114.177507284670900
 Root    398 :   116.787976257717400
 Root    399 :   116.788039588501600
 Root    400 :   118.631544142455600
 Root    401 :   122.417248012188400
 Root    402 :   122.417273870378000
 Root    403 :   122.991683579303700
 Root    404 :   125.089390893226800
 Root    405 :   125.089488191650300
 Root    406 :   135.125555088434500
 Convergence achieved for final wavefunctions.
 ***********************************************************************
 Excited states from <AA,BB:AA,BB> singles matrix:
 ***********************************************************************
 
 1PDM for each excited state written to RWF  633
 Ground to excited state transition densities written to RWF  633
 Ground to excited state transition electric dipole moments (Au):
       state          X           Y           Z        Dip. S.      Osc.
         1        -0.0000      0.0964     -0.2985      0.0984      0.0232
         2        -0.0000     -0.2984     -0.0964      0.0984      0.0232
         3         0.0000      0.0626     -0.3458      0.1235      0.0311
         4        -0.0000     -0.3458     -0.0626      0.1235      0.0311
         5        -0.0000     -0.2809     -0.2775      0.1559      0.0449
         6         0.0000     -0.2775      0.2809      0.1559      0.0449
         7        -0.0000     -0.0001      0.0000      0.0000      0.0000
         8         0.6550     -0.0000     -0.0000      0.4290      0.1257
         9         0.0000     -0.0001     -0.0000      0.0000      0.0000
        10        -0.0000      0.0694     -0.3794      0.1488      0.0465
        11        -0.0000     -0.3794     -0.0694      0.1488      0.0466
        12         0.1792     -0.0001     -0.0004      0.0321      0.0103
        13        -0.0001     -0.0605     -0.5674      0.3257      0.1049
        14        -0.0000     -0.5674      0.0605      0.3256      0.1049
        15         0.0000     -0.1780      0.5921      0.3823      0.1270
        16         0.0000      0.5922      0.1780      0.3824      0.1270
        17        -0.0000      0.0103     -0.1603      0.0258      0.0087
        18         0.0000     -0.1603     -0.0103      0.0258      0.0087
        19        -0.0000     -0.0002      0.0000      0.0000      0.0000
        20         0.1697     -0.0000     -0.0001      0.0288      0.0098
        21        -0.0001      0.0417     -0.1067      0.0131      0.0045
        22        -0.0000     -0.1067     -0.0417      0.0131      0.0045
        23         0.1013      0.0000     -0.0000      0.0103      0.0036
        24        -1.1981     -0.0000      0.0000      1.4354      0.5259
        25         0.0000     -0.1218      0.0263      0.0155      0.0058
        26        -0.0000     -0.0263     -0.1217      0.0155      0.0058
        27        -0.0000      0.0006     -0.0002      0.0000      0.0000
        28        -0.0000      0.3817      0.2139      0.1914      0.0733
        29        -0.0000     -0.2139      0.3816      0.1914      0.0733
        30         0.0000     -0.0934      0.2051      0.0508      0.0196
        31         0.0000      0.2050      0.0934      0.0507      0.0196
        32         0.1505     -0.0000     -0.0000      0.0227      0.0089
        33         0.0000     -0.0315      0.3685      0.1368      0.0547
        34         0.0000      0.3684      0.0315      0.1367      0.0547
        35        -0.0000     -0.0000     -0.0000      0.0000      0.0000
        36         0.1074      0.0001      0.0002      0.0115      0.0047
        37        -0.0000     -0.0729      0.5647      0.3242      0.1338
        38        -0.0000     -0.5647     -0.0729      0.3242      0.1338
        39         0.0000      0.0362     -0.1202      0.0158      0.0066
        40        -0.0000     -0.1201     -0.0363      0.0158      0.0066
        41         0.0000      0.6507      0.1281      0.4399      0.1839
        42         0.0000      0.1282     -0.6507      0.4398      0.1839
        43         0.0171      0.0000     -0.0000      0.0003      0.0001
        44        -0.0001      0.0388     -0.1733      0.0315      0.0133
        45         0.0001     -0.1732     -0.0388      0.0315      0.0133
        46        -0.9491      0.0000      0.0000      0.9007      0.3825
        47        -0.0000      0.0000      0.0000      0.0000      0.0000
        48         0.0000     -0.0238      0.0908      0.0088      0.0038
        49        -0.0000      0.0908      0.0238      0.0088      0.0038
        50         0.0000     -0.1905      0.0432      0.0382      0.0167
        51        -0.0000     -0.0431     -0.1907      0.0382      0.0167
        52        -0.0000      0.0004     -0.0001      0.0000      0.0000
        53         0.0000      0.2801      0.0358      0.0798      0.0350
        54        -0.0000     -0.0358      0.2800      0.0797      0.0350
        55        -0.0013      0.0000     -0.0000      0.0000      0.0000
        56         0.0000      0.0109      0.0016      0.0001      0.0001
        57         0.0000      0.0016     -0.0109      0.0001      0.0001
        58         0.0000      0.0000      0.0000      0.0000      0.0000
        59        -0.0000     -0.3287      0.0699      0.1130      0.0520
        60        -0.0002     -0.0699     -0.3287      0.1129      0.0520
        61         0.3583     -0.0000     -0.0001      0.1284      0.0594
        62        -0.0000     -0.0280      0.0781      0.0069      0.0032
        63        -0.0000      0.0781      0.0280      0.0069      0.0032
        64        -0.1051     -0.0000     -0.0000      0.0111      0.0053
        65         0.1755     -0.0000      0.0000      0.0308      0.0150
        66         0.0000      0.0000      0.0001      0.0000      0.0000
        67        -0.0000     -0.3132      0.1164      0.1116      0.0548
        68         0.0000      0.1164      0.3132      0.1116      0.0548
        69        -0.5287      0.0002     -0.0019      0.2796      0.1386
        70         0.0053      0.0359     -0.1937      0.0388      0.0193
        71         0.0006     -0.1938     -0.0359      0.0388      0.0193
        72        -0.0000     -0.0602      0.3368      0.1170      0.0586
        73        -0.0000      0.3367      0.0602      0.1170      0.0586
        74         0.1991      0.0001      0.0001      0.0396      0.0199
        75         0.3085      0.0000     -0.0000      0.0952      0.0488
        76         0.0004      0.0059     -0.0249      0.0007      0.0003
        77        -0.0008      0.0249      0.0059      0.0007      0.0003
        78         0.1624      0.0001      0.0001      0.0264      0.0137
        79         0.0000     -0.1052      0.3570      0.1385      0.0720
        80         0.0000      0.3570      0.1052      0.1385      0.0720
        81        -0.0000      0.0000      0.0000      0.0000      0.0000
        82         0.0000     -0.2739      0.1059      0.0863      0.0452
        83        -0.0000     -0.1059     -0.2740      0.0863      0.0452
        84         0.0000     -0.0204      0.1218      0.0153      0.0081
        85         0.0000      0.1218      0.0204      0.0153      0.0081
        86         0.0000      0.0254     -0.1245      0.0161      0.0086
        87         0.0000     -0.1245     -0.0254      0.0162      0.0086
        88         0.0859      0.0000      0.0000      0.0074      0.0040
        89        -0.0000      0.0009      0.0001      0.0000      0.0000
        90         0.0000      0.1317     -0.0497      0.0198      0.0108
        91        -0.0000     -0.0497     -0.1317      0.0198      0.0108
        92         0.0000      0.0833      0.0236      0.0075      0.0041
        93        -0.0000      0.0237     -0.0833      0.0075      0.0041
        94        -0.0000      0.0001     -0.0000      0.0000      0.0000
        95         0.0000      0.0004     -0.0508      0.0026      0.0014
        96        -0.0000      0.0508      0.0004      0.0026      0.0014
        97         0.0000     -0.0000     -0.0000      0.0000      0.0000
        98         0.2364      0.0000      0.0002      0.0559      0.0312
        99        -0.0000      0.3152      0.0326      0.1004      0.0561
       100         0.0001      0.0326     -0.3150      0.1003      0.0560
       101        -0.0001     -0.0164      0.3496      0.1225      0.0686
       102         0.0000     -0.3495     -0.0164      0.1224      0.0686
       103         0.2390      0.0000     -0.0000      0.0571      0.0323
       104         0.0000      0.0207     -0.0001      0.0004      0.0002
       105         0.0000      0.0001      0.0208      0.0004      0.0003
       106        -0.9221     -0.0000     -0.0000      0.8502      0.4939
       107         0.0002     -0.0000      0.0001      0.0000      0.0000
       108        -0.0002      0.0060      0.3345      0.1119      0.0654
       109         0.0000     -0.3345      0.0060      0.1119      0.0654
       110        -0.0004      0.0116      0.0050      0.0002      0.0001
       111        -0.0006     -0.0050      0.0116      0.0002      0.0001
       112         0.2267     -0.0000      0.0001      0.0514      0.0304
       113        -0.0000     -0.0164      0.0501      0.0028      0.0017
       114        -0.0000      0.0500      0.0164      0.0028      0.0016
       115        -0.1382      0.0000     -0.0000      0.0191      0.0115
       116        -0.0000     -0.0015      0.0047      0.0000      0.0000
       117        -0.0000      0.0047      0.0015      0.0000      0.0000
       118         0.1534     -0.0000     -0.0000      0.0235      0.0147
       119        -0.2194      0.0000      0.0000      0.0481      0.0303
       120         0.0000     -0.0091     -0.0469      0.0023      0.0015
       121        -0.0000     -0.0469      0.0091      0.0023      0.0015
       122         0.0000      0.0001     -0.0000      0.0000      0.0000
       123        -0.0000     -0.0990      0.2294      0.0624      0.0402
       124         0.0000      0.2293      0.0991      0.0624      0.0402
       125         0.0612     -0.0000      0.0001      0.0037      0.0024
       126         0.0000     -0.1478      0.1934      0.0592      0.0385
       127        -0.0000     -0.1934     -0.1478      0.0593      0.0385
       128         0.2003      0.0000      0.0000      0.0401      0.0266
       129         0.0000      0.1653     -0.0517      0.0300      0.0199
       130        -0.0000      0.0517      0.1653      0.0300      0.0199
       131         0.0000      0.0000      0.0000      0.0000      0.0000
       132         0.4377      0.0001      0.0001      0.1916      0.1300
       133         0.0000      0.2828     -0.4531      0.2853      0.1940
       134        -0.0001      0.4531      0.2828      0.2853      0.1941
       135        -0.2336      0.0001      0.0000      0.0545      0.0372
       136         0.0000      0.0000      0.0000      0.0000      0.0000
       137         0.0000      0.0106     -0.0889      0.0080      0.0056
       138         0.0000      0.0889      0.0106      0.0080      0.0056
       139         0.0000     -0.0000     -0.0000      0.0000      0.0000
       140        -0.0003     -0.0159      0.5045      0.2548      0.1814
       141        -0.0000     -0.5045     -0.0159      0.2548      0.1815
       142        -0.5492      0.0000     -0.0002      0.3017      0.2158
       143        -0.0000      0.0518      0.0657      0.0070      0.0051
       144        -0.0000     -0.0657      0.0518      0.0070      0.0051
       145         0.0799      0.0000      0.0001      0.0064      0.0047
       146        -0.0000     -0.1444      0.3163      0.1209      0.0891
       147        -0.0000      0.3163      0.1444      0.1209      0.0891
       148        -0.3421     -0.0000     -0.0000      0.1170      0.0872
       149         0.0000      0.0000     -0.0000      0.0000      0.0000
       150         0.0143     -0.0002     -0.0001      0.0002      0.0002
       151         0.0000     -0.0058     -0.0014      0.0000      0.0000
       152        -0.0000     -0.0015      0.0056      0.0000      0.0000
       153        -0.0000      0.1022     -0.3117      0.1076      0.0829
       154        -0.0000     -0.3118     -0.1022      0.1076      0.0829
       155         0.0717     -0.0000     -0.0000      0.0051      0.0040
       156        -0.0000     -0.1964      0.0644      0.0427      0.0336
       157        -0.0000     -0.0644     -0.1964      0.0427      0.0336
       158         0.0000      0.0656     -0.3313      0.1140      0.0904
       159         0.0000     -0.3313     -0.0656      0.1140      0.0904
       160        -0.0423     -0.0000     -0.0000      0.0018      0.0014
       161         0.0000     -0.0010      0.0007      0.0000      0.0000
       162         0.0000     -0.2840     -0.0410      0.0823      0.0663
       163        -0.0000      0.0410     -0.2840      0.0823      0.0663
       164        -0.0000      0.0575     -0.3596      0.1326      0.1071
       165        -0.0000     -0.3595     -0.0575      0.1326      0.1071
       166        -0.0000     -0.0000     -0.0000      0.0000      0.0000
       167        -0.0781      0.0000      0.0000      0.0061      0.0050
       168        -0.1075      0.0001     -0.0000      0.0116      0.0095
       169        -0.0000      0.0192      0.1322      0.0179      0.0147
       170         0.0001      0.1323     -0.0192      0.0179      0.0147
       171        -0.0000      0.0355     -0.1018      0.0116      0.0096
       172        -0.0000     -0.1018     -0.0356      0.0116      0.0096
       173         0.2504     -0.0000      0.0000      0.0627      0.0531
       174         0.0001     -0.0019     -0.0433      0.0019      0.0016
       175        -0.0000     -0.0433      0.0019      0.0019      0.0016
       176        -0.0000      0.0000     -0.0000      0.0000      0.0000
       177         0.0000     -0.0182      0.0036      0.0003      0.0003
       178        -0.0000     -0.0036     -0.0182      0.0003      0.0003
       179        -0.4292      0.0000      0.0000      0.1842      0.1601
       180         0.1225     -0.0000     -0.0000      0.0150      0.0131
       181         0.0000     -0.0455      0.1707      0.0312      0.0274
       182         0.0000      0.1707      0.0455      0.0312      0.0274
       183        -0.0000     -0.0063      0.0402      0.0017      0.0015
       184         0.0000     -0.0402     -0.0063      0.0017      0.0015
       185         0.3164      0.0000      0.0000      0.1001      0.0885
       186         0.0575      0.0000     -0.0000      0.0033      0.0029
       187        -0.0000     -0.0062      0.0221      0.0005      0.0005
       188        -0.0000      0.0221      0.0061      0.0005      0.0005
       189         0.0000      0.0280      0.0906      0.0090      0.0081
       190         0.0000      0.0905     -0.0280      0.0090      0.0081
       191         0.0000     -0.0000      0.0001      0.0000      0.0000
       192        -0.0000      0.0054     -0.1088      0.0119      0.0108
       193        -0.0000     -0.1089     -0.0054      0.0119      0.0108
       194         0.0878     -0.0001      0.0001      0.0077      0.0071
       195         0.0000      0.0065     -0.2039      0.0416      0.0383
       196        -0.0000     -0.2040     -0.0065      0.0416      0.0383
       197        -0.0000     -0.2058     -0.3030      0.1342      0.1242
       198        -0.0000     -0.3029      0.2058      0.1341      0.1242
       199        -0.0000     -0.0032      0.0256      0.0007      0.0006
       200        -0.0000      0.0255      0.0032      0.0007      0.0006
       201        -0.0333      0.0000      0.0001      0.0011      0.0010
       202        -0.0000      0.0037     -0.1236      0.0153      0.0144
       203        -0.0000     -0.1236     -0.0037      0.0153      0.0143
       204         0.0000      0.0001     -0.0000      0.0000      0.0000
       205         0.0000      0.1378      0.0073      0.0190      0.0180
       206        -0.0000      0.0073     -0.1378      0.0190      0.0180
       207         0.1387     -0.0000     -0.0000      0.0192      0.0182
       208        -0.0000     -0.0884     -0.0125      0.0080      0.0077
       209        -0.0000      0.0125     -0.0884      0.0080      0.0077
       210        -0.0541      0.0000     -0.0000      0.0029      0.0028
       211         0.0000      0.0698     -0.0227      0.0054      0.0053
       212         0.0000      0.0227      0.0698      0.0054      0.0053
       213        -0.0826      0.0000      0.0000      0.0068      0.0068
       214         0.0098      0.0000      0.0000      0.0001      0.0001
       215        -0.0000     -0.0229      0.0868      0.0081      0.0082
       216        -0.0000      0.0868      0.0229      0.0081      0.0082
       217        -0.0477     -0.0000     -0.0000      0.0023      0.0023
       218        -0.0000      0.0017     -0.0128      0.0002      0.0002
       219         0.0000      0.0128      0.0017      0.0002      0.0002
       220         0.0000     -0.0000     -0.0000      0.0000      0.0000
       221        -0.0317      0.0000      0.0000      0.0010      0.0010
       222         0.0000      0.0239      0.0219      0.0011      0.0011
       223        -0.0000     -0.0219      0.0239      0.0011      0.0011
       224        -0.0000      0.0278      0.0827      0.0076      0.0081
       225        -0.0000      0.0826     -0.0278      0.0076      0.0081
       226        -0.1560     -0.0000     -0.0000      0.0243      0.0259
       227        -0.0229     -0.0000      0.0000      0.0005      0.0006
       228         0.0000     -0.2985     -0.0033      0.0891      0.0967
       229        -0.0000     -0.0033      0.2985      0.0891      0.0967
       230         0.0500     -0.0000     -0.0000      0.0025      0.0027
       231        -0.0000      0.0819     -0.0261      0.0074      0.0082
       232         0.0000      0.0261      0.0819      0.0074      0.0082
       233        -0.0854      0.0000     -0.0000      0.0073      0.0086
       234        -0.0000      0.0002      0.0000      0.0000      0.0000
       235         0.0059      0.0000      0.0000      0.0000      0.0000
       236         0.0002     -0.0025      0.1982      0.0393      0.0475
       237         0.0000     -0.1981     -0.0025      0.0393      0.0475
       238        -0.4519      0.0000      0.0000      0.2042      0.2513
       239        -0.0002     -0.0234      0.0451      0.0026      0.0032
       240        -0.0001      0.0451      0.0234      0.0026      0.0032
       241         0.0000     -0.0032     -0.0326      0.0011      0.0014
       242         0.0000     -0.0326      0.0032      0.0011      0.0014
       243        -0.0000     -0.0000      0.0001      0.0000      0.0000
       244         0.0000     -0.0056      0.0866      0.0075      0.0097
       245         0.0000      0.0865      0.0056      0.0075      0.0096
       246         0.0002      0.0086      0.1292      0.0168      0.0218
       247         0.0000     -0.1290      0.0086      0.0167      0.0217
       248         0.0000     -0.0148     -0.0001      0.0002      0.0003
       249         0.0001      0.0002      0.0130      0.0002      0.0002
       250         0.0000      0.0003     -0.0001      0.0000      0.0000
       251         0.2535     -0.0000     -0.0000      0.0643      0.0840
       252         0.0001      0.0260     -0.2842      0.0815      0.1070
       253         0.0000      0.2843      0.0260      0.0815      0.1071
       254        -0.2283      0.0000      0.0001      0.0521      0.0696
       255        -0.0541      0.0000     -0.0000      0.0029      0.0039
       256         0.0000     -0.1362     -0.1119      0.0311      0.0422
       257         0.0000      0.1119     -0.1362      0.0311      0.0422
       258        -0.0000      0.0271      0.0719      0.0059      0.0081
       259        -0.0000      0.0719     -0.0271      0.0059      0.0081
       260        -0.0000     -0.0100      0.0146      0.0003      0.0004
       261        -0.0000      0.0143      0.0102      0.0003      0.0004
       262         0.0000     -0.0003      0.0001      0.0000      0.0000
       263        -0.0000      0.1447      0.0241      0.0215      0.0297
       264         0.0000     -0.0241      0.1446      0.0215      0.0297
       265        -0.1063     -0.0000     -0.0000      0.0113      0.0157
       266        -0.0000      0.0572      0.0990      0.0131      0.0182
       267         0.0000      0.0991     -0.0572      0.0131      0.0182
       268        -0.0000     -0.0001      0.0000      0.0000      0.0000
       269        -0.0000     -0.0687     -0.0031      0.0047      0.0067
       270         0.0000     -0.0031      0.0687      0.0047      0.0067
       271         0.2287     -0.0000     -0.0000      0.0523      0.0739
       272         0.0000      0.0800     -0.0011      0.0064      0.0093
       273        -0.0000     -0.0011     -0.0800      0.0064      0.0093
       274        -0.0001      0.0008     -0.0231      0.0005      0.0008
       275         0.0000     -0.0230     -0.0008      0.0005      0.0008
       276        -0.1139     -0.0000      0.0001      0.0130      0.0189
       277        -0.0000     -0.0377     -0.0703      0.0064      0.0094
       278         0.0000     -0.0703      0.0378      0.0064      0.0094
       279         0.0000     -0.0018     -0.0026      0.0000      0.0000
       280         0.0555     -0.0000      0.0000      0.0031      0.0046
       281         0.0000      0.0206     -0.0373      0.0018      0.0027
       282        -0.0000     -0.0374     -0.0206      0.0018      0.0027
       283         0.1656     -0.0000      0.0000      0.0274      0.0414
       284        -0.0000      0.0000      0.0000      0.0000      0.0000
       285        -0.0000     -0.0368      0.1247      0.0169      0.0259
       286        -0.0000      0.1247      0.0368      0.0169      0.0259
       287        -0.0754      0.0001     -0.0000      0.0057      0.0088
       288         0.0000      0.0002      0.0002      0.0000      0.0000
       289         0.0001      0.0110     -0.0363      0.0014      0.0022
       290         0.0000      0.0363      0.0110      0.0014      0.0022
       291         0.0000      0.0736     -0.0481      0.0077      0.0121
       292         0.0000      0.0481      0.0736      0.0077      0.0121
       293         0.0000      0.0617     -0.0234      0.0044      0.0069
       294        -0.0000      0.0234      0.0618      0.0044      0.0069
       295        -0.0334     -0.0000      0.0000      0.0011      0.0018
       296         0.0000     -0.0003      0.0508      0.0026      0.0041
       297         0.0000     -0.0508     -0.0003      0.0026      0.0041
       298        -0.0000     -0.0001     -0.0001      0.0000      0.0000
       299         0.0895      0.0000     -0.0000      0.0080      0.0129
       300         0.0965     -0.0000     -0.0000      0.0093      0.0155
       301        -0.0000      0.0061     -0.1385      0.0192      0.0322
       302        -0.0000     -0.1385     -0.0061      0.0192      0.0322
       303        -0.0000      0.0001     -0.0468      0.0022      0.0037
       304        -0.0000      0.0469      0.0001      0.0022      0.0037
       305         0.0000      0.0000      0.0001      0.0000      0.0000
       306         0.0000      0.0838     -0.0447      0.0090      0.0153
       307        -0.0000      0.0447      0.0839      0.0090      0.0153
       308        -0.0000     -0.0632      0.0300      0.0049      0.0083
       309        -0.0000     -0.0300     -0.0632      0.0049      0.0083
       310         0.0585      0.0000      0.0000      0.0034      0.0058
       311        -0.0000      0.0117      0.1670      0.0280      0.0482
       312        -0.0000      0.1670     -0.0118      0.0280      0.0482
       313        -0.0412     -0.0000      0.0000      0.0017      0.0030
       314         0.0000     -0.0020      0.0063      0.0000      0.0001
       315         0.0000      0.0064      0.0019      0.0000      0.0001
       316         0.0000      0.1443     -0.1412      0.0408      0.0723
       317         0.0000     -0.1412     -0.1443      0.0408      0.0723
       318         0.0592      0.0000      0.0000      0.0035      0.0063
       319        -0.0000     -0.0047      0.0302      0.0009      0.0017
       320        -0.0000      0.0302      0.0047      0.0009      0.0017
       321        -0.0126     -0.0000     -0.0000      0.0002      0.0003
       322        -0.0000      0.0423      0.0797      0.0081      0.0150
       323         0.0000      0.0798     -0.0423      0.0082      0.0150
       324        -0.0000      0.1002     -0.1593      0.0354      0.0654
       325        -0.0000     -0.1593     -0.1002      0.0354      0.0654
       326         0.0000      0.0001      0.0000      0.0000      0.0000
       327         0.1434     -0.0000     -0.0002      0.0206      0.0382
       328        -0.0004     -0.0051     -0.0538      0.0029      0.0054
       329         0.0000     -0.0538      0.0051      0.0029      0.0054
       330        -0.0000      0.0000     -0.0000      0.0000      0.0000
       331        -0.0999      0.0000      0.0000      0.0100      0.0191
       332         0.0000     -0.0000     -0.0000      0.0000      0.0000
       333         0.0102      0.0000     -0.0000      0.0001      0.0002
       334        -0.0001     -0.0003     -0.0049      0.0000      0.0000
       335         0.0000     -0.0049      0.0003      0.0000      0.0000
       336         0.2156     -0.0000      0.0001      0.0465      0.0908
       337        -0.0002     -0.0051      0.1391      0.0194      0.0379
       338        -0.0000     -0.1391     -0.0051      0.0194      0.0379
       339        -0.0804      0.0000     -0.0000      0.0065      0.0127
       340        -0.0000     -0.0016      0.0019      0.0000      0.0000
       341        -0.0000      0.0018      0.0016      0.0000      0.0000
       342        -0.0000     -0.0984      0.0478      0.0120      0.0243
       343         0.0000     -0.0478     -0.0984      0.0120      0.0243
       344         0.1020     -0.0000      0.0000      0.0104      0.0214
       345        -0.0000      0.0023     -0.0591      0.0035      0.0073
       346         0.0000      0.0591      0.0023      0.0035      0.0073
       347        -0.0000     -0.0077      0.0377      0.0015      0.0031
       348        -0.0000      0.0377      0.0077      0.0015      0.0031
       349         0.0088     -0.0000     -0.0000      0.0001      0.0002
       350         0.0000     -0.0328     -0.0736      0.0065      0.0141
       351        -0.0000     -0.0736      0.0328      0.0065      0.0141
       352        -0.0001     -0.0420     -0.0003      0.0018      0.0039
       353         0.0002      0.0003     -0.0420      0.0018      0.0039
       354        -0.0000     -0.0002     -0.0000      0.0000      0.0000
       355         0.0987     -0.0000      0.0001      0.0097      0.0214
       356         0.0245     -0.0000      0.0000      0.0006      0.0014
       357         0.0366      0.0000     -0.0000      0.0013      0.0030
       358        -0.0000      0.0002      0.0000      0.0000      0.0000
       359        -0.0493     -0.0001      0.0003      0.0024      0.0056
       360        -0.0000      0.1386     -0.0003      0.0192      0.0439
       361        -0.0001     -0.0003     -0.1386      0.0192      0.0440
       362         0.0000     -0.0092      0.0013      0.0001      0.0002
       363         0.0000     -0.0014     -0.0088      0.0001      0.0002
       364        -0.0568     -0.0000      0.0000      0.0032      0.0075
       365        -0.0000     -0.0782      0.0121      0.0063      0.0151
       366        -0.0000     -0.0122     -0.0781      0.0063      0.0151
       367         0.0000     -0.0002     -0.0000      0.0000      0.0000
       368         0.0023     -0.0000     -0.0001      0.0000      0.0000
       369         0.0000      0.0009     -0.0190      0.0004      0.0009
       370        -0.0000      0.0188      0.0009      0.0004      0.0009
       371         0.0000     -0.0560     -0.0874      0.0108      0.0268
       372        -0.0000      0.0874     -0.0560      0.0108      0.0268
       373         0.0000     -0.0001      0.0001      0.0000      0.0000
       374        -0.0000     -0.1080      0.2001      0.0517      0.1286
       375        -0.0000     -0.2001     -0.1080      0.0517      0.1286
       376         0.0000     -0.0032      0.0004      0.0000      0.0000
       377         0.0000      0.0004      0.0032      0.0000      0.0000
       378        -0.0000      0.0000     -0.0000      0.0000      0.0000
       379        -0.0044      0.0000      0.0000      0.0000      0.0000
       380        -0.0000      0.0557     -0.0741      0.0086      0.0219
       381         0.0000      0.0741      0.0557      0.0086      0.0219
       382        -0.1992      0.0000      0.0000      0.0397      0.1017
       383         0.0000      0.0001     -0.0070      0.0000      0.0001
       384         0.0000     -0.0071     -0.0001      0.0000      0.0001
       385         0.0689      0.0000     -0.0000      0.0048      0.0124
       386         0.0000     -0.0000      0.0000      0.0000      0.0000
       387        -0.2985     -0.0000     -0.0000      0.0891      0.2356
       388         0.0000     -0.1702      0.3030      0.1208      0.3221
       389         0.0000     -0.3030     -0.1702      0.1208      0.3221
       390        -0.0000      0.0104     -0.0002      0.0001      0.0003
       391         0.0000     -0.0002     -0.0104      0.0001      0.0003
       392         0.0000     -0.0706      0.0559      0.0081      0.0223
       393        -0.0000     -0.0559     -0.0706      0.0081      0.0224
       394         0.0000     -0.0347      0.0037      0.0012      0.0034
       395        -0.0000     -0.0037     -0.0347      0.0012      0.0034
[...]
      2  -0.215577D+00  0.190937D-03  0.000000D+00  0.803998D-01  0.596001D-05
      3  -0.480940D-05 -0.570926D-02 -0.139065D+00  0.000000D+00 -0.161528D-02
      4  -0.110954D-03 -0.139073D+00  0.571195D-02  0.144733D-04 -0.184631D-02
      5   0.594861D+00 -0.500347D-03 -0.694643D-05 -0.239061D+00 -0.192413D-04
      6   0.129607D-04  0.147957D-01  0.360413D+00 -0.202286D-05  0.212329D-01
      7   0.287777D-03  0.360426D+00 -0.148035D-01 -0.323244D-04  0.245027D-01
      8   0.000000D+00  0.000000D+00 -0.363057D-04  0.000000D+00  0.000000D+00
      9  -0.414068D-04 -0.695176D-02  0.291274D-03 -0.367966D-04 -0.180591D+00
     10  -0.307113D-05  0.281274D-03  0.693092D-02 -0.235647D-05  0.156170D+00
     11   0.862085D+00 -0.660283D-03 -0.597555D-04 -0.226245D+01 -0.779420D-04
     12   0.390303D+00  0.246801D+00 -0.144671D-02 -0.873809D+00 -0.510066D-01
     13   0.389831D+00 -0.247433D+00  0.140190D-02 -0.873814D+00  0.510211D-01
     14  -0.544627D-05  0.682026D-03  0.168258D-01  0.000000D+00  0.238708D+00
     15   0.690938D-04  0.167496D-01 -0.696573D-03  0.310520D-04  0.276162D+00
     16  -0.564698D-05  0.143539D-02  0.247160D+00 -0.352616D-05 -0.410399D-01
               341           342           343           344           345 
      1  -0.136562D+03 -0.136554D+03 -0.136554D+03 -0.136521D+03 -0.136478D+03
      2   0.671392D-05  0.158972D-04 -0.365871D-05 -0.102004D+00  0.612727D-05
      3   0.183263D-02 -0.985867D-01 -0.473927D-01 -0.133357D-04  0.257977D-02
      4  -0.156028D-02 -0.473850D-01  0.985749D-01 -0.683492D-05  0.591362D-01
      5  -0.163573D-04 -0.492022D-04  0.116312D-04  0.314646D+00 -0.154022D-04
      6  -0.244648D-01  0.286551D+00  0.137760D+00  0.418275D-04 -0.694536D-02
      7   0.210729D-01  0.137728D+00 -0.286531D+00  0.230891D-04 -0.159219D+00
      8   0.000000D+00  0.200978D-05  0.000000D+00  0.000000D+00  0.000000D+00
      9  -0.155969D+00 -0.122581D+00  0.255149D+00 -0.470178D-04  0.140938D+00
     10  -0.180616D+00  0.255004D+00  0.122660D+00  0.526530D-04 -0.614259D-02
     11   0.279575D-04 -0.128909D-03  0.462156D-04  0.876339D+00 -0.131403D-04
     12  -0.410517D-01  0.234464D-01 -0.446009D-01 -0.181396D+00  0.163338D+00
     13   0.410532D-01 -0.234001D-01  0.445750D-01 -0.181410D+00 -0.163282D+00
     14  -0.276195D+00  0.103763D+00  0.499920D-01  0.465492D-04 -0.176848D-02
     15   0.238614D+00  0.498727D-01 -0.103971D+00  0.344868D-04 -0.406244D-01
     16   0.510405D-01  0.446372D-01  0.234083D-01  0.000000D+00  0.136507D-02
               346           347           348           349           350 
      1  -0.136478D+03 -0.136420D+03 -0.136420D+03 -0.136401D+03 -0.136355D+03
      2   0.000000D+00  0.231312D-05  0.000000D+00 -0.882939D-02 -0.247696D-05
      3   0.591317D-01 -0.782123D-02  0.376718D-01 -0.301028D-05 -0.324552D-01
      4  -0.258053D-02 -0.376528D-01 -0.781428D-02  0.970894D-05  0.737076D-01
      5   0.000000D+00 -0.444411D-05  0.000000D+00  0.503264D-01  0.670325D-05
      6  -0.159207D+00  0.110998D-01 -0.534514D-01  0.831062D-05  0.121377D+00
      7   0.694826D-02  0.533987D-01  0.110810D-01 -0.266419D-04 -0.275655D+00
      8   0.168538D-04  0.000000D+00 -0.102283D-05  0.000000D+00  0.000000D+00
      9  -0.615232D-02  0.772024D-01  0.160251D-01 -0.200862D-04  0.399354D+00
     10  -0.140990D+00 -0.160381D-01  0.772481D-01  0.000000D+00  0.175832D+00
     11   0.608381D-05 -0.120226D-04 -0.384588D-04 -0.679611D+00  0.512543D-05
     12  -0.136416D-02 -0.109761D+00 -0.187799D-01  0.189213D+00 -0.312863D-01
     13   0.136127D-02  0.109736D+00  0.187663D-01  0.189250D+00  0.312560D-01
     14  -0.406175D-01 -0.340125D-01  0.163854D+00 -0.115738D-04  0.268263D+00
     15   0.177230D-02 -0.163809D+00 -0.340001D-01  0.339951D-05 -0.609264D+00
     16   0.163340D+00 -0.187656D-01  0.109732D+00 -0.371940D-05  0.151050D-01
               351           352           353           354           355 
      1  -0.136355D+03 -0.136317D+03 -0.136317D+03 -0.136315D+03 -0.136312D+03
      2   0.463259D-05  0.703342D-04 -0.242002D-03  0.111150D-04 -0.986551D-01
      3  -0.737108D-01 -0.419760D-01  0.441542D-03 -0.206226D-03 -0.296143D-04
      4  -0.324558D-01  0.443451D-03  0.419615D-01  0.401930D-04 -0.100116D-03
      5  -0.140336D-04 -0.184968D-03  0.632698D-03 -0.290101D-04  0.258987D+00
      6   0.275666D+00  0.134813D+00 -0.141837D-02  0.666815D-03  0.947172D-04
      7   0.121379D+00 -0.142386D-02 -0.134774D+00 -0.129721D-03  0.321436D-03
      8   0.126771D-05  0.467541D-04  0.102063D-04 -0.924419D-02 -0.142958D-05
      9  -0.175844D+00 -0.549226D-02 -0.520771D+00 -0.498334D-03  0.127610D-02
     10   0.399338D+00 -0.520790D+00  0.549184D-02 -0.257564D-02 -0.370471D-03
     11  -0.326403D-04  0.375905D-03 -0.140787D-02  0.630250D-04 -0.569652D+00
     12   0.151203D-01  0.190189D-02 -0.760425D-01 -0.548129D-04 -0.336860D-01
     13  -0.150955D-01 -0.185417D-02  0.758783D-01  0.636495D-04 -0.340682D-01
     14   0.609260D+00 -0.296879D+00  0.313134D-02 -0.144833D-02 -0.215225D-03
     15   0.268272D+00  0.313152D-02  0.296837D+00  0.282984D-03 -0.705790D-03
     16   0.312699D-01  0.759630D-01  0.187436D-02  0.373897D-03  0.449327D-04
               356           357           358           359           360 
      1  -0.136229D+03 -0.136208D+03 -0.136179D+03 -0.136179D+03 -0.136173D+03
      2  -0.245492D-01 -0.366428D-01  0.192500D-04  0.493353D-01  0.332325D-04
      3  -0.293575D-05  0.108563D-05  0.184781D-03 -0.869201D-04  0.138598D+00
      4  -0.268850D-05  0.856554D-05 -0.355651D-04 -0.317268D-03 -0.268801D-03
      5   0.137115D+00  0.108243D+00 -0.673899D-04 -0.171685D+00 -0.114936D-03
      6   0.883886D-05 -0.168207D-05 -0.510762D-03  0.240992D-03 -0.383940D+00
      7   0.502392D-05 -0.217912D-04  0.974087D-04  0.878236D-03  0.744250D-03
      8   0.000000D+00  0.000000D+00 -0.868678D-02  0.358740D-05  0.987134D-05
      9   0.598460D-05  0.284719D-05  0.423644D-04  0.318455D-03  0.269239D-03
     10   0.731230D-05  0.110934D-05  0.192809D-03 -0.846880D-04  0.140017D+00
     11   0.543221D+00 -0.301559D+00  0.139691D-03  0.358212D+00  0.180080D-03
     12  -0.696779D+00  0.342914D-01  0.781334D-04  0.164314D+00 -0.141028D-02
     13  -0.696782D+00  0.343167D-01  0.531902D-04  0.164182D+00  0.162686D-02
     14   0.100910D-04 -0.885385D-05  0.724224D-04 -0.788619D-04  0.198955D+00
     15  -0.198818D-04 -0.180756D-04 -0.426144D-04 -0.556157D-03 -0.325595D-03
     16   0.000000D+00  0.367218D-05 -0.164041D-03  0.525821D-04 -0.462775D-01
               361           362           363           364           365 
      1  -0.136173D+03 -0.136171D+03 -0.136171D+03 -0.136143D+03 -0.135977D+03
      2   0.124247D-03 -0.673131D-05 -0.253091D-04  0.568394D-01  0.000000D+00
      3   0.266511D-03 -0.921201D-02 -0.131522D-02 -0.205289D-05 -0.782305D-01
      4   0.138625D+00 -0.128213D-02  0.884941D-02 -0.269515D-05 -0.118093D-01
      5  -0.428233D-03  0.238957D-04  0.840531D-04 -0.237773D+00  0.000000D+00
      6  -0.738862D-03  0.265620D-01  0.379583D-02  0.514323D-05  0.224324D+00
      7  -0.384019D+00  0.370383D-02 -0.255565D-01  0.464457D-05  0.338734D-01
      8  -0.104926D-05 -0.110675D-04 -0.212935D-05  0.000000D+00 -0.122535D-04
      9  -0.140095D+00  0.985747D-04 -0.732349D-03  0.222335D-04  0.404536D-01
     10   0.267401D-03 -0.112492D-02 -0.129757D-03 -0.502263D-05 -0.268468D+00
     11   0.856950D-03 -0.701250D-04 -0.176101D-03 -0.843534D+00  0.148563D-05
     12  -0.462051D-01  0.217987D-01 -0.119717D+00  0.789855D+00 -0.238857D-01
     13   0.469768D-01 -0.218384D-01  0.119571D+00  0.789855D+00  0.238893D-01
     14   0.366185D-03  0.237936D+00  0.348143D-01 -0.999256D-05 -0.102755D+00
     15   0.198360D+00  0.348537D-01 -0.238468D+00 -0.307798D-04 -0.153881D-01
     16   0.154139D-02  0.119755D+00  0.218128D-01  0.000000D+00 -0.127573D+00
               366           367           368           369           370 
      1  -0.135977D+03 -0.135977D+03 -0.135977D+03 -0.135972D+03 -0.135972D+03
      2   0.000000D+00  0.000000D+00 -0.229852D-02 -0.272630D-05  0.127109D-05
      3  -0.118126D-01 -0.234961D-03 -0.224184D-04  0.962805D-03  0.187911D-01
      4   0.781837D-01  0.275286D-04  0.118269D-03  0.189644D-01 -0.986952D-03
      5   0.140022D-04  0.000000D+00 -0.250011D-02  0.892046D-05 -0.435255D-05
      6   0.338782D-01  0.673624D-03  0.642697D-04 -0.399907D-03 -0.811407D-02
      7  -0.224292D+00 -0.782543D-04 -0.339437D-03 -0.861148D-02  0.467836D-03
      8  -0.166644D-05  0.276889D-02  0.000000D+00  0.149957D-05  0.426470D-05
      9  -0.267623D+00 -0.100434D-03 -0.388785D-03 -0.379724D+00  0.196290D-01
     10  -0.405017D-01 -0.822665D-03 -0.769807D-04  0.195324D-01  0.379131D+00
     11   0.128401D-03 -0.159335D-04 -0.971845D-01  0.850684D-05 -0.110199D-04
     12   0.127491D+00  0.364452D-04  0.213373D-01  0.193120D-01 -0.341089D-03
     13  -0.127557D+00 -0.297713D-04  0.209608D-01 -0.193337D-01  0.338033D-03
     14  -0.154586D-01 -0.311569D-03 -0.289038D-04  0.273144D-01  0.529754D+00
     15   0.101591D+00  0.403381D-04  0.140979D-03  0.529979D+00 -0.273691D-01
     16  -0.238882D-01 -0.391227D-03 -0.425423D-04  0.288736D-03  0.190398D-01
               371           372           373           374           375 
      1  -0.135880D+03 -0.135880D+03 -0.135877D+03 -0.135874D+03 -0.135874D+03
      2  -0.129935D-05  0.128234D-05  0.000000D+00  0.000000D+00  0.348643D-05
      3  -0.556357D-01  0.876368D-01 -0.588391D-04 -0.108864D+00 -0.199630D+00
      4   0.876212D-01  0.556169D-01 -0.130383D-03 -0.199642D+00  0.108868D+00
      5   0.522102D-05 -0.422067D-05  0.000000D+00  0.000000D+00 -0.117783D-04
      6   0.183726D+00 -0.289403D+00  0.196889D-03  0.365742D+00  0.670681D+00
      7  -0.289350D+00 -0.183663D+00  0.435062D-03  0.670721D+00 -0.365754D+00
      8   0.165759D-05  0.000000D+00  0.804649D-02 -0.124083D-05  0.000000D+00
      9   0.324293D+00  0.205842D+00 -0.482606D-03 -0.739515D+00  0.403270D+00
     10   0.205925D+00 -0.324372D+00  0.219317D-03  0.403257D+00  0.739473D+00
     11   0.474658D-04  0.162466D-05  0.000000D+00  0.000000D+00 -0.462971D-04
     12   0.387368D-01  0.265452D-01 -0.123799D-04  0.115591D-01 -0.577942D-02
     13  -0.387375D-01 -0.265505D-01  0.126380D-04 -0.115588D-01  0.578520D-02
     14   0.221549D+00 -0.348989D+00  0.188525D-03  0.311899D+00  0.571943D+00
     15  -0.348932D+00 -0.221485D+00  0.414027D-03  0.571987D+00 -0.311913D+00
     16  -0.265514D-01  0.387328D-01  0.000000D+00  0.578762D-02  0.115614D-01
               376           377           378           379           380 
      1  -0.135833D+03 -0.135833D+03 -0.135793D+03 -0.135793D+03 -0.135776D+03
      2   0.000000D+00  0.000000D+00  0.000000D+00  0.439991D-02  0.171661D-05
      3  -0.318858D-02  0.384292D-03  0.128431D-04  0.523240D-05  0.560660D-01
      4  -0.398832D-03 -0.320522D-02  0.451266D-05 -0.419014D-05  0.738426D-01
      5   0.000000D+00  0.298596D-05  0.000000D+00 -0.793465D-02 -0.576168D-05
      6   0.368290D-02 -0.430084D-03 -0.393799D-04 -0.165337D-04 -0.170548D+00
      7   0.478908D-03  0.373696D-02 -0.146332D-04  0.136454D-04 -0.224622D+00
      8   0.000000D+00  0.000000D+00 -0.298541D-02  0.000000D+00 -0.187252D-05
      9   0.759459D-02  0.622274D-01  0.179734D-04 -0.239077D-04  0.288674D+00
     10  -0.622708D-01  0.765191D-02 -0.353589D-04 -0.198601D-04 -0.219176D+00
     11   0.116574D-05  0.122838D-05 -0.195064D-05  0.122147D+00 -0.277679D-04
     12  -0.187426D-01 -0.118312D+00  0.340860D-05  0.273986D-02  0.180616D-01
     13   0.187423D-01  0.118314D+00 -0.358355D-05  0.273187D-02 -0.180584D-01
     14  -0.945933D-01  0.116078D-01 -0.234116D-04 -0.148722D-04 -0.121330D+00
     15  -0.115573D-01 -0.945626D-01 -0.114487D-04  0.164491D-04 -0.159796D+00
     16  -0.118307D+00  0.187418D-01  0.730835D-05 -0.105326D-05  0.127363D-01
               381           382           383           384           385 
      1  -0.135776D+03 -0.135762D+03 -0.135702D+03 -0.135702D+03 -0.135700D+03
      2  -0.748613D-05  0.199248D+00 -0.880398D-05 -0.126746D-04 -0.689448D-01
      3   0.738484D-01  0.606990D-05  0.121081D-03 -0.705259D-02  0.000000D+00
      4  -0.560670D-01 -0.585840D-05  0.704000D-02  0.125560D-03  0.133880D-05
      5   0.246353D-04 -0.674344D+00  0.293358D-04  0.433683D-04  0.239770D+00
      6  -0.224642D+00 -0.198716D-04 -0.545499D-03  0.316270D-01  0.000000D+00
      7   0.170551D+00  0.191964D-04 -0.315850D-01 -0.560000D-03 -0.578652D-05
      8  -0.151877D-05  0.000000D+00 -0.291681D-05 -0.354931D-05  0.000000D+00
      9  -0.219188D+00 -0.311800D-04  0.398808D-01  0.706386D-03  0.244915D-04
     10  -0.288698D+00 -0.155011D-04 -0.688404D-03  0.399037D-01  0.546577D-05
     11   0.869483D-04 -0.257537D+01  0.391453D-04  0.133460D-03  0.590225D+00
     12  -0.127371D-01  0.378054D-01 -0.389923D-01  0.697766D-03 -0.787744D-01
     13   0.127311D-01  0.378015D-01  0.390044D-01 -0.693584D-03 -0.787875D-01
     14  -0.159827D+00 -0.147775D-04  0.174154D-02 -0.994202D-01  0.131309D-04
     15   0.121341D+00  0.299698D-04  0.994510D-01  0.172977D-02 -0.340408D-04
     16   0.180633D-01  0.158321D-05  0.693322D-03  0.390000D-01  0.279982D-05
               386           387           388           389           390 
      1  -0.135699D+03 -0.135638D+03 -0.135606D+03 -0.135606D+03 -0.135554D+03
      2   0.000000D+00  0.298472D+00 -0.143765D-05 -0.305746D-05  0.000000D+00
      3  -0.445212D-05 -0.457392D-05 -0.171546D+00 -0.302297D+00  0.104070D-01
      4  -0.507967D-05  0.210981D-05 -0.302301D+00  0.171544D+00  0.115719D-03
      5   0.000000D+00 -0.105761D+01  0.484142D-05  0.110473D-04  0.000000D+00
      6   0.133738D-04  0.156007D-04  0.591999D+00  0.104322D+01 -0.311790D-01
      7   0.198061D-04 -0.746144D-05  0.104323D+01 -0.591992D+00 -0.346797D-03
      8  -0.134701D-01  0.000000D+00  0.411710D-05 -0.187752D-05  0.000000D+00
      9  -0.215142D-04  0.145094D-04 -0.154574D+01  0.877150D+00 -0.635872D-03
     10   0.185478D-04  0.257526D-04  0.877161D+00  0.154573D+01  0.573219D-01
     11   0.414526D-05 -0.295470D+01  0.746470D-05  0.393045D-04 -0.373586D-05
     12   0.134927D-04 -0.855660D-01  0.590853D-02 -0.307197D-02  0.111897D-01
     13  -0.141233D-04 -0.855641D-01 -0.590825D-02  0.308257D-02 -0.111902D-01
     14   0.413306D-04  0.163151D-04  0.953950D+00  0.168105D+01  0.494393D-01
     15  -0.136636D-04 -0.123709D-04  0.168107D+01 -0.953938D+00  0.546142D-03
     16  -0.135402D-04  0.000000D+00  0.308012D-02  0.589290D-02  0.241180D+00
               391           392           393           394           395 
      1  -0.135554D+03 -0.135472D+03 -0.135472D+03 -0.135464D+03 -0.135463D+03
      2   0.000000D+00  0.000000D+00  0.359773D-05  0.000000D+00  0.000000D+00
      3  -0.115550D-03 -0.708414D-01 -0.556172D-01 -0.346860D-01 -0.354439D-02
      4   0.104104D-01 -0.556070D-01  0.708377D-01 -0.354390D-02  0.347013D-01
      5   0.127666D-05  0.259438D-05 -0.132992D-04  0.261014D-05 -0.331782D-05
      6   0.346006D-03  0.266790D+00  0.209456D+00  0.109921D+00  0.112333D-01
      7  -0.311897D-01  0.209420D+00 -0.266780D+00  0.112306D-01 -0.109980D+00
      8   0.000000D+00 -0.454736D-05 -0.502577D-05  0.000000D+00  0.000000D+00
      9  -0.573085D-01 -0.269185D+00  0.342927D+00  0.115615D-01 -0.113102D+00
     10  -0.639070D-03  0.342890D+00  0.269214D+00 -0.113177D+00 -0.115573D-01
     11  -0.161589D-05  0.562254D-05 -0.253313D-04  0.362270D-05  0.273395D-05
     12   0.241182D+00 -0.271145D-01  0.321319D-01 -0.249234D-01  0.180734D+00
     13  -0.241182D+00  0.271142D-01 -0.321331D-01  0.249249D-01 -0.180735D+00
     14  -0.553073D-03  0.246141D+00  0.193265D+00 -0.149559D+00 -0.152718D-01
     15   0.494259D-01  0.193244D+00 -0.246196D+00 -0.152832D-01  0.149507D+00
     16  -0.111909D-01 -0.321715D-01 -0.271355D-01 -0.180710D+00 -0.249270D-01
               396           397           398           399           400 
      1  -0.135409D+03 -0.135409D+03 -0.135313D+03 -0.135313D+03 -0.135245D+03
      2   0.427057D-05  0.436938D-05 -0.112094D-04 -0.508751D-05 -0.387112D+00
      3   0.102102D+00 -0.358399D+00  0.633733D-01 -0.209403D+00 -0.132767D-05
      4   0.358395D+00  0.102101D+00  0.209409D+00  0.633742D-01  0.000000D+00
      5  -0.168990D-04 -0.167113D-04  0.447588D-04  0.201076D-04  0.155589D+01
      6  -0.372298D+00  0.130684D+01 -0.240247D+00  0.793841D+00  0.496204D-05
      7  -0.130683D+01 -0.372294D+00 -0.793865D+00 -0.240250D+00  0.431087D-05
      8  -0.362202D-05  0.000000D+00 -0.523564D-05  0.533679D-05  0.000000D+00
      9   0.162527D+01  0.463010D+00  0.125017D+01  0.378348D+00 -0.271313D-04
     10  -0.463017D+00  0.162528D+01 -0.378345D+00  0.125016D+01  0.000000D+00
     11  -0.724596D-04 -0.594291D-04  0.125057D-03  0.600528D-04  0.408972D+01
     12   0.346671D-01  0.857897D-02 -0.480759D-01 -0.127110D-01 -0.610204D-01
     13  -0.346610D-01 -0.856406D-02  0.480754D-01  0.127185D-01 -0.610256D-01
     14  -0.535171D+00  0.187856D+01 -0.460654D+00  0.152213D+01  0.102042D-04
     15  -0.187855D+01 -0.535168D+00 -0.152215D+01 -0.460655D+00  0.221515D-04
     16   0.856506D-02 -0.346735D-01 -0.127218D-01  0.480725D-01  0.000000D+00
               401           402           403           404           405 
      1  -0.135106D+03 -0.135106D+03 -0.135085D+03 -0.135008D+03 -0.135008D+03
      2   0.000000D+00  0.000000D+00  0.810058D-01  0.000000D+00  0.000000D+00
      3   0.166630D-02 -0.951284D-04  0.000000D+00  0.333751D-01  0.614343D-01
      4   0.960363D-04  0.166679D-02  0.154253D-05  0.614340D-01 -0.333755D-01
      5   0.000000D+00  0.134229D-05 -0.424668D+00  0.176987D-05  0.000000D+00
      6  -0.383113D-02  0.218016D-03  0.172975D-05 -0.129697D+00 -0.238736D+00
      7  -0.221575D-03 -0.383301D-02 -0.472199D-05 -0.238735D+00  0.129699D+00
      8   0.000000D+00  0.000000D+00  0.000000D+00 -0.113495D-05  0.000000D+00
      9  -0.194942D-02 -0.340436D-01 -0.129533D-04  0.321721D+00 -0.174780D+00
     10   0.340419D-01 -0.195505D-02 -0.219332D-05 -0.174781D+00 -0.321718D+00
     11   0.243897D-05  0.789719D-05 -0.259950D+01  0.241027D-05  0.000000D+00
     12  -0.676144D-01 -0.728593D+00  0.145378D+00 -0.250010D-01  0.124675D-01
     13   0.676130D-01  0.728590D+00  0.145374D+00  0.250015D-01 -0.124648D-01
     14   0.169176D-01 -0.967957D-03 -0.844712D-05  0.876286D-01  0.161298D+00
     15   0.972622D-03  0.169219D-01  0.147138D-04  0.161299D+00 -0.876284D-01
     16  -0.728595D+00  0.676128D-01 -0.236087D-05 -0.124601D-01 -0.250059D-01
               406 
      1  -0.134639D+03
      2   0.286493D-01
      3   0.000000D+00
      4   0.000000D+00
      5  -0.209510D+00
      6   0.000000D+00
      7   0.000000D+00
      8   0.000000D+00
      9  -0.165089D-05
     10  -0.183359D-05
     11  -0.154925D+00
     12  -0.202914D+00
     13  -0.202915D+00
     14  -0.169138D-05
     15   0.000000D+00
     16   0.000000D+00
 Unable to Open any file for archive entry.
 1\1\GINC-HEL02\SP\RwB97XD TD-FC\Gen\C1H3F1\RR\21-Mar-2022\0\\#P TD(Nst
 ates=10000) wB97XD/Gen SCF(maxcycles=100) Int(Grid=ultrafine)\\xGDB7_0
 0001_tier4.com\\0,1\C,0,-0.630149,-0.000001,0.000003\F,0,0.748512,0.00
 0002,-0.000001\H,0,-0.98525,0.899676,0.505416\H,0,-0.985222,-0.887557,
 0.526417\H,0,-0.985245,-0.012128,-1.03184\\Version=EM64L-G16RevC.01\St
 ate=1-A\HF=-139.6049897\RMSD=7.787e-09\PG=C01 [X(C1H3F1)]\\@
 The archive entry for this job was punched.


 I WANT TO KNOW HOW GOD CREATED THE WORLD.  I AM NOT INTERESTED IN
 THIS OR THAT PHENOMENON, IN THE SPECTRUM OF THIS OR THAT ELEMENT.
 I WANT TO KNOW HIS THOUGHTS, THE REST ARE DETAILS.
     -- ALBERT EINSTEIN
 Job cpu time:       0 days  0 hours  3 minutes 11.9 seconds.
 Elapsed time:       0 days  0 hours  0 minutes 24.3 seconds.
 File lengths (MBytes):  RWF=    214 Int=      0 D2E=      0 Chk=     46 Scr=      1
 Normal termination of Gaussian 16 at Mon Mar 21 16:00:59 2022.
