 Entering Gaussian System, Link 0=g16
 Input=000027.com
 Output=000027.log
 Initial command:
 /home/sabyasachi/g16/l1.exe "/scratch/sabyasachi/PBS_7975930.helios/Gau-24647.inp" -scrdir="/scratch/sabyasachi/PBS_7975930.helios/"
 Entering Link 1 = /home/sabyasachi/g16/l1.exe PID=     24648.
  
 Copyright (c) 1988-2019, Gaussian, Inc.  All Rights Reserved.
  
 This is part of the Gaussian(R) 16 program.  It is based on
 the Gaussian(R) 09 system (copyright 2009, Gaussian, Inc.),
 the Gaussian(R) 03 system (copyright 2003, Gaussian, Inc.),
 the Gaussian(R) 98 system (copyright 1998, Gaussian, Inc.),
 the Gaussian(R) 94 system (copyright 1995, Gaussian, Inc.),
 the Gaussian 92(TM) system (copyright 1992, Gaussian, Inc.),
 the Gaussian 90(TM) system (copyright 1990, Gaussian, Inc.),
 the Gaussian 88(TM) system (copyright 1988, Gaussian, Inc.),
 the Gaussian 86(TM) system (copyright 1986, Carnegie Mellon
 University), and the Gaussian 82(TM) system (copyright 1983,
 Carnegie Mellon University). Gaussian is a federally registered
 trademark of Gaussian, Inc.
  
 This software contains proprietary and confidential information,
 including trade secrets, belonging to Gaussian, Inc.
  
 This software is provided under written license and may be
 used, copied, transmitted, or stored only in accord with that
 written license.
  
 The following legend is applicable only to US Government
 contracts under FAR:
  
                    RESTRICTED RIGHTS LEGEND
  
 Use, reproduction and disclosure by the US Government is
 subject to restrictions as set forth in subparagraphs (a)
 and (c) of the Commercial Computer Software - Restricted
 Rights clause in FAR 52.227-19.
  
 Gaussian, Inc.
 340 Quinnipiac St., Bldg. 40, Wallingford CT 06492
  
  
 ---------------------------------------------------------------
 Warning -- This program may not be used in any manner that
 competes with the business of Gaussian, Inc. or will provide
 assistance to any competitor of Gaussian, Inc.  The licensee
 of this program is prohibited from giving any competitor of
 Gaussian, Inc. access to this program.  By using this program,
 the user acknowledges that Gaussian, Inc. is engaged in the
 business of creating and licensing software in the field of
 computational chemistry and represents and warrants to the
 licensee that it is not a competitor of Gaussian, Inc. and that
 it will not use this program in any manner prohibited above.
 ---------------------------------------------------------------
  

 Cite this work as:
 Gaussian 16, Revision C.01,
 M. J. Frisch, G. W. Trucks, H. B. Schlegel, G. E. Scuseria, 
 M. A. Robb, J. R. Cheeseman, G. Scalmani, V. Barone, 
 G. A. Petersson, H. Nakatsuji, X. Li, M. Caricato, A. V. Marenich, 
 J. Bloino, B. G. Janesko, R. Gomperts, B. Mennucci, H. P. Hratchian, 
 J. V. Ortiz, A. F. Izmaylov, J. L. Sonnenberg, D. Williams-Young, 
 F. Ding, F. Lipparini, F. Egidi, J. Goings, B. Peng, A. Petrone, 
 T. Henderson, D. Ranasinghe, V. G. Zakrzewski, J. Gao, N. Rega, 
 G. Zheng, W. Liang, M. Hada, M. Ehara, K. Toyota, R. Fukuda, 
 J. Hasegawa, M. Ishida, T. Nakajima, Y. Honda, O. Kitao, H. Nakai, 
 T. Vreven, K. Throssell, J. A. Montgomery, Jr., J. E. Peralta, 
 F. Ogliaro, M. J. Bearpark, J. J. Heyd, E. N. Brothers, K. N. Kudin, 
 V. N. Staroverov, T. A. Keith, R. Kobayashi, J. Normand, 
 K. Raghavachari, A. P. Rendell, J. C. Burant, S. S. Iyengar, 
 J. Tomasi, M. Cossi, J. M. Millam, M. Klene, C. Adamo, R. Cammi, 
 J. W. Ochterski, R. L. Martin, K. Morokuma, O. Farkas, 
 J. B. Foresman, and D. J. Fox, Gaussian, Inc., Wallingford CT, 2019.
 
 ******************************************
 Gaussian 16:  EM64L-G16RevC.01  3-Jul-2019
                21-Mar-2022 
 ******************************************
 %mem=64gb
 %nproc=8
 Will use up to    8 processors via shared memory.
 --------------------------------------------------------------------
 #P TD(Nstates=10000) blyp/Gen SCF(maxcycles=100) Int(Grid=ultrafine)
 --------------------------------------------------------------------
 1/38=1,172=1/1;
 2/12=2,17=6,18=5,40=1/2;
 3/5=7,11=9,25=1,30=1,74=402,75=-5/1,2,3,8;
 4//1;
 5/5=2,7=100,38=5/2;
 8/6=1,10=1,108=10000/1;
 9/41=10000,42=1,70=2/14;
 6/7=2,8=2,9=2,10=2/1;
 99/5=1,9=1/99;
 Leave Link    1 at Mon Mar 21 20:03:19 2022, MaxMem=  8589934592 cpu:               0.4 elap:               0.1
 (Enter /home/sabyasachi/g16/l101.exe)
 ---------------------
 xGDB7_00001_tier4.com
 ---------------------
 Symbolic Z-matrix:
 Charge =  0 Multiplicity = 1
 9                    -1.13972  -0.26973   0. 
 6                     0.        0.43028   0. 
 6                     1.18085  -0.14876   0. 
 1                    -0.18045   1.49833   0. 
 1                     1.28363  -1.22517   0. 
 1                     2.06922   0.46524   0. 
 
 ITRead=  0  0  0  0  0  0
 MicOpt= -1 -1 -1 -1 -1 -1
 NAtoms=      6 NQM=        6 NQMF=       0 NMMI=      0 NMMIF=      0
                NMic=       0 NMicF=      0.
                    Isotopes and Nuclear Properties:
 (Nuclear quadrupole moments (NQMom) in fm**2, nuclear magnetic moments (NMagM)
  in nuclear magnetons)

  Atom         1           2           3           4           5           6
 IAtWgt=          19          12          12           1           1           1
 AtmWgt=  18.9984033  12.0000000  12.0000000   1.0078250   1.0078250   1.0078250
 NucSpn=           1           0           0           1           1           1
 AtZEff=  -0.0000000  -0.0000000  -0.0000000  -0.0000000  -0.0000000  -0.0000000
 NQMom=    0.0000000   0.0000000   0.0000000   0.0000000   0.0000000   0.0000000
 NMagM=    2.6288670   0.0000000   0.0000000   2.7928460   2.7928460   2.7928460
 AtZNuc=   9.0000000   6.0000000   6.0000000   1.0000000   1.0000000   1.0000000
 Leave Link  101 at Mon Mar 21 20:03:20 2022, MaxMem=  8589934592 cpu:               0.6 elap:               0.1
 (Enter /home/sabyasachi/g16/l202.exe)
                          Input orientation:                          
 ---------------------------------------------------------------------
 Center     Atomic      Atomic             Coordinates (Angstroms)
 Number     Number       Type             X           Y           Z
 ---------------------------------------------------------------------
      1          9           0       -1.139724   -0.269725    0.000000
      2          6           0        0.000000    0.430281    0.000000
      3          6           0        1.180852   -0.148760    0.000000
      4          1           0       -0.180450    1.498331    0.000000
      5          1           0        1.283634   -1.225170    0.000000
      6          1           0        2.069222    0.465238    0.000000
 ---------------------------------------------------------------------
                    Distance matrix (angstroms):
                    1          2          3          4          5
     1  F    0.000000
     2  C    1.337527   0.000000
     3  C    2.323727   1.315181   0.000000
     4  H    2.011524   1.083187   2.136832   0.000000
     5  H    2.604907   2.094811   1.081306   3.092087   0.000000
     6  H    3.292037   2.069517   1.079905   2.475541   1.864035
                    6
     6  H    0.000000
 Stoichiometry    C2H3F
 Framework group  CS[SG(C2H3F)]
 Deg. of freedom     9
 Full point group                 CS      NOp   2
 Largest Abelian subgroup         CS      NOp   2
 Largest concise Abelian subgroup C1      NOp   1
                         Standard orientation:                         
 ---------------------------------------------------------------------
 Center     Atomic      Atomic             Coordinates (Angstroms)
 Number     Number       Type             X           Y           Z
 ---------------------------------------------------------------------
      1          9           0       -1.139724   -0.269725    0.000000
      2          6           0        0.000000    0.430281    0.000000
      3          6           0        1.180852   -0.148760    0.000000
      4          1           0       -0.180450    1.498331    0.000000
      5          1           0        1.283634   -1.225170    0.000000
      6          1           0        2.069222    0.465238    0.000000
 ---------------------------------------------------------------------
 Rotational constants (GHZ):          66.0732883          10.7041900           9.2118294
 Leave Link  202 at Mon Mar 21 20:03:20 2022, MaxMem=  8589934592 cpu:               0.1 elap:               0.0
 (Enter /home/sabyasachi/g16/l301.exe)
 General basis read from cards:  (5D, 7F)
 Centers:       4      5      6
 S 3 1.00
     Exponent=  1.3010701000D+01 Coefficients=  1.9682158000D-02
     Exponent=  1.9622572000D+00 Coefficients=  1.3796524000D-01
     Exponent=  4.4453796000D-01 Coefficients=  4.7831935000D-01
 S 1 1.00
     Exponent=  1.2194962000D-01 Coefficients=  1.0000000000D+00
 P 1 1.00
     Exponent=  8.0000000000D-01 Coefficients=  1.0000000000D+00
 P 1 1.00
     Exponent=  1.1704099050D-01 Coefficients=  1.0000000000D+00
 ****
 Centers:       2      3
 S 5 1.00
     Exponent=  1.2384016938D+03 Coefficients=  5.4568832082D-03
     Exponent=  1.8629004992D+02 Coefficients=  4.0638409211D-02
     Exponent=  4.2251176346D+01 Coefficients=  1.8025593888D-01
     Exponent=  1.1676557932D+01 Coefficients=  4.6315121755D-01
     Exponent=  3.5930506482D+00 Coefficients=  4.4087173314D-01
 S 1 1.00
     Exponent=  4.0245147363D-01 Coefficients=  1.0000000000D+00
 S 1 1.00
     Exponent=  1.3090182668D-01 Coefficients=  1.0000000000D+00
 S 1 1.00
     Exponent=  6.7053540256D-02 Coefficients=  1.0000000000D+00
 P 3 1.00
     Exponent=  9.4680970621D+00 Coefficients=  3.8387871728D-02
     Exponent=  2.0103545142D+00 Coefficients=  2.1117025112D-01
     Exponent=  5.4771004707D-01 Coefficients=  5.1328172114D-01
 P 1 1.00
     Exponent=  1.5268613795D-01 Coefficients=  1.0000000000D+00
 D 1 1.00
     Exponent=  8.0000000000D-01 Coefficients=  1.0000000000D+00
 D 1 1.00
     Exponent=  1.1713185140D-01 Coefficients=  1.0000000000D+00
 ****
 Centers:       1
 S 5 1.00
     Exponent=  2.8948325990D+03 Coefficients= -5.3408255515D-03
     Exponent=  4.3541939120D+02 Coefficients= -3.9904258866D-02
     Exponent=  9.8843328866D+01 Coefficients= -1.7912768038D-01
     Exponent=  2.7485198001D+01 Coefficients= -4.6758090825D-01
     Exponent=  8.5405498171D+00 Coefficients= -4.4653131020D-01
 S 1 1.00
     Exponent=  1.0654578038D+00 Coefficients=  1.0000000000D+00
 S 1 1.00
     Exponent=  3.3247346748D-01 Coefficients=  1.0000000000D+00
 S 1 1.00
     Exponent=  9.8097752264D-02 Coefficients=  1.0000000000D+00
 P 3 1.00
     Exponent=  2.2696633924D+01 Coefficients= -4.5212874436D-02
     Exponent=  4.9872339257D+00 Coefficients= -2.3754317067D-01
     Exponent=  1.3491613954D+00 Coefficients= -5.1287353587D-01
 P 1 1.00
     Exponent=  3.4829881977D-01 Coefficients=  1.0000000000D+00
 P 1 1.00
     Exponent=  8.3372148304D-02 Coefficients=  1.0000000000D+00
 D 1 1.00
     Exponent=  1.4000000000D+00 Coefficients=  1.0000000000D+00
 D 1 1.00
     Exponent=  2.2301361948D-01 Coefficients=  1.0000000000D+00
 ****
 Ernie: Thresh=  0.10000D-02 Tol=  0.10000D-05 Strict=F.
 There are    68 symmetry adapted cartesian basis functions of A'  symmetry.
 There are    25 symmetry adapted cartesian basis functions of A"  symmetry.
 There are    62 symmetry adapted basis functions of A'  symmetry.
 There are    25 symmetry adapted basis functions of A"  symmetry.
    87 basis functions,   129 primitive gaussians,    93 cartesian basis functions
    12 alpha electrons       12 beta electrons
       nuclear repulsion energy        67.8016714376 Hartrees.
 IExCor=  402 DFT=T Ex=B Corr=LYP ExCW=0 ScaHFX=  0.000000
 ScaDFX=  1.000000  1.000000  1.000000  1.000000 ScalE2=  1.000000  1.000000
 IRadAn=      5 IRanWt=     -1 IRanGd=            0 ICorTp=0 IEmpDi=  4
 NAtoms=    6 NActive=    6 NUniq=    6 SFac= 1.00D+00 NAtFMM=   60 NAOKFM=F Big=F
 Integral buffers will be    131072 words long.
 Regular integral format.
 Two-electron integral symmetry is turned on.
 Leave Link  301 at Mon Mar 21 20:03:20 2022, MaxMem=  8589934592 cpu:               0.5 elap:               0.1
 (Enter /home/sabyasachi/g16/l302.exe)
 NPDir=0 NMtPBC=     1 NCelOv=     1 NCel=       1 NClECP=     1 NCelD=      1
         NCelK=      1 NCelE2=     1 NClLst=     1 CellRange=     0.0.
 One-electron integrals computed using PRISM.
 One-electron integral symmetry used in STVInt
 NBasis=    87 RedAO= T EigKep=  1.02D-04  NBF=    62    25
 NBsUse=    87 1.00D-06 EigRej= -1.00D+00 NBFU=    62    25
 Precomputing XC quadrature grid using
 IXCGrd= 4 IRadAn=           5 IRanWt=          -1 IRanGd=           0 AccXCQ= 0.00D+00.
 Generated NRdTot=       0 NPtTot=           0 NUsed=           0 NTot=          32
 NSgBfM=    93    93    93    93    93 MxSgAt=     6 MxSgA2=     6.
 Leave Link  302 at Mon Mar 21 20:03:20 2022, MaxMem=  8589934592 cpu:               1.0 elap:               0.1
 (Enter /home/sabyasachi/g16/l303.exe)
 DipDrv:  MaxL=1.
 Leave Link  303 at Mon Mar 21 20:03:20 2022, MaxMem=  8589934592 cpu:               0.2 elap:               0.0
 (Enter /home/sabyasachi/g16/l308.exe)
 Leave Link  308 at Mon Mar 21 20:03:20 2022, MaxMem=  8589934592 cpu:               0.2 elap:               0.0
 (Enter /home/sabyasachi/g16/l401.exe)
 ExpMin= 6.71D-02 ExpMax= 2.89D+03 ExpMxC= 4.35D+02 IAcc=3 IRadAn=         5 AccDes= 0.00D+00
 Harris functional with IExCor=  402 and IRadAn=       5 diagonalized for initial guess.
 HarFok:  IExCor=  402 AccDes= 0.00D+00 IRadAn=         5 IDoV= 1 UseB2=F ITyADJ=14
 ICtDFT=  3500011 ScaDFX=  1.000000  1.000000  1.000000  1.000000
 FoFCou: FMM=F IPFlag=           0 FMFlag=      100000 FMFlg1=           0
         NFxFlg=           0 DoJE=T BraDBF=F KetDBF=T FulRan=T
         wScrn=  0.000000 ICntrl=       500 IOpCl=  0 I1Cent=   200000004 NGrid=           0
         NMat0=    1 NMatS0=      1 NMatT0=    0 NMatD0=    1 NMtDS0=    0 NMtDT0=    0
 Petite list used in FoFCou.
 Harris En= -177.714119604720    
 JPrj=0 DoOrth=F DoCkMO=F.
 Initial guess orbital symmetries:
       Occupied  (A') (A') (A') (A') (A') (A') (A') (A') (A") (A')
                 (A') (A")
       Virtual   (A") (A') (A') (A') (A') (A') (A") (A') (A') (A")
                 (A') (A") (A') (A') (A") (A') (A') (A') (A") (A')
                 (A') (A') (A") (A') (A') (A') (A") (A') (A') (A")
                 (A') (A') (A") (A') (A") (A') (A") (A') (A") (A')
                 (A') (A') (A') (A') (A') (A') (A') (A") (A") (A")
                 (A') (A") (A') (A') (A') (A') (A") (A') (A') (A")
                 (A') (A') (A") (A') (A') (A") (A') (A') (A') (A')
                 (A") (A') (A") (A') (A')
 The electronic state of the initial guess is 1-A'.
 Leave Link  401 at Mon Mar 21 20:03:20 2022, MaxMem=  8589934592 cpu:               1.8 elap:               0.2
 (Enter /home/sabyasachi/g16/l502.exe)
 Keep J ints in memory in symmetry-blocked form, NReq=14685034.
 FoFCou: FMM=F IPFlag=           0 FMFlag=           0 FMFlg1=           0
         NFxFlg=           0 DoJE=F BraDBF=F KetDBF=F FulRan=T
         wScrn=  0.000000 ICntrl=       600 IOpCl=  0 I1Cent=           0 NGrid=           0
         NMat0=    1 NMatS0=   3828 NMatT0=    0 NMatD0=    1 NMtDS0=    0 NMtDT0=    0
 Petite list used in FoFCou.
 Closed shell SCF:
 Using DIIS extrapolation, IDIIS=  1040.
 NGot=  8589934592 LenX=  8586108576 LenY=  8586099486
 Requested convergence on RMS density matrix=1.00D-08 within 100 cycles.
 Requested convergence on MAX density matrix=1.00D-06.
 Requested convergence on             energy=1.00D-06.
 No special actions if energy rises.
 Integral accuracy reduced to 1.0D-05 until final iterations.

 Cycle   1  Pass 0  IDiag  1:
 E= -177.581199384619    
 DIIS: error= 3.36D-02 at cycle   1 NSaved=   1.
 NSaved= 1 IEnMin= 1 EnMin= -177.581199384619     IErMin= 1 ErrMin= 3.36D-02
 ErrMax= 3.36D-02  0.00D+00 EMaxC= 1.00D-01 BMatC= 7.04D-02 BMatP= 7.04D-02
 IDIUse=3 WtCom= 6.64D-01 WtEn= 3.36D-01
 Coeff-Com:  0.100D+01
 Coeff-En:   0.100D+01
 Coeff:      0.100D+01
 Gap=     0.174 Goal=   None    Shift=    0.000
 GapD=    0.174 DampG=1.000 DampE=0.500 DampFc=0.5000 IDamp=-1.
 Damping current iteration by 5.00D-01
 RMSDP=8.73D-03 MaxDP=2.11D-01              OVMax= 3.48D-01

 Cycle   2  Pass 0  IDiag  1:
 E= -177.593568147877     Delta-E=       -0.012368763258 Rises=F Damp=T
 DIIS: error= 1.23D-02 at cycle   2 NSaved=   2.
 NSaved= 2 IEnMin= 2 EnMin= -177.593568147877     IErMin= 2 ErrMin= 1.23D-02
 ErrMax= 1.23D-02  0.00D+00 EMaxC= 1.00D-01 BMatC= 1.30D-02 BMatP= 7.04D-02
 IDIUse=3 WtCom= 8.77D-01 WtEn= 1.23D-01
 Coeff-Com:  0.264D+00 0.736D+00
 Coeff-En:   0.430D+00 0.570D+00
 Coeff:      0.285D+00 0.715D+00
 Gap=     0.182 Goal=   None    Shift=    0.000
 RMSDP=2.74D-03 MaxDP=6.79D-02 DE=-1.24D-02 OVMax= 3.05D-01

 Cycle   3  Pass 0  IDiag  1:
 E= -177.645086259973     Delta-E=       -0.051518112097 Rises=F Damp=F
 DIIS: error= 9.90D-03 at cycle   3 NSaved=   3.
 NSaved= 3 IEnMin= 3 EnMin= -177.645086259973     IErMin= 3 ErrMin= 9.90D-03
 ErrMax= 9.90D-03  0.00D+00 EMaxC= 1.00D-01 BMatC= 1.16D-02 BMatP= 1.30D-02
 IDIUse=3 WtCom= 9.01D-01 WtEn= 9.90D-02
 Coeff-Com:  0.126D+00 0.490D+00 0.384D+00
 Coeff-En:   0.000D+00 0.000D+00 0.100D+01
 Coeff:      0.113D+00 0.442D+00 0.445D+00
 Gap=     0.207 Goal=   None    Shift=    0.000
 RMSDP=1.60D-03 MaxDP=4.39D-02 DE=-5.15D-02 OVMax= 8.52D-02

 Cycle   4  Pass 0  IDiag  1:
 E= -177.656528945001     Delta-E=       -0.011442685028 Rises=F Damp=F
 DIIS: error= 2.60D-03 at cycle   4 NSaved=   4.
 NSaved= 4 IEnMin= 4 EnMin= -177.656528945001     IErMin= 4 ErrMin= 2.60D-03
 ErrMax= 2.60D-03  0.00D+00 EMaxC= 1.00D-01 BMatC= 1.29D-03 BMatP= 1.16D-02
 IDIUse=3 WtCom= 9.74D-01 WtEn= 2.60D-02
 Coeff-Com:  0.328D-01 0.115D+00 0.264D+00 0.588D+00
 Coeff-En:   0.000D+00 0.000D+00 0.109D+00 0.891D+00
 Coeff:      0.320D-01 0.112D+00 0.260D+00 0.596D+00
 Gap=     0.208 Goal=   None    Shift=    0.000
 RMSDP=4.05D-04 MaxDP=8.29D-03 DE=-1.14D-02 OVMax= 1.72D-02

 Cycle   5  Pass 0  IDiag  1:
 E= -177.657686941348     Delta-E=       -0.001157996347 Rises=F Damp=F
 DIIS: error= 6.50D-04 at cycle   5 NSaved=   5.
 NSaved= 5 IEnMin= 5 EnMin= -177.657686941348     IErMin= 5 ErrMin= 6.50D-04
 ErrMax= 6.50D-04  0.00D+00 EMaxC= 1.00D-01 BMatC= 4.77D-05 BMatP= 1.29D-03
 IDIUse=3 WtCom= 9.94D-01 WtEn= 6.50D-03
 Coeff-Com:  0.130D-01 0.395D-01 0.128D+00 0.339D+00 0.481D+00
 Coeff-En:   0.000D+00 0.000D+00 0.000D+00 0.000D+00 0.100D+01
 Coeff:      0.129D-01 0.393D-01 0.127D+00 0.336D+00 0.484D+00
 Gap=     0.208 Goal=   None    Shift=    0.000
 RMSDP=7.97D-05 MaxDP=1.49D-03 DE=-1.16D-03 OVMax= 2.25D-03

 Cycle   6  Pass 0  IDiag  1:
 E= -177.657716545533     Delta-E=       -0.000029604184 Rises=F Damp=F
 DIIS: error= 2.61D-04 at cycle   6 NSaved=   6.
 NSaved= 6 IEnMin= 6 EnMin= -177.657716545533     IErMin= 6 ErrMin= 2.61D-04
 ErrMax= 2.61D-04  0.00D+00 EMaxC= 1.00D-01 BMatC= 7.92D-06 BMatP= 4.77D-05
 IDIUse=3 WtCom= 9.97D-01 WtEn= 2.61D-03
 Coeff-Com:  0.205D-02 0.281D-02 0.318D-01 0.100D+00 0.310D+00 0.553D+00
 Coeff-En:   0.000D+00 0.000D+00 0.000D+00 0.000D+00 0.147D+00 0.853D+00
 Coeff:      0.204D-02 0.280D-02 0.317D-01 0.100D+00 0.309D+00 0.554D+00
 Gap=     0.208 Goal=   None    Shift=    0.000
 RMSDP=2.63D-05 MaxDP=5.23D-04 DE=-2.96D-05 OVMax= 6.37D-04

 Cycle   7  Pass 0  IDiag  1:
 E= -177.657722135148     Delta-E=       -0.000005589615 Rises=F Damp=F
 DIIS: error= 1.99D-05 at cycle   7 NSaved=   7.
 NSaved= 7 IEnMin= 7 EnMin= -177.657722135148     IErMin= 7 ErrMin= 1.99D-05
 ErrMax= 1.99D-05  0.00D+00 EMaxC= 1.00D-01 BMatC= 6.23D-08 BMatP= 7.92D-06
 IDIUse=1 WtCom= 1.00D+00 WtEn= 0.00D+00
 Coeff-Com:  0.471D-03-0.318D-03 0.709D-02 0.232D-01 0.922D-01 0.181D+00
 Coeff-Com:  0.696D+00
 Coeff:      0.471D-03-0.318D-03 0.709D-02 0.232D-01 0.922D-01 0.181D+00
 Coeff:      0.696D+00
 Gap=     0.208 Goal=   None    Shift=    0.000
 RMSDP=5.93D-06 MaxDP=7.97D-05 DE=-5.59D-06 OVMax= 9.55D-05

 Initial convergence to 1.0D-05 achieved.  Increase integral accuracy.
 Cycle   8  Pass 1  IDiag  1:
 E= -177.657722360511     Delta-E=       -0.000000225363 Rises=F Damp=F
 DIIS: error= 3.76D-06 at cycle   1 NSaved=   1.
 NSaved= 1 IEnMin= 1 EnMin= -177.657722360511     IErMin= 1 ErrMin= 3.76D-06
 ErrMax= 3.76D-06  0.00D+00 EMaxC= 1.00D-01 BMatC= 2.00D-09 BMatP= 2.00D-09
 IDIUse=1 WtCom= 1.00D+00 WtEn= 0.00D+00
 Coeff-Com:  0.100D+01
 Coeff:      0.100D+01
 Gap=     0.208 Goal=   None    Shift=    0.000
 RMSDP=5.93D-06 MaxDP=7.97D-05 DE=-2.25D-07 OVMax= 5.85D-05

 Cycle   9  Pass 1  IDiag  1:
 E= -177.657722357968     Delta-E=        0.000000002544 Rises=F Damp=F
 DIIS: error= 7.21D-06 at cycle   2 NSaved=   2.
 NSaved= 2 IEnMin= 1 EnMin= -177.657722360511     IErMin= 1 ErrMin= 3.76D-06
 ErrMax= 7.21D-06  0.00D+00 EMaxC= 1.00D-01 BMatC= 4.69D-09 BMatP= 2.00D-09
 IDIUse=1 WtCom= 1.00D+00 WtEn= 0.00D+00
 Coeff-Com:  0.620D+00 0.380D+00
 Coeff:      0.620D+00 0.380D+00
 Gap=     0.208 Goal=   None    Shift=    0.000
 RMSDP=9.66D-07 MaxDP=2.90D-05 DE= 2.54D-09 OVMax= 5.53D-05

 Cycle  10  Pass 1  IDiag  1:
 E= -177.657722362388     Delta-E=       -0.000000004421 Rises=F Damp=F
 DIIS: error= 2.39D-06 at cycle   3 NSaved=   3.
 NSaved= 3 IEnMin= 3 EnMin= -177.657722362388     IErMin= 3 ErrMin= 2.39D-06
 ErrMax= 2.39D-06  0.00D+00 EMaxC= 1.00D-01 BMatC= 6.61D-10 BMatP= 2.00D-09
 IDIUse=1 WtCom= 1.00D+00 WtEn= 0.00D+00
 Coeff-Com:  0.254D+00 0.267D+00 0.479D+00
 Coeff:      0.254D+00 0.267D+00 0.479D+00
 Gap=     0.208 Goal=   None    Shift=    0.000
 RMSDP=3.50D-07 MaxDP=9.30D-06 DE=-4.42D-09 OVMax= 1.82D-05

 Cycle  11  Pass 1  IDiag  1:
 E= -177.657722363058     Delta-E=       -0.000000000670 Rises=F Damp=F
 DIIS: error= 5.92D-07 at cycle   4 NSaved=   4.
 NSaved= 4 IEnMin= 4 EnMin= -177.657722363058     IErMin= 4 ErrMin= 5.92D-07
 ErrMax= 5.92D-07  0.00D+00 EMaxC= 1.00D-01 BMatC= 3.47D-11 BMatP= 6.61D-10
 IDIUse=1 WtCom= 1.00D+00 WtEn= 0.00D+00
 Coeff-Com:  0.551D-01 0.874D-01 0.250D+00 0.607D+00
 Coeff:      0.551D-01 0.874D-01 0.250D+00 0.607D+00
 Gap=     0.208 Goal=   None    Shift=    0.000
 RMSDP=8.49D-08 MaxDP=1.76D-06 DE=-6.70D-10 OVMax= 2.77D-06

 Cycle  12  Pass 1  IDiag  1:
 E= -177.657722363092     Delta-E=       -0.000000000034 Rises=F Damp=F
 DIIS: error= 1.06D-07 at cycle   5 NSaved=   5.
 NSaved= 5 IEnMin= 5 EnMin= -177.657722363092     IErMin= 5 ErrMin= 1.06D-07
 ErrMax= 1.06D-07  0.00D+00 EMaxC= 1.00D-01 BMatC= 1.72D-12 BMatP= 3.47D-11
 IDIUse=1 WtCom= 1.00D+00 WtEn= 0.00D+00
 Coeff-Com:  0.162D-02 0.154D-01 0.745D-01 0.265D+00 0.644D+00
 Coeff:      0.162D-02 0.154D-01 0.745D-01 0.265D+00 0.644D+00
 Gap=     0.208 Goal=   None    Shift=    0.000
 RMSDP=2.32D-08 MaxDP=3.58D-07 DE=-3.36D-11 OVMax= 4.84D-07

 Cycle  13  Pass 1  IDiag  1:
 E= -177.657722363094     Delta-E=       -0.000000000002 Rises=F Damp=F
 DIIS: error= 1.86D-08 at cycle   6 NSaved=   6.
 NSaved= 6 IEnMin= 6 EnMin= -177.657722363094     IErMin= 6 ErrMin= 1.86D-08
 ErrMax= 1.86D-08  0.00D+00 EMaxC= 1.00D-01 BMatC= 7.46D-14 BMatP= 1.72D-12
 IDIUse=1 WtCom= 1.00D+00 WtEn= 0.00D+00
 Coeff-Com: -0.249D-03 0.543D-02 0.284D-01 0.106D+00 0.296D+00 0.564D+00
 Coeff:     -0.249D-03 0.543D-02 0.284D-01 0.106D+00 0.296D+00 0.564D+00
 Gap=     0.208 Goal=   None    Shift=    0.000
 RMSDP=4.15D-09 MaxDP=8.88D-08 DE=-2.33D-12 OVMax= 1.13D-07

 SCF Done:  E(RB-LYP) =  -177.657722363     A.U. after   13 cycles
            NFock= 13  Conv=0.42D-08     -V/T= 2.0084
 KE= 1.761858752561D+02 PE=-5.533713983258D+02 EE= 1.317261292689D+02
 Leave Link  502 at Mon Mar 21 20:03:21 2022, MaxMem=  8589934592 cpu:               9.1 elap:               1.2
 (Enter /home/sabyasachi/g16/l801.exe)
 DoSCS=F DFT=T ScalE2(SS,OS)=  1.000000  1.000000
 ExpMin= 6.71D-02 ExpMax= 2.89D+03 ExpMxC= 4.35D+02 IAcc=3 IRadAn=         5 AccDes= 0.00D+00
 HarFok:  IExCor=  205 AccDes= 0.00D+00 IRadAn=         5 IDoV=-2 UseB2=F ITyADJ=14
 ICtDFT= 12500011 ScaDFX=  1.000000  1.000000  1.000000  1.000000
 Largest valence mixing into a core orbital is  6.67D-05
 Largest core mixing into a valence orbital is  1.61D-05
 Range of M.O.s used for correlation:     4    87
 NBasis=    87 NAE=    12 NBE=    12 NFC=     3 NFV=     0
 NROrb=     84 NOA=     9 NOB=     9 NVA=    75 NVB=    75

 **** Warning!!: The largest alpha MO coefficient is  0.38242194D+02

 Leave Link  801 at Mon Mar 21 20:03:21 2022, MaxMem=  8589934592 cpu:               0.5 elap:               0.1
 (Enter /home/sabyasachi/g16/l914.exe)
 RHF ground state
 Keep J ints in memory in symmetry-blocked form, NReq=499028166.
 FoFCou: FMM=F IPFlag=           0 FMFlag=           0 FMFlg1=           0
         NFxFlg=           0 DoJE=F BraDBF=F KetDBF=F FulRan=T
         wScrn=  0.000000 ICntrl=       600 IOpCl=  0 I1Cent=           0 NGrid=           0
         NMat0=    1 NMatS0=   3828 NMatT0=    0 NMatD0=    1 NMtDS0=    0 NMtDT0=    0
 Petite list used in FoFCou.
 MDV=  8589934592 DFT=T DoStab=F Mixed=F DoRPA=T DoScal=T NonHer=F
 Making orbital integer symmetry assigments:
 Orbital symmetries:
       Occupied  (A') (A') (A') (A') (A') (A') (A') (A') (A") (A')
                 (A') (A")
       Virtual   (A") (A') (A') (A') (A') (A') (A") (A') (A') (A")
                 (A') (A") (A') (A') (A") (A') (A') (A') (A") (A')
                 (A') (A") (A') (A') (A') (A") (A') (A') (A') (A")
                 (A') (A') (A") (A') (A") (A') (A") (A') (A") (A')
                 (A') (A') (A') (A') (A') (A') (A') (A") (A") (A")
                 (A') (A") (A') (A') (A') (A') (A") (A') (A') (A")
                 (A') (A') (A") (A') (A') (A") (A') (A') (A') (A')
                 (A") (A') (A") (A') (A')
   675 initial guesses have been made.
 Convergence on wavefunction:    0.001000000000000
 Davidson Disk Diagonalization:  ConvIn= 1.00D-03 SkipCon=T Conv= 1.00D-03.
 Max sub-space:  2700 roots to seek:  1350 dimension of matrix:         1350
 *** WARNING: Number of orthogonal guesses is          675
 Iteration     1 Dimension   675 NMult     0 NNew    675
 CISAX will form   675 AO SS matrices at one time.
 NMat=   675 NSing=   675 JSym2X=-1.
 New state      1 was old state      2
 New state      2 was old state      3
 New state      3 was old state      1
 New state      7 was old state      8
 New state      8 was old state      7
 New state     14 was old state     16
 New state     16 was old state     17
 New state     17 was old state     18
 New state     18 was old state     14
 New state     19 was old state     21
 New state     21 was old state     19
 New state     25 was old state     26
 New state     26 was old state     25
 New state     28 was old state     29
 New state     29 was old state     30
 New state     30 was old state     31
 New state     31 was old state     33
 New state     33 was old state     35
 New state     34 was old state     38
 New state     35 was old state     37
 New state     36 was old state     34
 New state     37 was old state     36
 New state     38 was old state     39
 New state     39 was old state     40
 New state     40 was old state     28
 New state     42 was old state     43
 New state     43 was old state     42
 New state     44 was old state     45
 New state     45 was old state     44
 New state     47 was old state     50
 New state     48 was old state     47
 New state     49 was old state     52
 New state     50 was old state     53
 New state     51 was old state     54
 New state     52 was old state     48
 New state     53 was old state     51
 New state     54 was old state     57
 New state     56 was old state     49
 New state     57 was old state     58
 New state     58 was old state     59
 New state     59 was old state     56
 New state     60 was old state     61
 New state     61 was old state     60
 New state     63 was old state     64
 New state     64 was old state     63
 New state     65 was old state     69
 New state     66 was old state     68
 New state     67 was old state     65
 New state     68 was old state     66
 New state     69 was old state     71
 New state     70 was old state     67
 New state     71 was old state     72
 New state     72 was old state     70
 New state     73 was old state     74
 New state     74 was old state     75
 New state     75 was old state     76
 New state     76 was old state     77
 New state     77 was old state     78
 New state     78 was old state     79
 New state     79 was old state     85
 New state     82 was old state     83
 New state     83 was old state     82
 New state     84 was old state     86
 New state     85 was old state     84
 New state     86 was old state     87
 New state     87 was old state     92
 New state     89 was old state     91
 New state     91 was old state     94
 New state     92 was old state     95
 New state     93 was old state     96
 New state     94 was old state     93
 New state     95 was old state    100
 New state     96 was old state     98
 New state     98 was old state    103
 New state     99 was old state    101
 New state    100 was old state    105
 New state    101 was old state     89
 New state    103 was old state     99
 New state    104 was old state    109
 New state    105 was old state    106
 New state    106 was old state    108
 New state    107 was old state    104
 New state    108 was old state    110
 New state    109 was old state    111
 New state    110 was old state    112
 New state    111 was old state    113
 New state    112 was old state    114
 New state    113 was old state    107
 New state    114 was old state    115
 New state    115 was old state    122
 New state    118 was old state    119
 New state    119 was old state    120
 New state    120 was old state    118
 New state    121 was old state    124
 New state    122 was old state    121
 New state    124 was old state    126
 New state    125 was old state    127
 New state    126 was old state    125
 New state    127 was old state    128
 New state    128 was old state    129
 New state    129 was old state    130
 New state    130 was old state    132
 New state    131 was old state    133
 New state    132 was old state    131
 New state    133 was old state    134
 New state    134 was old state    136
 New state    136 was old state    139
 New state    137 was old state    138
 New state    138 was old state    142
 New state    139 was old state    141
 New state    141 was old state    144
 New state    142 was old state    143
 New state    143 was old state    147
 New state    144 was old state    137
 New state    145 was old state    148
 New state    147 was old state    153
 New state    148 was old state    149
 New state    149 was old state    152
 New state    151 was old state    157
 New state    152 was old state    151
 New state    153 was old state    159
 New state    154 was old state    167
 New state    155 was old state    154
 New state    157 was old state    160
 New state    158 was old state    161
 New state    159 was old state    163
 New state    160 was old state    158
 New state    161 was old state    162
 New state    162 was old state    164
 New state    163 was old state    166
 New state    164 was old state    165
 New state    165 was old state    168
 New state    166 was old state    172
 No map to state    167
 New state    168 was old state    169
 New state    169 was old state    170
 New state    170 was old state    182
 New state    172 was old state    177
 New state    174 was old state    175
 New state    175 was old state    174
 New state    176 was old state    178
 New state    177 was old state    179
 New state    178 was old state    181
 New state    179 was old state    183
 New state    180 was old state    176
 New state    181 was old state    180
 New state    182 was old state    186
 New state    183 was old state    184
 New state    184 was old state    188
 New state    185 was old state    190
 New state    186 was old state    187
 New state    187 was old state    189
 New state    188 was old state    185
 New state    189 was old state    191
 New state    190 was old state    201
 New state    191 was old state    192
 New state    192 was old state    195
 New state    193 was old state    194
 New state    194 was old state    199
 New state    195 was old state    193
 New state    196 was old state    197
 New state    197 was old state    198
 New state    198 was old state    196
 New state    199 was old state    200
 New state    200 was old state    202
 New state    201 was old state    204
 New state    202 was old state    203
 New state    203 was old state    205
 New state    204 was old state    206
 New state    205 was old state    210
 New state    206 was old state    208
 New state    208 was old state    209
 New state    209 was old state    214
 New state    210 was old state    220
 New state    212 was old state    213
 New state    213 was old state    215
 New state    214 was old state    212
 New state    215 was old state    216
 New state    216 was old state    221
 New state    220 was old state    223
 New state    221 was old state    222
 New state    222 was old state    226
 New state    223 was old state    225
 New state    225 was old state    227
 New state    226 was old state    228
 New state    227 was old state    230
 New state    228 was old state    229
 New state    229 was old state    232
 New state    230 was old state    231
 New state    231 was old state    237
 New state    232 was old state    233
 New state    233 was old state    235
 New state    234 was old state    236
 New state    235 was old state    234
 New state    236 was old state    238
 New state    237 was old state    239
 New state    238 was old state    240
 New state    239 was old state    260
 New state    240 was old state    241
 New state    241 was old state    242
 New state    242 was old state    244
 New state    243 was old state    245
 New state    244 was old state    243
 New state    245 was old state    251
 New state    248 was old state    249
 New state    249 was old state    248
 New state    250 was old state    252
 New state    251 was old state    254
 New state    252 was old state    253
 New state    253 was old state    250
 New state    254 was old state    255
 New state    255 was old state    256
 New state    256 was old state    267
 New state    257 was old state    258
 New state    258 was old state    257
 New state    260 was old state    261
 New state    261 was old state    263
 New state    262 was old state    264
 New state    263 was old state    266
 New state    264 was old state    262
 New state    266 was old state    268
 New state    267 was old state    271
 New state    268 was old state    269
 New state    269 was old state    270
 New state    270 was old state    273
 New state    271 was old state    280
 New state    273 was old state    274
 New state    274 was old state    275
 New state    275 was old state    276
 New state    276 was old state    277
 New state    277 was old state    278
 New state    278 was old state    279
 New state    279 was old state    283
 New state    280 was old state    281
 New state    281 was old state    282
 New state    282 was old state    295
 New state    283 was old state    287
 New state    284 was old state    289
 New state    285 was old state    284
 New state    286 was old state    288
 New state    287 was old state    286
 New state    288 was old state    291
 New state    289 was old state    290
 New state    290 was old state    285
 New state    291 was old state    292
 New state    292 was old state    293
 New state    293 was old state    294
 New state    294 was old state    301
 New state    295 was old state    296
 New state    296 was old state    297
 New state    297 was old state    299
 New state    299 was old state    300
 New state    300 was old state    304
 New state    301 was old state    302
 New state    302 was old state    305
 New state    304 was old state    312
 New state    305 was old state    306
 New state    306 was old state    308
 New state    307 was old state    309
 New state    308 was old state    307
 New state    309 was old state    310
 New state    310 was old state    311
 New state    311 was old state    313
 New state    312 was old state    318
 New state    313 was old state    315
 New state    314 was old state    316
 New state    315 was old state    314
 New state    316 was old state    320
 New state    317 was old state    319
 New state    318 was old state    321
 New state    319 was old state    323
 New state    320 was old state    317
 New state    321 was old state    322
 New state    322 was old state    328
 New state    323 was old state    324
 New state    324 was old state    325
 New state    325 was old state    327
 New state    327 was old state    331
 New state    328 was old state    337
 New state    329 was old state    330
 New state    330 was old state    329
 New state    331 was old state    332
 New state    332 was old state    334
 New state    334 was old state    340
 New state    335 was old state    336
 New state    336 was old state    338
 New state    337 was old state    339
 New state    338 was old state    343
 New state    339 was old state    335
 New state    340 was old state    341
 New state    341 was old state    342
 New state    342 was old state    345
 New state    343 was old state    350
 New state    345 was old state    346
 New state    346 was old state    347
 New state    347 was old state    348
 New state    348 was old state    349
 New state    349 was old state    352
 New state    350 was old state    354
 New state    352 was old state    353
 New state    353 was old state    356
 New state    354 was old state    355
 New state    355 was old state    357
 New state    356 was old state    358
 New state    357 was old state    367
 New state    358 was old state    359
 New state    359 was old state    362
 New state    362 was old state    363
 New state    363 was old state    365
 New state    365 was old state    368
 No map to state    367
 New state    368 was old state    369
 New state    369 was old state    370
 New state    370 was old state    371
 New state    371 was old state    372
 New state    372 was old state    373
 New state    373 was old state    374
 New state    374 was old state    376
 New state    376 was old state    377
 New state    377 was old state    379
 New state    379 was old state    380
 New state    380 was old state    381
 New state    381 was old state    382
 New state    382 was old state    386
 New state    385 was old state    388
 New state    386 was old state    389
 New state    388 was old state    390
 New state    389 was old state    385
 New state    390 was old state    394
 New state    391 was old state    392
 New state    392 was old state    393
 New state    393 was old state    396
 New state    394 was old state    395
 New state    395 was old state    397
 New state    396 was old state    409
 New state    397 was old state    402
 New state    399 was old state    400
 New state    400 was old state    401
 New state    401 was old state    399
 New state    402 was old state    404
 New state    404 was old state    405
 New state    405 was old state    406
 New state    406 was old state    391
 New state    409 was old state    410
 New state    410 was old state    411
 New state    411 was old state    413
 New state    412 was old state    414
 New state    413 was old state    415
 New state    414 was old state    416
 New state    415 was old state    417
 New state    416 was old state    412
 New state    417 was old state    418
 New state    418 was old state    434
 New state    424 was old state    425
 New state    425 was old state    424
 New state    427 was old state    430
 New state    428 was old state    429
 New state    429 was old state    427
 New state    430 was old state    428
 New state    432 was old state    433
 New state    433 was old state    432
 New state    434 was old state    435
 New state    435 was old state    439
 New state    437 was old state    438
 New state    438 was old state    437
 New state    439 was old state    440
 New state    440 was old state    442
 New state    442 was old state    443
 New state    443 was old state    446
 New state    446 was old state    448
 New state    447 was old state    456
 New state    448 was old state    447
 New state    452 was old state    455
 New state    453 was old state    454
 New state    454 was old state    452
 New state    455 was old state    453
 New state    456 was old state    461
 New state    461 was old state    462
 New state    462 was old state    464
 New state    464 was old state    465
 New state    465 was old state    467
 New state    467 was old state    468
 New state    468 was old state    470
 New state    469 was old state    471
 New state    470 was old state    469
 New state    471 was old state    474
 New state    474 was old state    479
 New state    479 was old state    480
 New state    480 was old state    481
 New state    481 was old state    484
 New state    482 was old state    483
 New state    483 was old state    485
 New state    484 was old state    482
 New state    485 was old state    486
 New state    486 was old state    488
 New state    488 was old state    489
 New state    489 was old state    491
 New state    491 was old state    493
 New state    493 was old state    494
 New state    494 was old state    496
 New state    496 was old state    497
 New state    497 was old state    498
 New state    498 was old state    499
 New state    499 was old state    501
 New state    501 was old state    502
 New state    502 was old state    503
 New state    503 was old state    504
 New state    504 was old state    509
 New state    506 was old state    507
 New state    507 was old state    506
 New state    509 was old state    512
 New state    512 was old state    514
 New state    514 was old state    515
 New state    515 was old state    517
 New state    517 was old state    518
 New state    518 was old state    519
 New state    519 was old state    520
 New state    520 was old state    522
 New state    522 was old state    523
 New state    523 was old state    524
 New state    524 was old state    526
 New state    526 was old state    527
 New state    527 was old state    528
 New state    528 was old state    529
 New state    529 was old state    531
 New state    530 was old state    538
 New state    531 was old state    530
 New state    538 was old state    539
 New state    539 was old state    542
 New state    541 was old state    546
 New state    542 was old state    541
 New state    543 was old state    544
 New state    544 was old state    545
 New state    545 was old state    547
 New state    546 was old state    543
 New state    547 was old state    548
 New state    548 was old state    549
 New state    549 was old state    551
 New state    551 was old state    552
 New state    552 was old state    553
 New state    553 was old state    555
 New state    555 was old state    558
 New state    558 was old state    561
 New state    561 was old state    562
 New state    562 was old state    568
 New state    563 was old state    565
 New state    565 was old state    566
 New state    566 was old state    563
 New state    568 was old state    569
 New state    569 was old state    571
 New state    570 was old state    572
 New state    571 was old state    570
 New state    572 was old state    573
 New state    573 was old state    574
 No map to state    574
 New state    575 was old state    576
 New state    576 was old state    575
 New state    585 was old state    586
 New state    586 was old state    588
 New state    587 was old state    585
 New state    588 was old state    587
 New state    591 was old state    592
 New state    592 was old state    591
 New state    607 was old state    608
 New state    608 was old state    609
 New state    609 was old state    612
 New state    612 was old state    607
 New state    616 was old state    618
 New state    617 was old state    619
 New state    618 was old state    616
 New state    619 was old state    617
 New state    628 was old state    629
 New state    629 was old state    628
 New state    632 was old state    633
 New state    633 was old state    634
 New state    634 was old state    635
 New state    635 was old state    637
 New state    636 was old state    638
 New state    637 was old state    639
 New state    638 was old state    642
 New state    639 was old state    641
 New state    640 was old state    643
 New state    641 was old state    645
 New state    642 was old state    640
 New state    643 was old state    644
 New state    644 was old state    648
 New state    645 was old state    646
 New state    646 was old state    647
 New state    647 was old state    650
 New state    648 was old state    651
 New state    650 was old state    652
 New state    651 was old state    655
 New state    652 was old state    653
 New state    653 was old state    654
 New state    654 was old state    656
 New state    655 was old state    659
 New state    656 was old state    658
 New state    658 was old state    661
 New state    659 was old state    660
 New state    660 was old state    662
 New state    661 was old state    666
 New state    662 was old state    663
 New state    663 was old state    664
 New state    664 was old state    667
 New state    666 was old state    636
 New state    667 was old state    671
 New state    671 was old state    673
 No map to state    673
 Excitation Energies [eV] at current iteration:
 Root      1 :     6.816086703471030
 Root      2 :     7.363456408217914
 Root      3 :     7.505469216217504
 Root      4 :     8.135550707699652
 Root      5 :     8.194178261583648
 Root      6 :     8.636592644660654
 Root      7 :     9.277476543580669
 Root      8 :     9.333595491797592
 Root      9 :     9.421122670640131
 Root     10 :     9.722055547050884
 Root     11 :     9.809089059223343
 Root     12 :    10.130303634409470
 Root     13 :    10.401791226022960
 Root     14 :    10.521431169195710
 Root     15 :    10.669155074272350
 Root     16 :    10.933841665265210
 Root     17 :    10.961906685818840
 Root     18 :    11.051681977981530
 Root     19 :    11.087066024521670
 Root     20 :    11.171469915706370
 Root     21 :    11.268434465755190
 Root     22 :    11.498693066571790
 Root     23 :    11.712783660615530
 Root     24 :    11.907652027153450
 Root     25 :    12.001345827707720
 Root     26 :    12.008915328345710
 Root     27 :    12.186916318182060
 Root     28 :    12.282756455530320
 Root     29 :    12.382105813885550
 Root     30 :    12.393409538812290
 Root     31 :    12.551519316668060
 Root     32 :    12.632522799836140
 Root     33 :    12.925925689073580
 Root     34 :    12.928630658414780
 Root     35 :    12.954301942889540
 Root     36 :    12.957376388510730
 Root     37 :    13.000325293148100
 Root     38 :    13.088515925324110
 Root     39 :    13.188340991907610
 Root     40 :    13.308511755239380
 Root     41 :    13.314562377128350
 Root     42 :    13.454959855644540
 Root     43 :    13.570490194087560
 Root     44 :    13.627008974031070
 Root     45 :    13.680513858034500
 Root     46 :    14.067903164347560
 Root     47 :    14.093355798395140
 Root     48 :    14.096141212458330
 Root     49 :    14.271517563199390
 Root     50 :    14.322846806056470
 Root     51 :    14.383655519888810
 Root     52 :    14.434730752745460
 Root     53 :    14.556349305612000
 Root     54 :    14.572582087503780
 Root     55 :    14.709385114625030
 Root     56 :    14.880499446664240
 Root     57 :    14.908899187542650
 Root     58 :    14.956203733029360
 Root     59 :    14.982886359580200
 Root     60 :    14.984442969603140
 Root     61 :    15.146212870871660
 Root     62 :    15.150865504418550
 Root     63 :    15.218914898648800
 Root     64 :    15.264377162100160
 Root     65 :    15.328212216669790
 Root     66 :    15.341260979363020
 Root     67 :    15.384510164598690
 Root     68 :    15.404307168565050
 Root     69 :    15.497742470626980
 Root     70 :    15.545250065445070
 Root     71 :    15.615392692761840
 Root     72 :    15.673025824171220
 Root     73 :    15.758804028047660
 Root     74 :    15.978683207346760
 Root     75 :    15.986214036155450
 Root     76 :    16.126153281092350
 Root     77 :    16.145432918586760
 Root     78 :    16.180970771638170
 Root     79 :    16.214309350733720
 Root     80 :    16.395910571951780
 Root     81 :    16.510873196220810
 Root     82 :    16.521264607411400
 Root     83 :    16.555095619999830
 Root     84 :    16.604990725608080
 Root     85 :    16.680535189293420
 Root     86 :    16.793399311057150
 Root     87 :    16.978627904755420
 Root     88 :    17.159955130452160
 Root     89 :    17.231584070491520
 Root     90 :    17.245686300751860
 Root     91 :    17.339371363364620
 Root     92 :    17.363949594694740
 Root     93 :    17.371416675245720
 Root     94 :    17.458121067476150
 Root     95 :    17.484912097761630
 Root     96 :    17.516644438241390
 Root     97 :    17.617062967812690
 Root     98 :    17.672346470770680
 Root     99 :    17.685222418426520
 Root    100 :    17.801068841190140
 Root    101 :    17.808227433772810
 Root    102 :    17.866721972233610
 Root    103 :    17.949393329048180
 Root    104 :    17.956621071436740
 Root    105 :    18.001387999374490
 Root    106 :    18.040723095046510
 Root    107 :    18.102032604385220
 Root    108 :    18.147843385696900
 Root    109 :    18.309567607220460
 Root    110 :    18.420262322271870
 Root    111 :    18.484798257931770
 Root    112 :    18.564331719035400
 Root    113 :    18.580106925673480
 Root    114 :    18.589412351738770
 Root    115 :    18.715351748142110
 Root    116 :    18.804623901285790
 Root    117 :    18.807066228278260
 Root    118 :    19.019911428206760
 Root    119 :    19.025482638934370
 Root    120 :    19.113589386905340
 Root    121 :    19.193664576078150
 Root    122 :    19.229731672175690
 Root    123 :    19.288606687732200
 Root    124 :    19.324852627243830
 Root    125 :    19.512013021213460
 Root    126 :    19.543255090636870
 Root    127 :    19.599808891627940
 Root    128 :    19.612497128820970
 Root    129 :    19.688419436828970
 Root    130 :    19.771543647349600
 Root    131 :    19.794593667887600
 Root    132 :    19.826370414840720
 Root    133 :    19.967244771948430
 Root    134 :    19.994157495329630
 Root    135 :    20.077712893012640
 Root    136 :    20.172410720961260
 Root    137 :    20.343171296950170
 Root    138 :    20.388414994093380
 Root    139 :    20.412160074064070
 Root    140 :    20.447183449395070
 Root    141 :    20.473037985604940
 Root    142 :    20.530794566621310
 Root    143 :    20.627010172445080
 Root    144 :    20.639911783584350
 Root    145 :    20.656748715433500
 Root    146 :    20.689465051625540
 Root    147 :    20.945344529156080
 Root    148 :    20.989143481962510
 Root    149 :    21.038846097834710
 Root    150 :    21.050735839279360
 Root    151 :    21.144062043360510
 Root    152 :    21.180438749829080
 Root    153 :    21.313936397011510
 Root    154 :    21.373022523865230
 Root    155 :    21.396959995408350
 Root    156 :    21.423297881415160
 Root    157 :    21.536502261046730
 Root    158 :    21.563771968102680
 Root    159 :    21.710709023032160
 Root    160 :    21.735941801062400
 Root    161 :    21.774694881442980
 Root    162 :    21.864357280032190
 Root    163 :    21.925631843986840
 Root    164 :    21.981363747922260
 Root    165 :    22.064107840561390
 Root    166 :    22.078139679047560
 Root    167 :    22.111380783502330
 Root    168 :    22.283333399750250
 Root    169 :    22.349045942153870
 Root    170 :    22.388360962382820
 Root    171 :    22.466423620102340
 Root    172 :    22.482782120590780
 Root    173 :    22.563376896662580
 Root    174 :    22.588284755317800
 Root    175 :    22.646397983805240
 Root    176 :    22.794437409121430
 Root    177 :    22.840316855618160
 Root    178 :    22.921399356179080
 Root    179 :    22.948250370311090
 Root    180 :    23.040970829680880
 Root    181 :    23.080215176483190
 Root    182 :    23.213212685851880
 Root    183 :    23.231836087718310
 Root    184 :    23.347479208592450
 Root    185 :    23.418471288668250
 Root    186 :    23.458080255915070
 Root    187 :    23.469226647973200
 Root    188 :    23.538176566098540
 Root    189 :    23.579083589279270
 Root    190 :    23.647449353590860
 Root    191 :    23.788971842868400
 Root    192 :    23.822810175155620
 Root    193 :    23.870991502839400
 Root    194 :    23.992732604774860
 Root    195 :    24.015040986543730
 Root    196 :    24.071621445869500
 Root    197 :    24.232975337919540
 Root    198 :    24.278988247562740
 Root    199 :    24.463455459617010
 Root    200 :    24.570077651969050
 Root    201 :    24.671048972733620
 Root    202 :    24.688772355553060
 Root    203 :    24.727604268451980
 Root    204 :    24.923553303539980
 Root    205 :    25.064104765673540
 Root    206 :    25.077081325763820
 Root    207 :    25.127035872062570
 Root    208 :    25.157517293401700
 Root    209 :    25.215637844933710
 Root    210 :    25.241211321526390
 Root    211 :    25.246245936065370
 Root    212 :    25.412704251872900
 Root    213 :    25.437244996302620
 Root    214 :    25.460856639694470
 Root    215 :    25.629736188826140
 Root    216 :    25.690547234352820
 Root    217 :    25.871040984193280
 Root    218 :    25.983174952859720
 Root    219 :    26.117302986086750
 Root    220 :    26.152290194873060
 Root    221 :    26.269740885427670
 Root    222 :    26.473029223131930
 Root    223 :    26.503618259525930
 Root    224 :    26.604546716519810
 Root    225 :    26.619131526553560
 Root    226 :    26.687737844793110
 Root    227 :    26.735578916092290
 Root    228 :    26.835020598528980
 Root    229 :    26.949666242539750
 Root    230 :    27.046743237219210
 Root    231 :    27.084544372026570
 Root    232 :    27.159315640826680
 Root    233 :    27.302289045840380
 Root    234 :    27.422679369811380
 Root    235 :    27.478271653144980
 Root    236 :    27.621810034004160
 Root    237 :    27.640600734556460
 Root    238 :    27.743239765988890
 Root    239 :    27.788194960176360
 Root    240 :    27.833295472900840
 Root    241 :    27.923426470176160
 Root    242 :    28.079504672715940
 Root    243 :    28.103942529763270
 Root    244 :    28.157012556554020
 Root    245 :    28.199276852068270
 Root    246 :    28.302736173264790
 Root    247 :    28.674476411348880
 Root    248 :    28.826358890910960
 Root    249 :    28.871284518034810
 Root    250 :    28.886756003071490
 Root    251 :    28.922327688423480
 Root    252 :    29.032547328189590
 Root    253 :    29.099490959123530
 Root    254 :    29.309724823069110
 Root    255 :    29.313640123210490
 Root    256 :    29.469347890262390
 Root    257 :    29.508660199304160
 Root    258 :    29.634869981639080
 Root    259 :    29.681830641000910
 Root    260 :    29.897947585753950
 Root    261 :    29.931466560171340
 Root    262 :    30.027640685502760
 Root    263 :    30.054995490474620
 Root    264 :    30.110831779241910
 Root    265 :    30.215460902738940
 Root    266 :    30.275640836293620
 Root    267 :    30.458798756874540
 Root    268 :    30.476670440555190
 Root    269 :    30.505612100995470
 Root    270 :    30.530678704222080
 Root    271 :    30.611757615599530
 Root    272 :    30.663861796345090
 Root    273 :    30.702717768058790
 Root    274 :    30.854874278642870
 Root    275 :    30.929462604883050
 Root    276 :    31.075479117080850
 Root    277 :    31.126928595331020
 Root    278 :    31.240241696204360
 Root    279 :    31.406895197929240
 Root    280 :    31.574851974230260
 Root    281 :    31.610071795728880
 Root    282 :    31.666102392879100
 Root    283 :    31.876317603034090
 Root    284 :    31.978410964190690
 Root    285 :    31.978612418731010
 Root    286 :    32.077550785294180
 Root    287 :    32.203555662903210
 Root    288 :    32.297202461733600
 Root    289 :    32.312154044324970
 Root    290 :    32.354094369763390
 Root    291 :    32.407671578709670
 Root    292 :    32.574142411059670
 Root    293 :    32.845584519780450
 Root    294 :    32.967437717038030
 Root    295 :    32.972374726689370
 Root    296 :    33.023393103856130
 Root    297 :    33.056647128787170
 Root    298 :    33.192779533612360
 Root    299 :    33.275112842648140
 Root    300 :    33.405278814215950
 Root    301 :    33.434049227634870
 Root    302 :    33.548416803236390
 Root    303 :    33.596622776584670
 Root    304 :    33.721538614618100
 Root    305 :    33.774875869117690
 Root    306 :    33.881217070149480
 Root    307 :    33.957633348022350
 Root    308 :    34.030450436910210
 Root    309 :    34.138204215383790
 Root    310 :    34.368712912186850
 Root    311 :    34.642701171051220
 Root    312 :    34.677051430152640
 Root    313 :    34.688340091067430
 Root    314 :    34.902047017906700
 Root    315 :    34.918470650010500
 Root    316 :    34.952185497428770
 Root    317 :    34.960898487402260
 Root    318 :    35.071265696019470
 Root    319 :    35.121107685844370
 Root    320 :    35.240949397552380
 Root    321 :    35.360800866421760
 Root    322 :    35.420509315181970
 Root    323 :    35.440190286492000
 Root    324 :    35.604079760312140
 Root    325 :    35.676344619183520
 Root    326 :    35.797687999770070
 Root    327 :    35.944098760483240
 Root    328 :    36.121232404792130
 Root    329 :    36.143096361124810
 Root    330 :    36.174646692476020
 Root    331 :    36.448034612911940
 Root    332 :    36.632172924672600
 Root    333 :    36.642153883763640
 Root    334 :    36.712971646156900
 Root    335 :    36.742254188295850
 Root    336 :    36.971605733843960
 Root    337 :    37.017533229096730
 Root    338 :    37.206288690380350
 Root    339 :    37.402308677007220
 Root    340 :    37.416892556735860
 Root    341 :    37.585425778043820
 Root    342 :    37.697825447362500
 Root    343 :    37.699379491298740
 Root    344 :    37.702984655728980
 Root    345 :    37.800160552579400
 Root    346 :    38.057763832700060
 Root    347 :    38.068022873847350
 Root    348 :    38.132494901536550
 Root    349 :    38.234280279627720
 Root    350 :    38.262637828561090
 Root    351 :    38.549960630220920
 Root    352 :    38.707432953924080
 Root    353 :    38.784650541984920
 Root    354 :    38.919957113524180
 Root    355 :    39.059246018540030
 Root    356 :    39.159888614666630
 Root    357 :    39.332172596159440
 Root    358 :    39.373359955685120
 Root    359 :    39.441854523027890
 Root    360 :    39.453449691487220
 Root    361 :    39.511155206774480
 Root    362 :    39.566501908141980
 Root    363 :    39.806608302985960
 Root    364 :    40.138531765055080
 Root    365 :    40.167030454795780
 Root    366 :    40.172573353411980
 Root    367 :    40.329540319252120
 Root    368 :    40.340276142215880
 Root    369 :    40.781147658400780
 Root    370 :    40.870238960626140
 Root    371 :    40.996816839629990
 Root    372 :    41.058744005335390
 Root    373 :    41.205531294191780
 Root    374 :    41.391217886881280
 Root    375 :    41.432382129391940
 Root    376 :    41.579347719284800
 Root    377 :    41.690510935830640
 Root    378 :    41.794658202528540
 Root    379 :    41.906724109826140
 Root    380 :    42.069739160333980
 Root    381 :    42.156443302195500
 Root    382 :    42.347462983954360
 Root    383 :    42.392884290421110
 Root    384 :    42.811841443243960
 Root    385 :    43.012827108850880
 Root    386 :    43.176834387790480
 Root    387 :    43.238819483060910
 Root    388 :    43.441816799976420
 Root    389 :    43.578867459917620
 Root    390 :    43.858159862905560
 Root    391 :    44.099849788804970
 Root    392 :    44.279593743464460
 Root    393 :    44.355801229287260
 Root    394 :    44.481326744644580
 Root    395 :    44.732156307969920
 Root    396 :    44.945577400577970
 Root    397 :    45.054213531874410
 Root    398 :    45.096877263490430
 Root    399 :    45.353377632629680
 Root    400 :    45.417477015717640
 Root    401 :    45.452427213846440
 Root    402 :    45.900792623308870
 Root    403 :    45.994966501641220
 Root    404 :    46.347782192730850
 Root    405 :    46.560005172315190
 Root    406 :    46.676329369462180
 Root    407 :    46.825356235919560
 Root    408 :    47.110085435482750
 Root    409 :    47.347926144722950
 Root    410 :    47.641083144771410
 Root    411 :    47.876175255712270
 Root    412 :    47.946143228592340
 Root    413 :    47.989505343556580
 Root    414 :    48.360770476626720
 Root    415 :    48.633441992289200
 Root    416 :    48.757692750595460
 Root    417 :    48.913716275532830
 Root    418 :    49.088344305885110
 Root    419 :    49.182169320071060
 Root    420 :    49.327695395726360
 Root    421 :    49.440276853257230
 Root    422 :    49.825650320214720
 Root    423 :    50.182661340140020
 Root    424 :    50.478803413136350
 Root    425 :    50.579928374671190
 Root    426 :    50.872341798523430
 Root    427 :    51.458918276246170
 Root    428 :    51.527746151899710
 Root    429 :    51.556047630869490
 Root    430 :    51.722918671392310
 Root    431 :    51.735963931242400
 Root    432 :    52.066960822228520
 Root    433 :    52.198351757704120
 Root    434 :    52.806544834924760
 Root    435 :    52.876270620381650
 Root    436 :    53.093743796882800
 Root    437 :    53.410409313617010
 Root    438 :    53.549223520836410
 Root    439 :    54.008275901289490
 Root    440 :    54.346499539927990
 Root    441 :    54.532475108151760
 Root    442 :    54.705428938260810
 Root    443 :    54.975135427480690
 Root    444 :    54.992574283288650
 Root    445 :    55.123602041077080
 Root    446 :    55.288565508858260
 Root    447 :    55.397428984888110
 Root    448 :    55.545542002016320
 Root    449 :    55.749678589781720
 Root    450 :    55.775975656412650
 Root    451 :    55.882268782753290
 Root    452 :    56.146830501935700
 Root    453 :    56.175166287494320
 Root    454 :    56.251760541571280
 Root    455 :    56.370618461744790
 Root    456 :    56.642555895645860
 Root    457 :    56.803676201272660
 Root    458 :    56.861235625405410
 Root    459 :    56.990351246402520
 Root    460 :    57.077701507649000
 Root    461 :    57.174029738996150
 Root    462 :    57.199608347147990
 Root    463 :    57.582160792735690
 Root    464 :    57.834168185916370
 Root    465 :    57.975399953462750
 Root    466 :    58.065646792393810
 Root    467 :    58.221418154504360
 Root    468 :    58.379497362648910
 Root    469 :    58.573875911360590
 Root    470 :    58.678130304036510
 Root    471 :    58.695340482851150
 Root    472 :    58.698530476702690
 Root    473 :    58.940409143753410
 Root    474 :    59.253692142105940
 Root    475 :    59.307051824712830
 Root    476 :    59.330380153851070
 Root    477 :    59.699343684369230
 Root    478 :    59.780215219761110
 Root    479 :    60.024431027009750
 Root    480 :    60.070008281309470
 Root    481 :    60.134129998860820
 Root    482 :    60.203901641364690
 Root    483 :    60.260676687124490
 Root    484 :    60.331319213287270
 Root    485 :    60.556518276132160
 Root    486 :    60.618131790659310
 Root    487 :    60.723749010822940
 Root    488 :    60.941871847326720
 Root    489 :    61.201155634989990
 Root    490 :    61.365800153181470
 Root    491 :    61.525927546270540
 Root    492 :    61.636889705321940
 Root    493 :    61.689295968383010
 Root    494 :    61.766437862936730
 Root    495 :    61.971949913785790
 Root    496 :    62.216145744133610
 Root    497 :    62.515152763267200
 Root    498 :    62.712367553750480
 Root    499 :    63.170349379532680
 Root    500 :    63.199743657055600
 Root    501 :    63.290966644886850
 Root    502 :    63.462296792582440
 Root    503 :    63.539657897599140
 Root    504 :    63.629583952134450
 Root    505 :    63.882812012487510
 Root    506 :    64.020430821342270
 Root    507 :    64.123929138148840
 Root    508 :    64.313903129665050
 Root    509 :    64.382095723494860
 Root    510 :    64.476935861976800
 Root    511 :    64.559435897512930
 Root    512 :    64.949779616934070
 Root    513 :    64.959875484448430
 Root    514 :    65.156353202108460
 Root    515 :    65.449395536604560
 Root    516 :    65.898264615469690
 Root    517 :    66.179457853885010
 Root    518 :    66.282127280979740
 Root    519 :    66.545828946191310
 Root    520 :    66.686090065479970
 Root    521 :    67.082360806371130
 Root    522 :    67.293568954204030
 Root    523 :    67.539559736811160
 Root    524 :    67.549648175428440
 Root    525 :    67.777555372228150
 Root    526 :    68.364388165866940
 Root    527 :    68.620096141502630
 Root    528 :    68.826383091413530
 Root    529 :    69.272499470143490
 Root    530 :    69.293472518916930
 Root    531 :    69.452830388381090
 Root    532 :    69.558566737383590
 Root    533 :    69.933939301700110
 Root    534 :    70.097958383392170
 Root    535 :    70.322387789096130
 Root    536 :    70.445083463122570
 Root    537 :    70.583135265315040
 Root    538 :    71.068726435027050
 Root    539 :    71.309640498971110
 Root    540 :    71.337015094570280
 Root    541 :    71.543237453748990
 Root    542 :    71.674610553227640
 Root    543 :    72.419705932082450
 Root    544 :    72.426862594528250
 Root    545 :    72.454873915606580
 Root    546 :    72.555649628911910
 Root    547 :    73.022640705906340
 Root    548 :    73.348988182287100
 Root    549 :    73.414881658266890
 Root    550 :    73.469027724439200
 Root    551 :    73.504793474414040
 Root    552 :    73.791860207685760
 Root    553 :    74.100249543647280
 Root    554 :    74.223796035814020
 Root    555 :    74.484488929133860
 Root    556 :    74.686196076652930
 Root    557 :    74.847220570799180
 Root    558 :    75.344155174966490
 Root    559 :    75.431817459779040
 Root    560 :    75.531922809484210
 Root    561 :    75.588455334537830
 Root    562 :    75.730715593523880
 Root    563 :    75.843549505269890
 Root    564 :    76.138222580504150
 Root    565 :    76.308853281852220
 Root    566 :    76.455372510047710
 Root    567 :    76.667966432029740
 Root    568 :    77.174505573490220
 Root    569 :    77.277337180664460
 Root    570 :    77.339136832623340
 Root    571 :    77.412481815582030
 Root    572 :    77.951305159513000
 Root    573 :    78.131294910525510
 Root    574 :    78.596723606832670
 Root    575 :    78.921130055816760
 Root    576 :    79.065934152338440
 Root    577 :    79.210223663695980
 Root    578 :    79.866557309360290
 Root    579 :    80.011629443513070
 Root    580 :    80.375321816380550
 Root    581 :    80.608049628652890
 Root    582 :    80.881024810995700
 Root    583 :    81.250609517739120
 Root    584 :    82.144852518762960
 Root    585 :    82.306974288235980
 Root    586 :    82.690582019089400
 Root    587 :    82.781285163876460
 Root    588 :    83.043042300646310
 Root    589 :    83.294946364123850
 Root    590 :    83.928968612884890
 Root    591 :    84.727522497145020
 Root    592 :    84.844078071153630
 Root    593 :    85.111268981185250
 Root    594 :    85.426274656955460
 Root    595 :    85.885304136376960
 Root    596 :    86.352043357033790
 Root    597 :    87.082323891301460
 Root    598 :    87.348955474087030
 Root    599 :    87.549022537669220
 Root    600 :    88.409172724855100
 Root    601 :    88.867987675899230
 Root    602 :    88.962898047163510
 Root    603 :    89.457818601431170
 Root    604 :    89.982892392466680
 Root    605 :    90.836199415309220
 Root    606 :    91.276500544212710
 Root    607 :    91.609039637063150
 Root    608 :    92.189086237615460
 Root    609 :    92.760192750908930
 Root    610 :    92.835511460527240
 Root    611 :    93.033308737417810
 Root    612 :    93.196676096831990
 Root    613 :    93.989329807277670
 Root    614 :    94.082682051268690
 Root    615 :    94.459332769263610
 Root    616 :    95.124755305953950
 Root    617 :    95.360363691917950
 Root    618 :    95.466957853524820
 Root    619 :    95.530120005522520
 Root    620 :    95.925075676563610
 Root    621 :    96.177917954580010
 Root    622 :    96.257869020796780
 Root    623 :    96.463638355833380
 Root    624 :    97.083326500511480
 Root    625 :    97.759434974329310
 Root    626 :    98.210801479607070
 Root    627 :    98.346867216015600
 Root    628 :    98.754671360995930
 Root    629 :    98.818241210492460
 Root    630 :    99.591291111471120
 Root    631 :    99.657030348002000
 Root    632 :    99.764847016448680
 Root    633 :   100.129245349486200
 Root    634 :   100.428614794239200
 Root    635 :   100.787970773877000
 Root    636 :   101.084578851321900
 Root    637 :   101.538218941148700
 Root    638 :   102.321144950656300
 Root    639 :   102.535479984127500
 Root    640 :   102.566991690927000
 Root    641 :   103.075349003134800
 Root    642 :   103.131676367670200
 Root    643 :   103.568369715151300
 Root    644 :   103.577444465087800
 Root    645 :   104.123139172634200
 Root    646 :   104.410224470367800
 Root    647 :   104.986729668166500
 Root    648 :   105.028807066398300
 Root    649 :   106.285814871894000
 Root    650 :   106.827770175971400
 Root    651 :   107.049626423081100
 Root    652 :   107.098876631161000
 Root    653 :   107.542738636719700
 Root    654 :   108.548950029490700
 Root    655 :   108.891072591443400
 Root    656 :   108.914028733129200
 Root    657 :   110.189334935808900
 Root    658 :   110.286134497727700
 Root    659 :   111.434621985979200
 Root    660 :   111.932781600041700
 Root    661 :   112.139696812574600
 Root    662 :   114.718525644477600
 Root    663 :   115.219057096494700
 Root    664 :   115.928057749738900
 Root    665 :   116.202432862882300
 Root    666 :   117.572829959515000
 Root    667 :   117.810056258212600
 Root    668 :   119.077172602001500
 Root    669 :   120.476646694396300
 Root    670 :   121.268801572493700
 Root    671 :   121.891843167590100
 Root    672 :   122.691277696416300
 Root    673 :   124.342052723794500
 Root    674 :   127.460699826672400
 Root    675 :   136.473943984163600
 Convergence achieved for final wavefunctions.
 ***********************************************************************
 Excited states from <AA,BB:AA,BB> singles matrix:
 ***********************************************************************
 
 1PDM for each excited state written to RWF  633
 Ground to excited state transition densities written to RWF  633
 Ground to excited state transition electric dipole moments (Au):
       state          X           Y           Z        Dip. S.      Osc.
         1        -0.0000     -0.0000     -0.4453      0.1983      0.0331
         2        -0.0000     -0.0000     -0.2001      0.0401      0.0072
         3         1.1306     -0.4893     -0.0000      1.5177      0.2791
         4        -0.0000     -0.0000      0.0324      0.0010      0.0002
         5        -0.0000     -0.0000      0.0615      0.0038      0.0008
         6        -0.0000     -0.0000     -0.0502      0.0025      0.0005
         7        -0.1867     -0.0699     -0.0000      0.0398      0.0090
         8        -0.0000     -0.0000      0.0161      0.0003      0.0001
         9        -0.0000     -0.0000      0.1524      0.0232      0.0054
        10        -0.1143     -0.0232     -0.0000      0.0136      0.0032
        11        -0.2201      0.4693     -0.0000      0.2687      0.0646
        12        -0.0000     -0.0000      0.6748      0.4553      0.1130
        13        -0.6153     -0.0726     -0.0000      0.3838      0.0978
        14        -0.0000     -0.0000     -0.0413      0.0017      0.0004
        15         0.0262     -0.2503     -0.0000      0.0634      0.0166
        16        -0.3013     -0.3297     -0.0000      0.1995      0.0534
        17         0.3059     -0.3762     -0.0000      0.2351      0.0631
        18         0.0310      0.4562     -0.0000      0.2090      0.0566
        19        -0.0000     -0.0000      0.0703      0.0049      0.0013
        20         0.1552      0.7647     -0.0000      0.6088      0.1666
        21        -0.0000     -0.0000      0.2363      0.0559      0.0154
        22        -0.0000     -0.0000      0.3911      0.1530      0.0431
        23         0.3886     -0.0938     -0.0000      0.1598      0.0458
        24         0.0105      0.0641     -0.0000      0.0042      0.0012
        25        -0.0000     -0.0000     -0.1997      0.0399      0.0117
        26        -0.0000     -0.0000     -0.1569      0.0246      0.0072
        27         0.5632      0.0654     -0.0000      0.3215      0.0960
        28         0.3321     -0.3007     -0.0000      0.2007      0.0604
        29        -0.0000     -0.0000     -0.1468      0.0216      0.0065
        30         0.0668     -0.0264     -0.0000      0.0052      0.0016
        31         0.1739     -0.0669     -0.0000      0.0347      0.0107
        32        -0.0000     -0.0000      0.2402      0.0577      0.0179
        33        -0.0000     -0.0000      0.0047      0.0000      0.0000
        34        -0.6290      0.4409     -0.0000      0.5900      0.1869
        35        -0.0600     -0.3397     -0.0000      0.1190      0.0378
        36        -0.0000     -0.0000     -0.3135      0.0983      0.0312
        37         0.0532     -0.0683     -0.0000      0.0075      0.0024
        38        -0.0000     -0.0000      0.1675      0.0280      0.0090
        39        -0.0000     -0.0000     -0.1343      0.0180      0.0058
        40        -0.3639     -0.0867     -0.0000      0.1399      0.0456
        41        -0.0000     -0.0000      0.1631      0.0266      0.0087
        42         0.1332      0.1067     -0.0000      0.0291      0.0096
        43        -0.1519     -0.3236     -0.0000      0.1278      0.0425
        44         0.1798     -0.1441     -0.0000      0.0531      0.0177
        45        -0.0095      0.3476     -0.0000      0.1209      0.0405
        46        -0.1619      0.0294     -0.0000      0.0271      0.0093
        47        -0.0000     -0.0000     -0.0146      0.0002      0.0001
        48         0.2798      0.3237     -0.0000      0.1831      0.0632
        49        -0.0000     -0.0000     -0.1076      0.0116      0.0040
        50        -0.0000     -0.0000     -0.2141      0.0458      0.0161
        51        -0.0000     -0.0000     -0.0513      0.0026      0.0009
        52        -0.6727      0.0226     -0.0000      0.4530      0.1602
        53         0.0394      0.0958     -0.0000      0.0107      0.0038
        54        -0.0000     -0.0000      0.0574      0.0033      0.0012
        55        -0.0138      0.1416     -0.0000      0.0202      0.0073
        56        -0.0000     -0.0000     -0.3979      0.1583      0.0577
        57        -0.2374     -0.5155     -0.0000      0.3221      0.1176
        58        -0.0000     -0.0000     -0.2861      0.0819      0.0300
        59        -0.3797     -0.6150     -0.0000      0.5224      0.1918
        60        -0.0000     -0.0000     -0.2392      0.0572      0.0210
        61        -0.3887      0.0812     -0.0000      0.1577      0.0585
        62        -0.0000     -0.0000      0.4194      0.1759      0.0653
        63        -0.0000     -0.0000      0.2057      0.0423      0.0158
        64         0.1034     -0.1294     -0.0000      0.0274      0.0103
        65        -0.0000     -0.0000     -0.3536      0.1250      0.0470
        66        -0.0646      0.1979     -0.0000      0.0433      0.0163
        67        -0.4623     -0.1511     -0.0000      0.2366      0.0892
        68         0.2089      0.3514     -0.0000      0.1671      0.0631
        69        -0.0000     -0.0000      0.3051      0.0931      0.0353
        70        -0.1117      0.4159     -0.0000      0.1855      0.0706
        71        -0.0000     -0.0000      0.1644      0.0270      0.0103
        72        -0.0886      0.1008     -0.0000      0.0180      0.0069
        73        -0.0000     -0.0000     -0.2146      0.0461      0.0178
        74         0.1651     -0.1320     -0.0000      0.0447      0.0175
        75        -0.0544      0.0530     -0.0000      0.0058      0.0023
        76         0.1084     -0.1464     -0.0000      0.0332      0.0131
        77        -0.0000     -0.0000     -0.1170      0.0137      0.0054
        78        -0.0000     -0.0000     -0.2834      0.0803      0.0318
        79        -0.1785     -0.4099     -0.0000      0.1999      0.0794
        80        -0.0000     -0.0000      0.0185      0.0003      0.0001
        81         0.1515      0.0552     -0.0000      0.0260      0.0105
        82        -0.0000     -0.0000      0.6823      0.4655      0.1884
        83        -0.1563     -0.1570     -0.0000      0.0491      0.0199
        84         0.1672     -0.1810     -0.0000      0.0607      0.0247
        85         0.0420     -0.1327     -0.0000      0.0194      0.0079
        86        -0.4256     -0.0890     -0.0000      0.1890      0.0778
        87        -0.1436     -0.1630     -0.0000      0.0472      0.0196
        88        -0.1889     -0.2091     -0.0000      0.0794      0.0334
        89         0.2222      0.3682     -0.0000      0.1850      0.0781
        90        -0.0000     -0.0000      0.0934      0.0087      0.0037
        91        -0.0000     -0.0000     -0.2021      0.0408      0.0173
        92        -0.0000     -0.0000     -0.1200      0.0144      0.0061
        93         0.1616     -0.0700     -0.0000      0.0310      0.0132
        94        -0.0000     -0.0000     -0.4720      0.2227      0.0953
        95        -0.1383     -0.3001     -0.0000      0.1092      0.0468
        96         0.2049      0.0787     -0.0000      0.0482      0.0207
        97        -0.0000     -0.0000      0.3199      0.1023      0.0442
        98        -0.1028      0.0272     -0.0000      0.0113      0.0049
        99        -0.0000     -0.0000      0.2307      0.0532      0.0231
       100        -0.0000     -0.0000     -0.2202      0.0485      0.0211
       101         0.1424     -0.0167     -0.0000      0.0206      0.0090
       102         0.0084     -0.1075     -0.0000      0.0116      0.0051
       103        -0.0000     -0.0000      0.3083      0.0950      0.0418
       104        -0.2543      0.0276     -0.0000      0.0654      0.0288
       105        -0.0000     -0.0000      0.0000      0.0000      0.0000
       106        -0.2843     -0.0032     -0.0000      0.0808      0.0357
       107        -0.2067      0.3027     -0.0000      0.1344      0.0596
       108        -0.6773      0.1315     -0.0000      0.4760      0.2116
       109        -0.0000     -0.0000     -0.1364      0.0186      0.0083
       110         0.0826     -0.2807     -0.0000      0.0856      0.0386
       111         0.2064     -0.1772     -0.0000      0.0740      0.0335
       112         0.1229      0.0478     -0.0000      0.0174      0.0079
       113        -0.0000     -0.0000     -0.2320      0.0538      0.0245
       114        -0.0000     -0.0000      0.1609      0.0259      0.0118
       115         0.2776      0.4510     -0.0000      0.2805      0.1286
[...]
     13  -0.172888D+00  0.108828D+00  0.764195D-01  0.422879D-01 -0.158853D-01
     14  -0.387407D+00  0.199864D+00  0.271342D+00  0.484929D-02  0.591387D+00
     15   0.000000D+00  0.000000D+00  0.000000D+00  0.000000D+00  0.000000D+00
     16   0.000000D+00  0.000000D+00  0.000000D+00  0.000000D+00  0.000000D+00
               606           607           608           609           610 
      1  -0.174303D+03 -0.174291D+03 -0.174270D+03 -0.174249D+03 -0.174246D+03
      2  -0.239278D-01  0.000000D+00  0.000000D+00  0.223850D-01  0.000000D+00
      3  -0.584440D-01  0.000000D+00  0.000000D+00 -0.612303D-01  0.000000D+00
      4   0.000000D+00 -0.338023D-01  0.170338D-01  0.000000D+00 -0.135057D-02
      5   0.737011D-01  0.000000D+00  0.000000D+00 -0.691750D-01  0.000000D+00
      6   0.169971D+00  0.000000D+00  0.000000D+00  0.182273D+00  0.000000D+00
      7   0.000000D+00  0.105197D+00 -0.495900D-01  0.000000D+00 -0.346895D-01
      8   0.000000D+00 -0.160427D+00 -0.375714D-01  0.000000D+00  0.103848D+00
      9   0.000000D+00  0.219487D+00 -0.171084D+00  0.000000D+00 -0.194923D+00
     10  -0.965992D-01  0.000000D+00  0.000000D+00  0.589506D-01  0.000000D+00
     11   0.531305D+00  0.000000D+00  0.000000D+00 -0.376198D+00  0.000000D+00
     12   0.984561D-01  0.000000D+00  0.000000D+00 -0.669878D-01  0.000000D+00
     13  -0.151571D+00  0.000000D+00  0.000000D+00  0.168248D+00  0.000000D+00
     14  -0.509398D+00  0.000000D+00  0.000000D+00 -0.106938D+00  0.000000D+00
     15   0.000000D+00 -0.201475D+00  0.184422D+00  0.000000D+00  0.335552D+00
     16   0.000000D+00 -0.245869D+00  0.824937D-02  0.000000D+00  0.184460D+00
               611           612           613           614           615 
      1  -0.174239D+03 -0.174233D+03 -0.174204D+03 -0.174200D+03 -0.174186D+03
      2   0.303665D-01  0.290413D-01  0.204842D-01 -0.239261D-01 -0.579787D-01
      3   0.847183D-01  0.556478D-03 -0.228428D-01 -0.284576D-01  0.263092D-01
      4   0.000000D+00  0.000000D+00  0.000000D+00  0.000000D+00  0.000000D+00
      5  -0.948041D-01 -0.133416D+00 -0.843093D-01  0.613297D-01  0.159017D+00
      6  -0.233893D+00  0.101302D-02  0.673959D-01  0.719808D-01 -0.650056D-01
      7   0.000000D+00  0.000000D+00  0.000000D+00  0.000000D+00  0.000000D+00
      8   0.000000D+00  0.000000D+00  0.000000D+00  0.000000D+00  0.000000D+00
      9   0.000000D+00  0.000000D+00  0.000000D+00  0.000000D+00  0.000000D+00
     10  -0.332094D+00 -0.108954D+00 -0.144854D+00  0.188765D+00 -0.213146D+00
     11  -0.426883D+00  0.547490D+00  0.274263D+00 -0.140205D+00 -0.121054D+01
     12  -0.722528D-01 -0.731062D+00 -0.320963D+00 -0.317557D+00  0.164720D+00
     13  -0.121581D+00 -0.690764D+00 -0.387827D+00 -0.894725D-01 -0.162094D-01
     14  -0.188442D+00  0.243665D+00 -0.265118D-02  0.232849D+00 -0.404237D+00
     15   0.000000D+00  0.000000D+00  0.000000D+00  0.000000D+00  0.000000D+00
     16   0.000000D+00  0.000000D+00  0.000000D+00  0.000000D+00  0.000000D+00
               616           617           618           619           620 
      1  -0.174162D+03 -0.174153D+03 -0.174149D+03 -0.174147D+03 -0.174133D+03
      2   0.147834D-01  0.108654D+00  0.139047D-01  0.768283D-02  0.568696D-03
      3  -0.485629D-01  0.414452D-02  0.466177D-01  0.715975D-01 -0.164700D-01
      4   0.000000D+00  0.000000D+00  0.000000D+00  0.000000D+00  0.000000D+00
      5  -0.408663D-01 -0.336392D+00 -0.496216D-02 -0.475429D-01 -0.694259D-02
      6   0.180617D+00 -0.251690D-01 -0.101099D+00 -0.225219D+00  0.465872D-01
      7   0.000000D+00  0.000000D+00  0.000000D+00  0.000000D+00  0.000000D+00
      8   0.000000D+00  0.000000D+00  0.000000D+00  0.000000D+00  0.000000D+00
      9   0.000000D+00  0.000000D+00  0.000000D+00  0.000000D+00  0.000000D+00
     10  -0.122269D+00 -0.181045D+00 -0.319058D+00  0.475947D+00 -0.255398D+00
     11  -0.300372D+00 -0.492159D-01 -0.826017D+00 -0.103268D+01  0.769620D+00
     12  -0.103414D+00 -0.319419D+00  0.199215D+00  0.383908D-02 -0.152974D+00
     13   0.180457D+00 -0.443409D+00  0.482204D+00 -0.422492D+00  0.932117D-01
     14  -0.233635D+00  0.876460D-01 -0.714974D+00  0.545137D+00 -0.194970D+00
     15   0.000000D+00  0.000000D+00  0.000000D+00  0.000000D+00  0.000000D+00
     16   0.000000D+00  0.000000D+00  0.000000D+00  0.000000D+00  0.000000D+00
               621           622           623           624           625 
      1  -0.174123D+03 -0.174120D+03 -0.174113D+03 -0.174090D+03 -0.174065D+03
      2   0.000000D+00  0.000000D+00  0.000000D+00  0.506044D-01  0.786311D-01
      3   0.000000D+00  0.000000D+00  0.000000D+00  0.379320D-02  0.180245D-01
      4  -0.346470D-01  0.427291D-02 -0.694888D-01  0.000000D+00  0.000000D+00
      5   0.000000D+00  0.000000D+00  0.000000D+00 -0.138176D+00 -0.245628D+00
      6   0.000000D+00  0.000000D+00  0.000000D+00 -0.252963D-01 -0.828690D-01
      7   0.121570D+00 -0.152958D-02  0.214541D+00  0.000000D+00  0.000000D+00
      8   0.893734D-02 -0.384781D-01 -0.377806D-02  0.000000D+00  0.000000D+00
      9   0.241136D+00  0.839223D-01  0.323022D+00  0.000000D+00  0.000000D+00
     10   0.000000D+00  0.000000D+00  0.000000D+00 -0.326150D+00 -0.959739D-01
     11   0.000000D+00  0.000000D+00  0.000000D+00 -0.322607D+00  0.152172D+01
     12   0.000000D+00  0.000000D+00  0.000000D+00  0.218099D+00  0.331519D+00
     13   0.000000D+00  0.000000D+00  0.000000D+00  0.880841D-01 -0.140443D+00
     14   0.000000D+00  0.000000D+00  0.000000D+00 -0.339122D+00  0.467195D+00
     15  -0.255606D+00 -0.769486D-01 -0.236931D+00  0.000000D+00  0.000000D+00
     16   0.134267D-01 -0.181705D+00  0.427579D-01  0.000000D+00  0.000000D+00
               626           627           628           629           630 
      1  -0.174049D+03 -0.174044D+03 -0.174029D+03 -0.174026D+03 -0.173998D+03
      2   0.000000D+00  0.545753D-01  0.000000D+00 -0.309270D-01 -0.152310D-01
      3   0.000000D+00 -0.173556D-01  0.000000D+00  0.738329D-01  0.250405D-01
      4   0.122339D+00  0.000000D+00  0.996549D-01  0.000000D+00  0.000000D+00
      5   0.000000D+00 -0.163523D+00  0.000000D+00  0.106327D+00  0.601069D-01
      6   0.000000D+00  0.432463D-01  0.000000D+00 -0.254458D+00 -0.755002D-01
      7  -0.404339D+00  0.000000D+00 -0.321530D+00  0.000000D+00  0.000000D+00
      8   0.127241D+00  0.000000D+00  0.969288D-01  0.000000D+00  0.000000D+00
      9  -0.748728D+00  0.000000D+00 -0.596493D+00  0.000000D+00  0.000000D+00
     10   0.000000D+00  0.196392D+00  0.000000D+00  0.570081D+00 -0.968606D-01
     11   0.000000D+00  0.137341D+00  0.000000D+00  0.600158D-01  0.243628D+00
     12   0.000000D+00  0.117367D+00  0.000000D+00  0.336129D-01  0.119395D+00
     13   0.000000D+00  0.568583D-01  0.000000D+00 -0.554879D-01  0.358071D-01
     14   0.000000D+00  0.163590D+00  0.000000D+00  0.624491D+00 -0.155112D+00
     15   0.706125D+00  0.000000D+00  0.526872D+00  0.000000D+00  0.000000D+00
     16   0.555436D-01  0.000000D+00  0.731264D-01  0.000000D+00  0.000000D+00
               631           632           633           634           635 
      1  -0.173995D+03 -0.173991D+03 -0.173978D+03 -0.173967D+03 -0.173954D+03
      2   0.000000D+00  0.155921D-01  0.192684D-02  0.000000D+00  0.000000D+00
      3   0.000000D+00 -0.645187D-01  0.303060D-03  0.000000D+00  0.000000D+00
      4   0.160201D-02  0.000000D+00  0.000000D+00 -0.187301D-01 -0.485592D-02
      5   0.000000D+00 -0.398953D-01 -0.113930D-02  0.000000D+00  0.000000D+00
      6   0.000000D+00  0.183381D+00  0.367173D-02  0.000000D+00  0.000000D+00
      7  -0.140657D-03  0.000000D+00  0.000000D+00  0.584413D-01  0.789630D-02
      8  -0.760055D-02  0.000000D+00  0.000000D+00 -0.110739D-01  0.848165D-02
      9  -0.283167D-01  0.000000D+00  0.000000D+00  0.781232D-01  0.442818D-01
     10   0.000000D+00  0.266614D+00 -0.958744D-01  0.000000D+00  0.000000D+00
     11   0.000000D+00 -0.336470D-01  0.102695D+00  0.000000D+00  0.000000D+00
     12   0.000000D+00  0.167660D+00  0.171718D+00  0.000000D+00  0.000000D+00
     13   0.000000D+00 -0.106698D+00 -0.710338D-01  0.000000D+00  0.000000D+00
     14   0.000000D+00  0.305266D+00  0.589665D-01  0.000000D+00  0.000000D+00
     15   0.113928D+00  0.000000D+00  0.000000D+00 -0.387018D-01 -0.114883D+00
     16  -0.637865D-01  0.000000D+00  0.000000D+00 -0.240152D-01 -0.377501D-01
               636           637           638           639           640 
      1  -0.173943D+03 -0.173926D+03 -0.173897D+03 -0.173890D+03 -0.173888D+03
      2  -0.649352D-01  0.000000D+00  0.000000D+00  0.000000D+00 -0.639293D-01
      3   0.877539D-01  0.000000D+00  0.000000D+00  0.000000D+00  0.695487D-01
      4   0.000000D+00  0.444954D-01  0.108350D+00  0.433803D-02  0.000000D+00
      5   0.204772D+00  0.000000D+00  0.000000D+00  0.000000D+00  0.213255D+00
      6  -0.275909D+00  0.000000D+00  0.000000D+00  0.000000D+00 -0.230691D+00
      7   0.000000D+00 -0.146616D+00 -0.333416D+00 -0.110324D-01  0.000000D+00
      8   0.000000D+00  0.709574D-01  0.124796D+00 -0.350522D-01  0.000000D+00
      9   0.000000D+00 -0.303083D+00 -0.651604D+00 -0.802366D-01  0.000000D+00
     10   0.648674D+00  0.000000D+00  0.000000D+00  0.000000D+00  0.372360D+00
     11  -0.296333D+00  0.000000D+00  0.000000D+00  0.000000D+00 -0.624017D+00
     12   0.234791D-01  0.000000D+00  0.000000D+00  0.000000D+00  0.191924D+00
     13  -0.268648D-01  0.000000D+00  0.000000D+00  0.000000D+00 -0.794676D-01
     14   0.503323D+00  0.000000D+00  0.000000D+00  0.000000D+00  0.265272D+00
     15   0.000000D+00  0.278294D+00  0.533863D+00  0.242208D-01  0.000000D+00
     16   0.000000D+00  0.110225D+00 -0.546612D-01 -0.118694D+00  0.000000D+00
               641           642           643           644           645 
      1  -0.173870D+03 -0.173868D+03 -0.173852D+03 -0.173851D+03 -0.173831D+03
      2   0.000000D+00  0.132228D+00  0.000000D+00 -0.104640D+00 -0.648822D-01
      3   0.000000D+00  0.745340D-01  0.000000D+00  0.221137D+00  0.336007D-01
      4  -0.109659D+00  0.000000D+00 -0.160200D-01  0.000000D+00  0.000000D+00
      5   0.000000D+00 -0.432789D+00  0.000000D+00  0.353965D+00  0.213271D+00
      6   0.000000D+00 -0.258855D+00  0.000000D+00 -0.738033D+00 -0.119587D+00
      7   0.360289D+00  0.000000D+00  0.456097D-01  0.000000D+00  0.000000D+00
      8  -0.163863D+00  0.000000D+00 -0.139817D-01  0.000000D+00  0.000000D+00
      9   0.703104D+00  0.000000D+00  0.105833D+00  0.000000D+00  0.000000D+00
     10   0.000000D+00  0.381696D+00  0.000000D+00  0.140965D+01  0.837928D+00
     11   0.000000D+00  0.186166D+01  0.000000D+00 -0.186857D+01 -0.779718D+00
     12   0.000000D+00  0.326062D+00  0.000000D+00  0.554472D+00 -0.982836D-01
     13   0.000000D+00  0.118049D+00  0.000000D+00  0.101375D+00  0.106319D+00
     14   0.000000D+00  0.694134D+00  0.000000D+00  0.102585D+01  0.812134D+00
     15  -0.604581D+00  0.000000D+00  0.491029D-01  0.000000D+00  0.000000D+00
     16  -0.860657D-01  0.000000D+00 -0.939441D-01  0.000000D+00  0.000000D+00
               646           647           648           649           650 
      1  -0.173821D+03 -0.173800D+03 -0.173798D+03 -0.173752D+03 -0.173732D+03
      2  -0.197635D-01  0.000000D+00  0.104028D+00  0.651510D-01  0.624986D-02
      3   0.590510D-01  0.000000D+00 -0.171373D+00 -0.193307D+00 -0.536259D-01
      4   0.000000D+00  0.128246D+00  0.000000D+00  0.000000D+00  0.000000D+00
      5   0.532489D-01  0.000000D+00 -0.339325D+00 -0.220495D+00 -0.849599D-02
      6  -0.181454D+00  0.000000D+00  0.573699D+00  0.657294D+00  0.170192D+00
      7   0.000000D+00 -0.444476D+00  0.000000D+00  0.000000D+00  0.000000D+00
      8   0.000000D+00  0.231229D+00  0.000000D+00  0.000000D+00  0.000000D+00
      9   0.000000D+00 -0.930664D+00  0.000000D+00  0.000000D+00  0.000000D+00
     10   0.477650D-01  0.000000D+00 -0.122407D+01 -0.130078D+01 -0.176271D+00
     11   0.146448D-01  0.000000D+00  0.155965D+01  0.262697D-01 -0.379057D+00
     12  -0.320015D+00  0.000000D+00 -0.484323D+00 -0.728423D+00 -0.161809D-01
     13  -0.817635D-01  0.000000D+00  0.157114D+00  0.593698D-01 -0.211697D+00
     14   0.111489D+00  0.000000D+00 -0.847304D+00 -0.134137D+01 -0.280228D+00
     15   0.000000D+00  0.909297D+00  0.000000D+00  0.000000D+00  0.000000D+00
     16   0.000000D+00  0.218822D+00  0.000000D+00  0.000000D+00  0.000000D+00
               651           652           653           654           655 
      1  -0.173724D+03 -0.173722D+03 -0.173706D+03 -0.173669D+03 -0.173656D+03
      2   0.191633D+00  0.000000D+00  0.000000D+00 -0.620727D-02 -0.872729D-01
      3   0.564038D-01  0.000000D+00  0.000000D+00  0.205493D-02 -0.206260D+00
      4   0.000000D+00 -0.774959D-01 -0.292384D-01  0.000000D+00  0.000000D+00
      5  -0.680256D+00  0.000000D+00  0.000000D+00  0.208895D-01  0.327779D+00
      6  -0.208711D+00  0.000000D+00  0.000000D+00 -0.418720D-04  0.734391D+00
      7   0.000000D+00  0.276681D+00  0.999319D-01  0.000000D+00  0.000000D+00
      8   0.000000D+00 -0.129753D+00 -0.452004D-01  0.000000D+00  0.000000D+00
      9   0.000000D+00  0.602294D+00  0.166052D+00  0.000000D+00  0.000000D+00
     10  -0.700377D-01  0.000000D+00  0.000000D+00 -0.206346D+00 -0.161656D+01
     11   0.242535D+01  0.000000D+00  0.000000D+00 -0.815908D-01 -0.130346D+01
     12   0.483840D+00  0.000000D+00  0.000000D+00 -0.100837D+00 -0.823345D+00
     13  -0.884761D-01  0.000000D+00  0.000000D+00  0.186072D+00 -0.375045D-01
     14   0.688194D+00  0.000000D+00  0.000000D+00 -0.221722D+00 -0.205472D+01
     15   0.000000D+00 -0.638234D+00 -0.101371D+00  0.000000D+00  0.000000D+00
     16   0.000000D+00 -0.187735D+00 -0.208419D+00  0.000000D+00  0.000000D+00
               656           657           658           659           660 
      1  -0.173655D+03 -0.173608D+03 -0.173605D+03 -0.173563D+03 -0.173544D+03
      2   0.000000D+00 -0.206511D+00  0.000000D+00  0.431031D-01  0.100976D+00
      3   0.000000D+00 -0.225925D-01  0.000000D+00 -0.166180D-01 -0.176286D+00
      4   0.299552D+00  0.000000D+00 -0.255953D+00  0.000000D+00  0.000000D+00
      5   0.000000D+00  0.754884D+00  0.000000D+00 -0.149337D+00 -0.363525D+00
      6   0.000000D+00  0.890483D-01  0.000000D+00  0.464970D-01  0.634923D+00
      7  -0.106918D+01  0.000000D+00  0.901276D+00  0.000000D+00  0.000000D+00
      8   0.589928D+00  0.000000D+00 -0.453870D+00  0.000000D+00  0.000000D+00
      9  -0.236504D+01  0.000000D+00  0.186802D+01  0.000000D+00  0.000000D+00
     10   0.000000D+00  0.361664D+00  0.000000D+00 -0.256755D-01 -0.165415D+01
     11   0.000000D+00 -0.361323D+01  0.000000D+00  0.421409D+00  0.180255D+01
     12   0.000000D+00  0.135273D+00  0.000000D+00  0.219236D+00 -0.929682D+00
     13   0.000000D+00 -0.372414D-01  0.000000D+00  0.447627D-01 -0.501115D-02
     14   0.000000D+00 -0.419840D+00  0.000000D+00  0.108882D+00 -0.122932D+01
     15   0.250912D+01  0.000000D+00 -0.208982D+01  0.000000D+00  0.000000D+00
     16   0.705997D+00  0.000000D+00 -0.555636D+00  0.000000D+00  0.000000D+00
               661           662           663           664           665 
      1  -0.173537D+03 -0.173442D+03 -0.173423D+03 -0.173397D+03 -0.173387D+03
      2   0.000000D+00 -0.102955D+00 -0.854050D-01  0.918788D-01  0.214815D-02
      3   0.000000D+00  0.798230D-01  0.212722D-01 -0.211660D+00  0.932941D-01
      4  -0.258194D+00  0.000000D+00  0.000000D+00  0.000000D+00  0.000000D+00
      5   0.000000D+00  0.377689D+00  0.330184D+00 -0.350400D+00 -0.251660D-01
      6   0.000000D+00 -0.294044D+00 -0.642540D-01  0.791267D+00 -0.347048D+00
      7   0.923567D+00  0.000000D+00  0.000000D+00  0.000000D+00  0.000000D+00
      8  -0.356891D+00  0.000000D+00  0.000000D+00  0.000000D+00  0.000000D+00
      9   0.188082D+01  0.000000D+00  0.000000D+00  0.000000D+00  0.000000D+00
     10   0.000000D+00  0.822194D+00  0.359739D+00 -0.175429D+01  0.632504D+00
     11   0.000000D+00 -0.922452D+00 -0.186952D+01  0.169853D+01  0.519645D+00
     12   0.000000D+00  0.913028D-01  0.308305D-01 -0.801903D+00  0.323617D+00
     13   0.000000D+00 -0.938607D-02 -0.390109D-01 -0.102199D+00 -0.386928D+00
     14   0.000000D+00  0.541498D+00  0.509506D-01 -0.152204D+01  0.507792D+00
     15  -0.199323D+01  0.000000D+00  0.000000D+00  0.000000D+00  0.000000D+00
     16  -0.381003D+00  0.000000D+00  0.000000D+00  0.000000D+00  0.000000D+00
               666           667           668           669           670 
      1  -0.173337D+03 -0.173328D+03 -0.173282D+03 -0.173230D+03 -0.173201D+03
      2   0.000000D+00 -0.211015D+00  0.327312D-01  0.000000D+00  0.917495D-03
      3   0.000000D+00  0.120895D+00  0.195533D+00  0.000000D+00 -0.270140D-01
      4  -0.280686D+00  0.000000D+00  0.000000D+00 -0.625311D-02  0.000000D+00
      5   0.000000D+00  0.809363D+00 -0.129872D+00  0.000000D+00  0.794467D-03
      6   0.000000D+00 -0.464715D+00 -0.758642D+00  0.000000D+00  0.105651D+00
      7   0.107225D+01  0.000000D+00  0.000000D+00  0.245056D-01  0.000000D+00
      8  -0.559538D+00  0.000000D+00  0.000000D+00 -0.100374D-01  0.000000D+00
      9   0.231047D+01  0.000000D+00  0.000000D+00  0.517269D-01  0.000000D+00
     10   0.000000D+00  0.134518D+01  0.174534D+01  0.000000D+00 -0.215440D+00
     11   0.000000D+00 -0.360917D+01 -0.219154D+00  0.000000D+00  0.113149D+00
     12   0.000000D+00  0.900651D+00  0.951102D+00  0.000000D+00  0.543614D+00
     13   0.000000D+00 -0.415511D-01  0.353102D-01  0.000000D+00 -0.621625D+00
     14   0.000000D+00  0.793428D+00  0.166752D+01  0.000000D+00 -0.480097D+00
     15  -0.258109D+01  0.000000D+00  0.000000D+00 -0.419518D+00  0.000000D+00
     16  -0.760686D+00  0.000000D+00  0.000000D+00  0.656727D+00  0.000000D+00
               671           672           673           674           675 
      1  -0.173178D+03 -0.173149D+03 -0.173088D+03 -0.172974D+03 -0.172642D+03
      2  -0.248725D+00  0.000000D+00 -0.763556D-01  0.360364D-01 -0.270623D-01
      3  -0.143657D+00  0.000000D+00 -0.551470D-01 -0.391404D-01 -0.148729D-01
      4   0.000000D+00 -0.884742D-01  0.000000D+00  0.000000D+00  0.000000D+00
      5   0.107002D+01  0.000000D+00  0.380519D+00 -0.159305D+00  0.194492D+00
      6   0.620078D+00  0.000000D+00  0.270923D+00  0.162315D+00  0.112815D+00
      7   0.000000D+00  0.340305D+00  0.000000D+00  0.000000D+00  0.000000D+00
      8   0.000000D+00 -0.158855D+00  0.000000D+00  0.000000D+00  0.000000D+00
      9   0.000000D+00  0.701659D+00  0.000000D+00  0.000000D+00  0.000000D+00
     10  -0.790560D+00  0.000000D+00 -0.396220D+00 -0.506224D+00 -0.163967D+00
     11  -0.479793D+01  0.000000D+00 -0.224370D+01  0.373786D+00 -0.558853D+00
     12  -0.495851D+00  0.000000D+00 -0.640060D+00  0.909234D-01 -0.125234D+00
     13   0.696735D-01  0.000000D+00  0.129203D+00  0.436829D-01 -0.160782D+00
     14  -0.204068D+01  0.000000D+00 -0.129314D+01 -0.872055D-01 -0.673617D-01
     15   0.000000D+00 -0.212510D+00  0.000000D+00  0.000000D+00  0.000000D+00
     16   0.000000D+00  0.854213D-01  0.000000D+00  0.000000D+00  0.000000D+00
 Unable to Open any file for archive entry.
 1\1\GINC-HEL11\SP\RBLYP TD-FC\Gen\C2H3F1\SABYASACHI\21-Mar-2022\0\\#P 
 TD(Nstates=10000) blyp/Gen SCF(maxcycles=100) Int(Grid=ultrafine)\\xGD
 B7_00001_tier4.com\\0,1\F,0,-1.139724,-0.269725,0.\C,0,0.,0.430281,0.\
 C,0,1.180852,-0.14876,0.\H,0,-0.18045,1.498331,0.\H,0,1.283634,-1.2251
 7,0.\H,0,2.069222,0.465238,0.\\Version=EM64L-G16RevC.01\State=1-A'\HF=
 -177.6577224\RMSD=4.152e-09\PG=CS [SG(C2H3F1)]\\@
 The archive entry for this job was punched.


 IF IT HAPPENS, IT MUST BE POSSIBLE.

 -- THE UNNAMED LAW FROM PAUL DICKSON'S 
    "THE OFFICIAL RULES"
 Job cpu time:       0 days  0 hours  7 minutes  5.3 seconds.
 Elapsed time:       0 days  0 hours  0 minutes 53.4 seconds.
 File lengths (MBytes):  RWF=    227 Int=      0 D2E=      0 Chk=    127 Scr=      1
 Normal termination of Gaussian 16 at Mon Mar 21 20:04:13 2022.
