 Entering Gaussian System, Link 0=g16
 Input=000021.com
 Output=000021.log
 Initial command:
 /home/sabyasachi/g16/l1.exe "/scratch/sabyasachi/PBS_7975924.helios/Gau-153340.inp" -scrdir="/scratch/sabyasachi/PBS_7975924.helios/"
 Entering Link 1 = /home/sabyasachi/g16/l1.exe PID=    153341.
  
 Copyright (c) 1988-2019, Gaussian, Inc.  All Rights Reserved.
  
 This is part of the Gaussian(R) 16 program.  It is based on
 the Gaussian(R) 09 system (copyright 2009, Gaussian, Inc.),
 the Gaussian(R) 03 system (copyright 2003, Gaussian, Inc.),
 the Gaussian(R) 98 system (copyright 1998, Gaussian, Inc.),
 the Gaussian(R) 94 system (copyright 1995, Gaussian, Inc.),
 the Gaussian 92(TM) system (copyright 1992, Gaussian, Inc.),
 the Gaussian 90(TM) system (copyright 1990, Gaussian, Inc.),
 the Gaussian 88(TM) system (copyright 1988, Gaussian, Inc.),
 the Gaussian 86(TM) system (copyright 1986, Carnegie Mellon
 University), and the Gaussian 82(TM) system (copyright 1983,
 Carnegie Mellon University). Gaussian is a federally registered
 trademark of Gaussian, Inc.
  
 This software contains proprietary and confidential information,
 including trade secrets, belonging to Gaussian, Inc.
  
 This software is provided under written license and may be
 used, copied, transmitted, or stored only in accord with that
 written license.
  
 The following legend is applicable only to US Government
 contracts under FAR:
  
                    RESTRICTED RIGHTS LEGEND
  
 Use, reproduction and disclosure by the US Government is
 subject to restrictions as set forth in subparagraphs (a)
 and (c) of the Commercial Computer Software - Restricted
 Rights clause in FAR 52.227-19.
  
 Gaussian, Inc.
 340 Quinnipiac St., Bldg. 40, Wallingford CT 06492
  
  
 ---------------------------------------------------------------
 Warning -- This program may not be used in any manner that
 competes with the business of Gaussian, Inc. or will provide
 assistance to any competitor of Gaussian, Inc.  The licensee
 of this program is prohibited from giving any competitor of
 Gaussian, Inc. access to this program.  By using this program,
 the user acknowledges that Gaussian, Inc. is engaged in the
 business of creating and licensing software in the field of
 computational chemistry and represents and warrants to the
 licensee that it is not a competitor of Gaussian, Inc. and that
 it will not use this program in any manner prohibited above.
 ---------------------------------------------------------------
  

 Cite this work as:
 Gaussian 16, Revision C.01,
 M. J. Frisch, G. W. Trucks, H. B. Schlegel, G. E. Scuseria, 
 M. A. Robb, J. R. Cheeseman, G. Scalmani, V. Barone, 
 G. A. Petersson, H. Nakatsuji, X. Li, M. Caricato, A. V. Marenich, 
 J. Bloino, B. G. Janesko, R. Gomperts, B. Mennucci, H. P. Hratchian, 
 J. V. Ortiz, A. F. Izmaylov, J. L. Sonnenberg, D. Williams-Young, 
 F. Ding, F. Lipparini, F. Egidi, J. Goings, B. Peng, A. Petrone, 
 T. Henderson, D. Ranasinghe, V. G. Zakrzewski, J. Gao, N. Rega, 
 G. Zheng, W. Liang, M. Hada, M. Ehara, K. Toyota, R. Fukuda, 
 J. Hasegawa, M. Ishida, T. Nakajima, Y. Honda, O. Kitao, H. Nakai, 
 T. Vreven, K. Throssell, J. A. Montgomery, Jr., J. E. Peralta, 
 F. Ogliaro, M. J. Bearpark, J. J. Heyd, E. N. Brothers, K. N. Kudin, 
 V. N. Staroverov, T. A. Keith, R. Kobayashi, J. Normand, 
 K. Raghavachari, A. P. Rendell, J. C. Burant, S. S. Iyengar, 
 J. Tomasi, M. Cossi, J. M. Millam, M. Klene, C. Adamo, R. Cammi, 
 J. W. Ochterski, R. L. Martin, K. Morokuma, O. Farkas, 
 J. B. Foresman, and D. J. Fox, Gaussian, Inc., Wallingford CT, 2019.
 
 ******************************************
 Gaussian 16:  EM64L-G16RevC.01  3-Jul-2019
                21-Mar-2022 
 ******************************************
 %mem=64gb
 %nproc=8
 Will use up to    8 processors via shared memory.
 --------------------------------------------------------------------
 #P TD(Nstates=10000) blyp/Gen SCF(maxcycles=100) Int(Grid=ultrafine)
 --------------------------------------------------------------------
 1/38=1,172=1/1;
 2/12=2,17=6,18=5,40=1/2;
 3/5=7,11=9,25=1,30=1,74=402,75=-5/1,2,3,8;
 4//1;
 5/5=2,7=100,38=5/2;
 8/6=1,10=1,108=10000/1;
 9/41=10000,42=1,70=2/14;
 6/7=2,8=2,9=2,10=2/1;
 99/5=1,9=1/99;
 Leave Link    1 at Mon Mar 21 20:06:32 2022, MaxMem=  8589934592 cpu:               0.4 elap:               0.1
 (Enter /home/sabyasachi/g16/l101.exe)
 ---------------------
 xGDB7_00001_tier4.com
 ---------------------
 Symbolic Z-matrix:
 Charge =  0 Multiplicity = 1
 6                    -1.13157  -0.50439   0. 
 6                     0.        0.47222   0. 
 6                     1.28414   0.15079   0. 
 1                    -1.76745  -0.36278   0.8777 
 1                    -0.77012  -1.53346   0. 
 1                    -1.76745  -0.36278  -0.8777 
 1                    -0.27655   1.52347   0. 
 1                     1.60844  -0.88456   0. 
 1                     2.05775   0.90833   0. 
 
 ITRead=  0  0  0  0  0  0  0  0  0
 MicOpt= -1 -1 -1 -1 -1 -1 -1 -1 -1
 NAtoms=      9 NQM=        9 NQMF=       0 NMMI=      0 NMMIF=      0
                NMic=       0 NMicF=      0.
                    Isotopes and Nuclear Properties:
 (Nuclear quadrupole moments (NQMom) in fm**2, nuclear magnetic moments (NMagM)
  in nuclear magnetons)

  Atom         1           2           3           4           5           6           7           8           9
 IAtWgt=          12          12          12           1           1           1           1           1           1
 AtmWgt=  12.0000000  12.0000000  12.0000000   1.0078250   1.0078250   1.0078250   1.0078250   1.0078250   1.0078250
 NucSpn=           0           0           0           1           1           1           1           1           1
 AtZEff=  -0.0000000  -0.0000000  -0.0000000  -0.0000000  -0.0000000  -0.0000000  -0.0000000  -0.0000000  -0.0000000
 NQMom=    0.0000000   0.0000000   0.0000000   0.0000000   0.0000000   0.0000000   0.0000000   0.0000000   0.0000000
 NMagM=    0.0000000   0.0000000   0.0000000   2.7928460   2.7928460   2.7928460   2.7928460   2.7928460   2.7928460
 AtZNuc=   6.0000000   6.0000000   6.0000000   1.0000000   1.0000000   1.0000000   1.0000000   1.0000000   1.0000000
 Leave Link  101 at Mon Mar 21 20:06:33 2022, MaxMem=  8589934592 cpu:               0.7 elap:               0.1
 (Enter /home/sabyasachi/g16/l202.exe)
                          Input orientation:                          
 ---------------------------------------------------------------------
 Center     Atomic      Atomic             Coordinates (Angstroms)
 Number     Number       Type             X           Y           Z
 ---------------------------------------------------------------------
      1          6           0       -1.131573   -0.504386    0.000000
      2          6           0        0.000000    0.472223    0.000000
      3          6           0        1.284136    0.150792    0.000000
      4          1           0       -1.767446   -0.362775    0.877699
      5          1           0       -0.770123   -1.533458    0.000000
      6          1           0       -1.767446   -0.362775   -0.877699
      7          1           0       -0.276551    1.523465    0.000000
      8          1           0        1.608435   -0.884556    0.000000
      9          1           0        2.057749    0.908326    0.000000
 ---------------------------------------------------------------------
                    Distance matrix (angstroms):
                    1          2          3          4          5
     1  C    0.000000
     2  C    1.494732   0.000000
     3  C    2.502980   1.323753   0.000000
     4  H    1.093043   2.142765   3.216560   0.000000
     5  H    1.090704   2.148452   2.656441   1.770736   0.000000
     6  H    1.093043   2.142765   3.216560   1.755398   1.770736
     7  H    2.200737   1.087010   2.078455   2.559497   3.096513
     8  H    2.766256   2.104261   1.084949   3.526923   2.465484
     9  H    3.488199   2.103454   1.082744   4.125308   3.736197
                    6          7          8          9
     6  H    0.000000
     7  H    2.559497   0.000000
     8  H    3.526923   3.058061   0.000000
     9  H    4.125308   2.413991   1.848326   0.000000
 Stoichiometry    C3H6
 Framework group  CS[SG(C3H4),X(H2)]
 Deg. of freedom    14
 Full point group                 CS      NOp   2
 Largest Abelian subgroup         CS      NOp   2
 Largest concise Abelian subgroup CS      NOp   2
                         Standard orientation:                         
 ---------------------------------------------------------------------
 Center     Atomic      Atomic             Coordinates (Angstroms)
 Number     Number       Type             X           Y           Z
 ---------------------------------------------------------------------
      1          6           0       -1.131573   -0.504386    0.000000
      2          6           0        0.000000    0.472223    0.000000
      3          6           0        1.284136    0.150792    0.000000
      4          1           0       -1.767446   -0.362776    0.877699
      5          1           0       -0.770122   -1.533458    0.000000
      6          1           0       -1.767446   -0.362776   -0.877699
      7          1           0       -0.276551    1.523465    0.000000
      8          1           0        1.608435   -0.884555    0.000000
      9          1           0        2.057749    0.908327    0.000000
 ---------------------------------------------------------------------
 Rotational constants (GHZ):          47.1476739           9.3674147           8.2089652
 Leave Link  202 at Mon Mar 21 20:06:33 2022, MaxMem=  8589934592 cpu:               0.1 elap:               0.0
 (Enter /home/sabyasachi/g16/l301.exe)
 General basis read from cards:  (5D, 7F)
 Centers:       4      5      6      7      8      9
 S 3 1.00
     Exponent=  1.3010701000D+01 Coefficients=  1.9682158000D-02
     Exponent=  1.9622572000D+00 Coefficients=  1.3796524000D-01
     Exponent=  4.4453796000D-01 Coefficients=  4.7831935000D-01
 S 1 1.00
     Exponent=  1.2194962000D-01 Coefficients=  1.0000000000D+00
 P 1 1.00
     Exponent=  8.0000000000D-01 Coefficients=  1.0000000000D+00
 P 1 1.00
     Exponent=  1.1704099050D-01 Coefficients=  1.0000000000D+00
 ****
 Centers:       1      2      3
 S 5 1.00
     Exponent=  1.2384016938D+03 Coefficients=  5.4568832082D-03
     Exponent=  1.8629004992D+02 Coefficients=  4.0638409211D-02
     Exponent=  4.2251176346D+01 Coefficients=  1.8025593888D-01
     Exponent=  1.1676557932D+01 Coefficients=  4.6315121755D-01
     Exponent=  3.5930506482D+00 Coefficients=  4.4087173314D-01
 S 1 1.00
     Exponent=  4.0245147363D-01 Coefficients=  1.0000000000D+00
 S 1 1.00
     Exponent=  1.3090182668D-01 Coefficients=  1.0000000000D+00
 S 1 1.00
     Exponent=  6.7053540256D-02 Coefficients=  1.0000000000D+00
 P 3 1.00
     Exponent=  9.4680970621D+00 Coefficients=  3.8387871728D-02
     Exponent=  2.0103545142D+00 Coefficients=  2.1117025112D-01
     Exponent=  5.4771004707D-01 Coefficients=  5.1328172114D-01
 P 1 1.00
     Exponent=  1.5268613795D-01 Coefficients=  1.0000000000D+00
 D 1 1.00
     Exponent=  8.0000000000D-01 Coefficients=  1.0000000000D+00
 D 1 1.00
     Exponent=  1.1713185140D-01 Coefficients=  1.0000000000D+00
 ****
 Ernie: Thresh=  0.10000D-02 Tol=  0.10000D-05 Strict=F.
 There are    80 symmetry adapted cartesian basis functions of A'  symmetry.
 There are    34 symmetry adapted cartesian basis functions of A"  symmetry.
 There are    74 symmetry adapted basis functions of A'  symmetry.
 There are    34 symmetry adapted basis functions of A"  symmetry.
   108 basis functions,   156 primitive gaussians,   114 cartesian basis functions
    12 alpha electrons       12 beta electrons
       nuclear repulsion energy        70.9801488057 Hartrees.
 IExCor=  402 DFT=T Ex=B Corr=LYP ExCW=0 ScaHFX=  0.000000
 ScaDFX=  1.000000  1.000000  1.000000  1.000000 ScalE2=  1.000000  1.000000
 IRadAn=      5 IRanWt=     -1 IRanGd=            0 ICorTp=0 IEmpDi=  4
 NAtoms=    9 NActive=    9 NUniq=    8 SFac= 1.27D+00 NAtFMM=   60 NAOKFM=F Big=F
 Integral buffers will be    131072 words long.
 Regular integral format.
 Two-electron integral symmetry is turned on.
 Leave Link  301 at Mon Mar 21 20:06:33 2022, MaxMem=  8589934592 cpu:               0.5 elap:               0.1
 (Enter /home/sabyasachi/g16/l302.exe)
 NPDir=0 NMtPBC=     1 NCelOv=     1 NCel=       1 NClECP=     1 NCelD=      1
         NCelK=      1 NCelE2=     1 NClLst=     1 CellRange=     0.0.
 One-electron integrals computed using PRISM.
 One-electron integral symmetry used in STVInt
 NBasis=   108 RedAO= T EigKep=  8.08D-05  NBF=    74    34
 NBsUse=   108 1.00D-06 EigRej= -1.00D+00 NBFU=    74    34
 Precomputing XC quadrature grid using
 IXCGrd= 4 IRadAn=           5 IRanWt=          -1 IRanGd=           0 AccXCQ= 0.00D+00.
 Generated NRdTot=       0 NPtTot=           0 NUsed=           0 NTot=          32
 NSgBfM=   114   114   114   114   114 MxSgAt=     9 MxSgA2=     9.
 Leave Link  302 at Mon Mar 21 20:06:33 2022, MaxMem=  8589934592 cpu:               1.1 elap:               0.2
 (Enter /home/sabyasachi/g16/l303.exe)
 DipDrv:  MaxL=1.
 Leave Link  303 at Mon Mar 21 20:06:33 2022, MaxMem=  8589934592 cpu:               0.2 elap:               0.0
 (Enter /home/sabyasachi/g16/l308.exe)
 Leave Link  308 at Mon Mar 21 20:06:33 2022, MaxMem=  8589934592 cpu:               0.2 elap:               0.0
 (Enter /home/sabyasachi/g16/l401.exe)
 ExpMin= 6.71D-02 ExpMax= 1.24D+03 ExpMxC= 1.86D+02 IAcc=3 IRadAn=         5 AccDes= 0.00D+00
 Harris functional with IExCor=  402 and IRadAn=       5 diagonalized for initial guess.
 HarFok:  IExCor=  402 AccDes= 0.00D+00 IRadAn=         5 IDoV= 1 UseB2=F ITyADJ=14
 ICtDFT=  3500011 ScaDFX=  1.000000  1.000000  1.000000  1.000000
 FoFCou: FMM=F IPFlag=           0 FMFlag=      100000 FMFlg1=           0
         NFxFlg=           0 DoJE=T BraDBF=F KetDBF=T FulRan=T
         wScrn=  0.000000 ICntrl=       500 IOpCl=  0 I1Cent=   200000004 NGrid=           0
         NMat0=    1 NMatS0=      1 NMatT0=    0 NMatD0=    1 NMtDS0=    0 NMtDT0=    0
 Petite list used in FoFCou.
 Harris En= -117.873168884197    
 JPrj=0 DoOrth=F DoCkMO=F.
 Initial guess orbital symmetries:
       Occupied  (A') (A') (A') (A') (A') (A') (A') (A') (A") (A')
                 (A') (A")
       Virtual   (A") (A') (A') (A') (A') (A") (A') (A') (A') (A")
                 (A') (A") (A') (A') (A') (A") (A") (A') (A') (A")
                 (A') (A') (A") (A') (A') (A') (A") (A") (A') (A')
                 (A') (A') (A") (A') (A') (A') (A') (A") (A') (A")
                 (A") (A') (A') (A") (A') (A") (A') (A') (A") (A')
                 (A') (A') (A") (A') (A') (A") (A') (A') (A') (A')
                 (A') (A') (A') (A") (A") (A") (A") (A") (A') (A')
                 (A') (A") (A') (A') (A") (A') (A') (A") (A') (A")
                 (A') (A') (A') (A") (A") (A') (A') (A') (A") (A')
                 (A') (A') (A") (A') (A') (A')
 The electronic state of the initial guess is 1-A'.
 Leave Link  401 at Mon Mar 21 20:06:33 2022, MaxMem=  8589934592 cpu:               2.2 elap:               0.3
 (Enter /home/sabyasachi/g16/l502.exe)
 Keep J ints in memory in symmetry-blocked form, NReq=26186371.
 FoFCou: FMM=F IPFlag=           0 FMFlag=           0 FMFlg1=           0
         NFxFlg=           0 DoJE=F BraDBF=F KetDBF=F FulRan=T
         wScrn=  0.000000 ICntrl=       600 IOpCl=  0 I1Cent=           0 NGrid=           0
         NMat0=    1 NMatS0=   5886 NMatT0=    0 NMatD0=    1 NMtDS0=    0 NMtDT0=    0
 Petite list used in FoFCou.
 Closed shell SCF:
 Using DIIS extrapolation, IDIIS=  1040.
 NGot=  8589934592 LenX=  8581046321 LenY=  8581032884
 Requested convergence on RMS density matrix=1.00D-08 within 100 cycles.
 Requested convergence on MAX density matrix=1.00D-06.
 Requested convergence on             energy=1.00D-06.
 No special actions if energy rises.
 Integral accuracy reduced to 1.0D-05 until final iterations.

 Cycle   1  Pass 0  IDiag  1:
 E= -117.624104741342    
 DIIS: error= 3.22D-02 at cycle   1 NSaved=   1.
 NSaved= 1 IEnMin= 1 EnMin= -117.624104741342     IErMin= 1 ErrMin= 3.22D-02
 ErrMax= 3.22D-02  0.00D+00 EMaxC= 1.00D-01 BMatC= 1.07D-01 BMatP= 1.07D-01
 IDIUse=3 WtCom= 6.78D-01 WtEn= 3.22D-01
 Coeff-Com:  0.100D+01
 Coeff-En:   0.100D+01
 Coeff:      0.100D+01
 Gap=     0.137 Goal=   None    Shift=    0.000
 GapD=    0.137 DampG=1.000 DampE=0.500 DampFc=0.5000 IDamp=-1.
 Damping current iteration by 5.00D-01
 RMSDP=1.03D-02 MaxDP=2.14D-01              OVMax= 2.26D-01

 Cycle   2  Pass 0  IDiag  1:
 E= -117.661835415253     Delta-E=       -0.037730673911 Rises=F Damp=T
 DIIS: error= 1.01D-02 at cycle   2 NSaved=   2.
 NSaved= 2 IEnMin= 2 EnMin= -117.661835415253     IErMin= 2 ErrMin= 1.01D-02
 ErrMax= 1.01D-02  0.00D+00 EMaxC= 1.00D-01 BMatC= 8.53D-03 BMatP= 1.07D-01
 IDIUse=3 WtCom= 8.99D-01 WtEn= 1.01D-01
 Coeff-Com:  0.199D+00 0.801D+00
 Coeff-En:   0.337D+00 0.663D+00
 Coeff:      0.213D+00 0.787D+00
 Gap=     0.215 Goal=   None    Shift=    0.000
 RMSDP=2.30D-03 MaxDP=4.80D-02 DE=-3.77D-02 OVMax= 1.41D-01

 Cycle   3  Pass 0  IDiag  1:
 E= -117.751543867568     Delta-E=       -0.089708452314 Rises=F Damp=F
 DIIS: error= 3.05D-03 at cycle   3 NSaved=   3.
 NSaved= 3 IEnMin= 3 EnMin= -117.751543867568     IErMin= 3 ErrMin= 3.05D-03
 ErrMax= 3.05D-03  0.00D+00 EMaxC= 1.00D-01 BMatC= 6.59D-04 BMatP= 8.53D-03
 IDIUse=3 WtCom= 9.70D-01 WtEn= 3.05D-02
 Coeff-Com:  0.570D-01 0.265D+00 0.678D+00
 Coeff-En:   0.000D+00 0.000D+00 0.100D+01
 Coeff:      0.552D-01 0.257D+00 0.688D+00
 Gap=     0.207 Goal=   None    Shift=    0.000
 RMSDP=8.77D-04 MaxDP=1.30D-02 DE=-8.97D-02 OVMax= 2.09D-02

 Cycle   4  Pass 0  IDiag  1:
 E= -117.751698752299     Delta-E=       -0.000154884732 Rises=F Damp=F
 DIIS: error= 2.58D-03 at cycle   4 NSaved=   4.
 NSaved= 4 IEnMin= 4 EnMin= -117.751698752299     IErMin= 4 ErrMin= 2.58D-03
 ErrMax= 2.58D-03  0.00D+00 EMaxC= 1.00D-01 BMatC= 5.24D-04 BMatP= 6.59D-04
 IDIUse=3 WtCom= 9.74D-01 WtEn= 2.58D-02
 Coeff-Com:  0.190D-01 0.110D+00 0.463D+00 0.408D+00
 Coeff-En:   0.000D+00 0.000D+00 0.444D+00 0.556D+00
 Coeff:      0.185D-01 0.107D+00 0.462D+00 0.412D+00
 Gap=     0.207 Goal=   None    Shift=    0.000
 RMSDP=2.73D-04 MaxDP=9.46D-03 DE=-1.55D-04 OVMax= 1.91D-02

 Cycle   5  Pass 0  IDiag  1:
 E= -117.752183250336     Delta-E=       -0.000484498037 Rises=F Damp=F
 DIIS: error= 8.69D-04 at cycle   5 NSaved=   5.
 NSaved= 5 IEnMin= 5 EnMin= -117.752183250336     IErMin= 5 ErrMin= 8.69D-04
 ErrMax= 8.69D-04  0.00D+00 EMaxC= 1.00D-01 BMatC= 6.72D-05 BMatP= 5.24D-04
 IDIUse=3 WtCom= 9.91D-01 WtEn= 8.69D-03
 Coeff-Com:  0.159D-02 0.225D-01 0.172D+00 0.288D+00 0.516D+00
 Coeff-En:   0.000D+00 0.000D+00 0.000D+00 0.159D+00 0.841D+00
 Coeff:      0.158D-02 0.223D-01 0.170D+00 0.286D+00 0.519D+00
 Gap=     0.207 Goal=   None    Shift=    0.000
 RMSDP=1.40D-04 MaxDP=3.29D-03 DE=-4.84D-04 OVMax= 5.91D-03

 Cycle   6  Pass 0  IDiag  1:
 E= -117.752259634127     Delta-E=       -0.000076383790 Rises=F Damp=F
 DIIS: error= 1.61D-04 at cycle   6 NSaved=   6.
 NSaved= 6 IEnMin= 6 EnMin= -117.752259634127     IErMin= 6 ErrMin= 1.61D-04
 ErrMax= 1.61D-04  0.00D+00 EMaxC= 1.00D-01 BMatC= 2.50D-06 BMatP= 6.72D-05
 IDIUse=3 WtCom= 9.98D-01 WtEn= 1.61D-03
 Coeff-Com: -0.272D-03 0.527D-02 0.672D-01 0.134D+00 0.288D+00 0.506D+00
 Coeff-En:   0.000D+00 0.000D+00 0.000D+00 0.000D+00 0.000D+00 0.100D+01
 Coeff:     -0.272D-03 0.526D-02 0.671D-01 0.133D+00 0.287D+00 0.507D+00
 Gap=     0.207 Goal=   None    Shift=    0.000
 RMSDP=2.75D-05 MaxDP=6.07D-04 DE=-7.64D-05 OVMax= 5.44D-04

 Cycle   7  Pass 0  IDiag  1:
 E= -117.752262216652     Delta-E=       -0.000002582525 Rises=F Damp=F
 DIIS: error= 2.46D-05 at cycle   7 NSaved=   7.
 NSaved= 7 IEnMin= 7 EnMin= -117.752262216652     IErMin= 7 ErrMin= 2.46D-05
 ErrMax= 2.46D-05  0.00D+00 EMaxC= 1.00D-01 BMatC= 1.05D-07 BMatP= 2.50D-06
 IDIUse=1 WtCom= 1.00D+00 WtEn= 0.00D+00
 Coeff-Com: -0.149D-03 0.432D-03 0.155D-01 0.356D-01 0.861D-01 0.230D+00
 Coeff-Com:  0.633D+00
 Coeff:     -0.149D-03 0.432D-03 0.155D-01 0.356D-01 0.861D-01 0.230D+00
 Coeff:      0.633D+00
 Gap=     0.207 Goal=   None    Shift=    0.000
 RMSDP=7.76D-06 MaxDP=1.50D-04 DE=-2.58D-06 OVMax= 1.09D-04

 Initial convergence to 1.0D-05 achieved.  Increase integral accuracy.
 Cycle   8  Pass 1  IDiag  1:
 E= -117.752251842827     Delta-E=        0.000010373825 Rises=F Damp=F
 DIIS: error= 7.52D-06 at cycle   1 NSaved=   1.
 NSaved= 1 IEnMin= 1 EnMin= -117.752251842827     IErMin= 1 ErrMin= 7.52D-06
 ErrMax= 7.52D-06  0.00D+00 EMaxC= 1.00D-01 BMatC= 6.82D-09 BMatP= 6.82D-09
 IDIUse=1 WtCom= 1.00D+00 WtEn= 0.00D+00
 Coeff-Com:  0.100D+01
 Coeff:      0.100D+01
 Gap=     0.207 Goal=   None    Shift=    0.000
 RMSDP=7.76D-06 MaxDP=1.50D-04 DE= 1.04D-05 OVMax= 9.55D-05

 Cycle   9  Pass 1  IDiag  1:
 E= -117.752251848890     Delta-E=       -0.000000006063 Rises=F Damp=F
 DIIS: error= 7.38D-06 at cycle   2 NSaved=   2.
 NSaved= 2 IEnMin= 2 EnMin= -117.752251848890     IErMin= 2 ErrMin= 7.38D-06
 ErrMax= 7.38D-06  0.00D+00 EMaxC= 1.00D-01 BMatC= 6.56D-09 BMatP= 6.82D-09
 IDIUse=1 WtCom= 1.00D+00 WtEn= 0.00D+00
 Coeff-Com:  0.494D+00 0.506D+00
 Coeff:      0.494D+00 0.506D+00
 Gap=     0.207 Goal=   None    Shift=    0.000
 RMSDP=1.75D-06 MaxDP=3.76D-05 DE=-6.06D-09 OVMax= 6.90D-05

 Cycle  10  Pass 1  IDiag  1:
 E= -117.752251854216     Delta-E=       -0.000000005326 Rises=F Damp=F
 DIIS: error= 5.00D-06 at cycle   3 NSaved=   3.
 NSaved= 3 IEnMin= 3 EnMin= -117.752251854216     IErMin= 3 ErrMin= 5.00D-06
 ErrMax= 5.00D-06  0.00D+00 EMaxC= 1.00D-01 BMatC= 2.22D-09 BMatP= 6.56D-09
 IDIUse=1 WtCom= 1.00D+00 WtEn= 0.00D+00
 Coeff-Com:  0.157D+00 0.352D+00 0.491D+00
 Coeff:      0.157D+00 0.352D+00 0.491D+00
 Gap=     0.207 Goal=   None    Shift=    0.000
 RMSDP=5.49D-07 MaxDP=1.93D-05 DE=-5.33D-09 OVMax= 3.98D-05

 Cycle  11  Pass 1  IDiag  1:
 E= -117.752251856156     Delta-E=       -0.000000001940 Rises=F Damp=F
 DIIS: error= 2.33D-06 at cycle   4 NSaved=   4.
 NSaved= 4 IEnMin= 4 EnMin= -117.752251856156     IErMin= 4 ErrMin= 2.33D-06
 ErrMax= 2.33D-06  0.00D+00 EMaxC= 1.00D-01 BMatC= 4.26D-10 BMatP= 2.22D-09
 IDIUse=1 WtCom= 1.00D+00 WtEn= 0.00D+00
 Coeff-Com:  0.208D-01 0.159D+00 0.344D+00 0.476D+00
 Coeff:      0.208D-01 0.159D+00 0.344D+00 0.476D+00
 Gap=     0.207 Goal=   None    Shift=    0.000
 RMSDP=2.69D-07 MaxDP=5.77D-06 DE=-1.94D-09 OVMax= 1.20D-05

 Cycle  12  Pass 1  IDiag  1:
 E= -117.752251856607     Delta-E=       -0.000000000450 Rises=F Damp=F
 DIIS: error= 4.10D-07 at cycle   5 NSaved=   5.
 NSaved= 5 IEnMin= 5 EnMin= -117.752251856607     IErMin= 5 ErrMin= 4.10D-07
 ErrMax= 4.10D-07  0.00D+00 EMaxC= 1.00D-01 BMatC= 1.77D-11 BMatP= 4.26D-10
 IDIUse=1 WtCom= 1.00D+00 WtEn= 0.00D+00
 Coeff-Com: -0.283D-02 0.554D-01 0.135D+00 0.254D+00 0.558D+00
 Coeff:     -0.283D-02 0.554D-01 0.135D+00 0.254D+00 0.558D+00
 Gap=     0.207 Goal=   None    Shift=    0.000
 RMSDP=9.54D-08 MaxDP=2.81D-06 DE=-4.50D-10 OVMax= 1.64D-06

 Cycle  13  Pass 1  IDiag  1:
 E= -117.752251856625     Delta-E=       -0.000000000018 Rises=F Damp=F
 DIIS: error= 4.19D-08 at cycle   6 NSaved=   6.
 NSaved= 6 IEnMin= 6 EnMin= -117.752251856625     IErMin= 6 ErrMin= 4.19D-08
 ErrMax= 4.19D-08  0.00D+00 EMaxC= 1.00D-01 BMatC= 2.16D-13 BMatP= 1.77D-11
 IDIUse=1 WtCom= 1.00D+00 WtEn= 0.00D+00
 Coeff-Com: -0.134D-02 0.187D-01 0.452D-01 0.878D-01 0.227D+00 0.623D+00
 Coeff:     -0.134D-02 0.187D-01 0.452D-01 0.878D-01 0.227D+00 0.623D+00
 Gap=     0.207 Goal=   None    Shift=    0.000
 RMSDP=1.27D-08 MaxDP=1.67D-07 DE=-1.84D-11 OVMax= 1.48D-07

 Cycle  14  Pass 1  IDiag  1:
 E= -117.752251856625     Delta-E=       -0.000000000000 Rises=F Damp=F
 DIIS: error= 8.68D-09 at cycle   7 NSaved=   7.
 NSaved= 7 IEnMin= 7 EnMin= -117.752251856625     IErMin= 7 ErrMin= 8.68D-09
 ErrMax= 8.68D-09  0.00D+00 EMaxC= 1.00D-01 BMatC= 5.21D-15 BMatP= 2.16D-13
 IDIUse=1 WtCom= 1.00D+00 WtEn= 0.00D+00
 Coeff-Com: -0.263D-03 0.409D-02 0.959D-02 0.186D-01 0.542D-01 0.193D+00
 Coeff-Com:  0.720D+00
 Coeff:     -0.263D-03 0.409D-02 0.959D-02 0.186D-01 0.542D-01 0.193D+00
 Coeff:      0.720D+00
 Gap=     0.207 Goal=   None    Shift=    0.000
 RMSDP=1.98D-09 MaxDP=2.99D-08 DE=-8.53D-14 OVMax= 3.69D-08

 SCF Done:  E(RB-LYP) =  -117.752251857     A.U. after   14 cycles
            NFock= 14  Conv=0.20D-08     -V/T= 2.0117
 KE= 1.163914077091D+02 PE=-4.135102345751D+02 EE= 1.083864262036D+02
 Leave Link  502 at Mon Mar 21 20:06:35 2022, MaxMem=  8589934592 cpu:              16.4 elap:               2.2
 (Enter /home/sabyasachi/g16/l801.exe)
 DoSCS=F DFT=T ScalE2(SS,OS)=  1.000000  1.000000
 ExpMin= 6.71D-02 ExpMax= 1.24D+03 ExpMxC= 1.86D+02 IAcc=3 IRadAn=         5 AccDes= 0.00D+00
 HarFok:  IExCor=  205 AccDes= 0.00D+00 IRadAn=         5 IDoV=-2 UseB2=F ITyADJ=14
 ICtDFT= 12500011 ScaDFX=  1.000000  1.000000  1.000000  1.000000
 Largest valence mixing into a core orbital is  6.63D-05
 Largest core mixing into a valence orbital is  1.48D-05
 Range of M.O.s used for correlation:     4   108
 NBasis=   108 NAE=    12 NBE=    12 NFC=     3 NFV=     0
 NROrb=    105 NOA=     9 NOB=     9 NVA=    96 NVB=    96

 **** Warning!!: The largest alpha MO coefficient is  0.43826400D+02

 Leave Link  801 at Mon Mar 21 20:06:36 2022, MaxMem=  8589934592 cpu:               0.6 elap:               0.1
 (Enter /home/sabyasachi/g16/l914.exe)
 RHF ground state
 Keep J ints in memory in symmetry-blocked form, NReq=917743223.
 FoFCou: FMM=F IPFlag=           0 FMFlag=           0 FMFlg1=           0
         NFxFlg=           0 DoJE=F BraDBF=F KetDBF=F FulRan=T
         wScrn=  0.000000 ICntrl=       600 IOpCl=  0 I1Cent=           0 NGrid=           0
         NMat0=    1 NMatS0=   5886 NMatT0=    0 NMatD0=    1 NMtDS0=    0 NMtDT0=    0
 Petite list used in FoFCou.
 MDV=  8589934592 DFT=T DoStab=F Mixed=F DoRPA=T DoScal=T NonHer=F
 Making orbital integer symmetry assigments:
 Orbital symmetries:
       Occupied  (A') (A') (A') (A') (A') (A') (A') (A') (A") (A')
                 (A') (A")
       Virtual   (A") (A') (A') (A') (A') (A") (A') (A') (A") (A')
                 (A') (A") (A') (A") (A') (A') (A") (A') (A") (A')
                 (A') (A') (A") (A') (A') (A") (A') (A") (A') (A')
                 (A') (A") (A') (A') (A') (A') (A") (A') (A") (A')
                 (A") (A') (A') (A") (A') (A") (A') (A') (A") (A')
                 (A') (A') (A") (A') (A') (A") (A') (A') (A') (A')
                 (A') (A') (A') (A") (A") (A") (A") (A") (A') (A')
                 (A') (A") (A') (A') (A") (A') (A') (A") (A') (A")
                 (A') (A') (A') (A") (A') (A") (A') (A') (A") (A')
                 (A') (A') (A") (A') (A') (A')
   864 initial guesses have been made.
 Convergence on wavefunction:    0.001000000000000
 Davidson Disk Diagonalization:  ConvIn= 1.00D-03 SkipCon=T Conv= 1.00D-03.
 Max sub-space:  3456 roots to seek:  1728 dimension of matrix:         1728
 *** WARNING: Number of orthogonal guesses is          864
 Iteration     1 Dimension   864 NMult     0 NNew    864
 CISAX will form   864 AO SS matrices at one time.
 NMat=   864 NSing=   864 JSym2X=-1.
 New state      1 was old state      2
 New state      2 was old state      3
 New state      3 was old state      4
 New state      4 was old state      1
 New state      6 was old state      7
 New state      7 was old state      6
 New state     13 was old state     14
 New state     14 was old state     13
 New state     15 was old state     16
 New state     16 was old state     17
 New state     17 was old state     15
 New state     23 was old state     24
 New state     24 was old state     26
 New state     25 was old state     23
 New state     26 was old state     25
 New state     29 was old state     31
 New state     30 was old state     29
 New state     31 was old state     30
 New state     34 was old state     35
 New state     35 was old state     34
 New state     37 was old state     38
 New state     38 was old state     39
 New state     39 was old state     37
 New state     41 was old state     42
 New state     42 was old state     41
 New state     44 was old state     45
 New state     45 was old state     44
 New state     46 was old state     48
 New state     47 was old state     46
 New state     48 was old state     50
 New state     49 was old state     51
 New state     50 was old state     53
 New state     51 was old state     52
 New state     52 was old state     54
 New state     53 was old state     47
 New state     54 was old state     59
 New state     56 was old state     58
 New state     57 was old state     56
 New state     58 was old state     60
 New state     59 was old state     61
 New state     60 was old state     62
 New state     61 was old state     64
 New state     62 was old state     63
 New state     63 was old state     66
 New state     64 was old state     57
 New state     65 was old state     67
 New state     66 was old state     69
 New state     67 was old state     65
 New state     69 was old state     71
 New state     71 was old state     72
 New state     72 was old state     73
 New state     73 was old state     74
 New state     74 was old state     75
 New state     75 was old state     77
 New state     76 was old state     78
 New state     77 was old state     79
 New state     78 was old state     76
 New state     79 was old state     80
 New state     80 was old state     81
 New state     81 was old state     84
 New state     82 was old state     83
 New state     83 was old state     87
 New state     84 was old state     86
 New state     86 was old state     88
 New state     87 was old state     89
 New state     88 was old state     91
 New state     89 was old state     90
 New state     90 was old state     82
 New state     91 was old state     94
 New state     92 was old state     93
 New state     93 was old state     96
 New state     94 was old state     95
 New state     95 was old state     92
 New state     96 was old state     97
 New state     97 was old state     98
 New state     98 was old state     99
 New state     99 was old state    100
 New state    100 was old state    102
 New state    101 was old state    104
 New state    102 was old state    103
 New state    103 was old state    101
 New state    104 was old state    107
 New state    107 was old state    108
 New state    108 was old state    116
 New state    109 was old state    110
 New state    110 was old state    111
 New state    111 was old state    109
 New state    112 was old state    113
 New state    113 was old state    114
 New state    114 was old state    112
 New state    115 was old state    118
 New state    116 was old state    117
 New state    117 was old state    121
 New state    118 was old state    119
 New state    119 was old state    115
 New state    120 was old state    122
 New state    121 was old state    120
 New state    122 was old state    123
 New state    123 was old state    124
 New state    124 was old state    125
 New state    125 was old state    128
 New state    126 was old state    127
 New state    127 was old state    126
 New state    128 was old state    129
 New state    129 was old state    130
 New state    130 was old state    131
 New state    131 was old state    134
 New state    133 was old state    137
 New state    134 was old state    133
 New state    135 was old state    136
 New state    136 was old state    135
 New state    137 was old state    138
 New state    138 was old state    139
 New state    139 was old state    140
 New state    140 was old state    141
 New state    141 was old state    149
 New state    142 was old state    145
 New state    143 was old state    148
 New state    145 was old state    147
 New state    146 was old state    143
 New state    147 was old state    142
 New state    148 was old state    152
 New state    149 was old state    146
 New state    150 was old state    151
 New state    151 was old state    155
 New state    152 was old state    153
 New state    153 was old state    156
 New state    154 was old state    150
 New state    155 was old state    154
 New state    156 was old state    158
 New state    157 was old state    168
 New state    158 was old state    157
 New state    163 was old state    165
 New state    164 was old state    166
 New state    165 was old state    167
 New state    166 was old state    164
 New state    167 was old state    163
 New state    168 was old state    171
 New state    169 was old state    177
 New state    170 was old state    173
 New state    171 was old state    170
 New state    172 was old state    175
 New state    173 was old state    178
 New state    175 was old state    172
 New state    176 was old state    180
 New state    177 was old state    181
 New state    178 was old state    169
 New state    180 was old state    176
 New state    181 was old state    182
 New state    182 was old state    184
 New state    184 was old state    185
 New state    185 was old state    186
 New state    186 was old state    187
 New state    187 was old state    191
 New state    189 was old state    190
 New state    190 was old state    192
 New state    191 was old state    194
 New state    192 was old state    193
 New state    193 was old state    196
 New state    194 was old state    189
 New state    195 was old state    201
 New state    196 was old state    197
 New state    197 was old state    200
 New state    198 was old state    204
 New state    199 was old state    203
 New state    200 was old state    198
 New state    201 was old state    199
 New state    203 was old state    206
 New state    204 was old state    195
 New state    206 was old state    217
 New state    208 was old state    209
 New state    209 was old state    208
 New state    210 was old state    211
 New state    211 was old state    215
 New state    212 was old state    216
 New state    213 was old state    218
 New state    215 was old state    220
 New state    216 was old state    219
 New state    217 was old state    210
 New state    218 was old state    221
 New state    219 was old state    222
 New state    220 was old state    213
 New state    221 was old state    227
 New state    222 was old state    223
 New state    223 was old state    229
 New state    227 was old state    230
 New state    228 was old state    233
 New state    229 was old state    228
 New state    230 was old state    231
 New state    231 was old state    232
 New state    232 was old state    234
 New state    233 was old state    235
 New state    234 was old state    238
 New state    235 was old state    236
 New state    236 was old state    237
 New state    237 was old state    239
 New state    238 was old state    240
 New state    239 was old state    243
 New state    240 was old state    247
 New state    242 was old state    248
 New state    243 was old state    244
 New state    244 was old state    242
 New state    245 was old state    246
 New state    246 was old state    255
 New state    247 was old state    249
 New state    248 was old state    250
 New state    249 was old state    252
 New state    250 was old state    245
 New state    251 was old state    253
 New state    252 was old state    254
 New state    253 was old state    251
 New state    254 was old state    258
 New state    255 was old state    256
 New state    256 was old state    257
 New state    257 was old state    268
 New state    258 was old state    260
 New state    259 was old state    263
 New state    260 was old state    266
 New state    261 was old state    262
 New state    262 was old state    264
 New state    263 was old state    265
 New state    264 was old state    261
 New state    265 was old state    267
 New state    266 was old state    270
 New state    267 was old state    271
 New state    268 was old state    269
 New state    269 was old state    274
 New state    270 was old state    259
 New state    271 was old state    277
 New state    274 was old state    279
 New state    275 was old state    276
 New state    276 was old state    280
 New state    277 was old state    275
 New state    278 was old state    281
 New state    279 was old state    282
 New state    280 was old state    284
 New state    281 was old state    278
 New state    282 was old state    283
 New state    283 was old state    288
 New state    284 was old state    286
 New state    286 was old state    292
 New state    287 was old state    289
 New state    288 was old state    291
 New state    289 was old state    293
 New state    290 was old state    296
 New state    291 was old state    299
 New state    292 was old state    297
 New state    293 was old state    298
 New state    295 was old state    287
 New state    296 was old state    295
 New state    297 was old state    290
 New state    298 was old state    306
 New state    299 was old state    300
 New state    300 was old state    302
 New state    302 was old state    304
 New state    303 was old state    309
 New state    304 was old state    303
 New state    306 was old state    311
 New state    308 was old state    310
 New state    309 was old state    312
 New state    310 was old state    318
 New state    311 was old state    313
 New state    312 was old state    308
 New state    313 was old state    316
 New state    314 was old state    315
 New state    315 was old state    317
 New state    316 was old state    314
 New state    317 was old state    320
 New state    318 was old state    321
 New state    319 was old state    322
 New state    320 was old state    319
 New state    321 was old state    323
 New state    322 was old state    325
 New state    323 was old state    328
 New state    324 was old state    330
 New state    325 was old state    327
 New state    326 was old state    324
 New state    327 was old state    326
 New state    328 was old state    332
 New state    329 was old state    334
 New state    330 was old state    331
 New state    331 was old state    333
 New state    332 was old state    337
 New state    333 was old state    329
 New state    334 was old state    339
 New state    337 was old state    338
 New state    338 was old state    345
 New state    339 was old state    340
 New state    340 was old state    341
 New state    341 was old state    342
 New state    342 was old state    343
 New state    343 was old state    347
 New state    345 was old state    346
 New state    346 was old state    348
 New state    347 was old state    349
 New state    348 was old state    353
 New state    349 was old state    351
 New state    351 was old state    357
 New state    352 was old state    354
 New state    353 was old state    355
 New state    354 was old state    356
 New state    355 was old state    352
 New state    356 was old state    360
 New state    357 was old state    358
 New state    358 was old state    362
 New state    360 was old state    363
 New state    362 was old state    364
 New state    363 was old state    373
 New state    364 was old state    365
 New state    365 was old state    366
 New state    366 was old state    367
 New state    367 was old state    368
 New state    368 was old state    370
 New state    370 was old state    371
 New state    371 was old state    372
 New state    372 was old state    375
 New state    373 was old state    376
 New state    375 was old state    388
 New state    376 was old state    377
 New state    377 was old state    378
 New state    378 was old state    379
 New state    379 was old state    384
 New state    380 was old state    382
 New state    381 was old state    383
 New state    382 was old state    381
 New state    383 was old state    380
 New state    384 was old state    387
 New state    386 was old state    389
 New state    387 was old state    391
 New state    388 was old state    386
 New state    389 was old state    390
 New state    390 was old state    396
 New state    391 was old state    393
 New state    393 was old state    395
 New state    394 was old state    398
 New state    395 was old state    397
 New state    396 was old state    394
 New state    397 was old state    405
 New state    398 was old state    399
 New state    399 was old state    411
 New state    400 was old state    401
 New state    401 was old state    403
 New state    403 was old state    400
 New state    405 was old state    406
 New state    406 was old state    415
 New state    407 was old state    408
 New state    408 was old state    409
 New state    409 was old state    410
 New state    410 was old state    413
 New state    411 was old state    407
 New state    413 was old state    414
 New state    414 was old state    416
 New state    415 was old state    419
 New state    416 was old state    418
 New state    418 was old state    420
 New state    419 was old state    421
 New state    420 was old state    423
 New state    421 was old state    424
 New state    423 was old state    427
 New state    424 was old state    425
 New state    425 was old state    428
 New state    426 was old state    429
 New state    427 was old state    426
 New state    428 was old state    448
 New state    429 was old state    430
 New state    430 was old state    431
 New state    431 was old state    432
 New state    432 was old state    433
 New state    433 was old state    435
 New state    434 was old state    437
 New state    435 was old state    434
 New state    436 was old state    438
 New state    437 was old state    436
 New state    438 was old state    440
 New state    440 was old state    442
 New state    441 was old state    443
 New state    442 was old state    460
 New state    443 was old state    445
 New state    444 was old state    441
 New state    445 was old state    447
 New state    447 was old state    444
 New state    448 was old state    449
 New state    449 was old state    451
 New state    450 was old state    453
 New state    451 was old state    452
 New state    452 was old state    450
 New state    453 was old state    456
 New state    454 was old state    455
 New state    455 was old state    454
 New state    456 was old state    457
 New state    457 was old state    459
 New state    459 was old state    461
 New state    460 was old state    462
 New state    461 was old state    465
 New state    462 was old state    464
 New state    464 was old state    466
 New state    465 was old state    467
 New state    466 was old state    468
 New state    467 was old state    472
 New state    468 was old state    470
 New state    469 was old state    471
 New state    470 was old state    473
 New state    471 was old state    469
 New state    472 was old state    474
 New state    473 was old state    477
 New state    474 was old state    476
 New state    476 was old state    478
 New state    477 was old state    487
 New state    478 was old state    480
 New state    479 was old state    490
 New state    480 was old state    479
 New state    482 was old state    483
 New state    483 was old state    484
 New state    484 was old state    489
 New state    487 was old state    491
 New state    488 was old state    482
 New state    489 was old state    488
 New state    490 was old state    492
 New state    491 was old state    498
 New state    492 was old state    494
 New state    494 was old state    495
 New state    495 was old state    497
 New state    497 was old state    499
 New state    498 was old state    500
 New state    499 was old state    501
 New state    500 was old state    507
 New state    501 was old state    503
 New state    502 was old state    511
 New state    503 was old state    505
 New state    505 was old state    506
 New state    506 was old state    502
 New state    507 was old state    508
 New state    508 was old state    509
 New state    509 was old state    510
 New state    510 was old state    512
 New state    511 was old state    513
 New state    512 was old state    514
 New state    513 was old state    517
 New state    514 was old state    515
 New state    515 was old state    519
 New state    517 was old state    518
 New state    518 was old state    520
 New state    519 was old state    523
 New state    520 was old state    529
 New state    521 was old state    522
 New state    522 was old state    521
 New state    523 was old state    524
 New state    524 was old state    527
 New state    525 was old state    526
 New state    526 was old state    525
 New state    527 was old state    531
 New state    528 was old state    530
 New state    529 was old state    528
 New state    530 was old state    532
 New state    531 was old state    533
 New state    532 was old state    542
 New state    533 was old state    535
 New state    535 was old state    536
 New state    536 was old state    537
 New state    537 was old state    540
 New state    538 was old state    539
 New state    539 was old state    538
 New state    540 was old state    541
 New state    541 was old state    543
 New state    542 was old state    545
 New state    543 was old state    544
 New state    544 was old state    546
 New state    545 was old state    550
 New state    546 was old state    548
 New state    547 was old state    551
 New state    548 was old state    549
 New state    549 was old state    547
 New state    550 was old state    552
 New state    551 was old state    560
 New state    552 was old state    553
 New state    553 was old state    554
 New state    554 was old state    555
 New state    555 was old state    556
 New state    556 was old state    557
 New state    557 was old state    558
 New state    558 was old state    559
 New state    559 was old state    561
 New state    560 was old state    563
 New state    561 was old state    562
 New state    562 was old state    568
 New state    563 was old state    564
 New state    564 was old state    565
 New state    565 was old state    567
 New state    567 was old state    570
 New state    568 was old state    569
 New state    569 was old state    571
 New state    570 was old state    573
 New state    571 was old state    572
 New state    572 was old state    583
 New state    573 was old state    575
 New state    574 was old state    576
 New state    575 was old state    574
 New state    576 was old state    577
 New state    577 was old state    578
 No map to state    578
 New state    579 was old state    580
 New state    580 was old state    581
 New state    581 was old state    582
 New state    582 was old state    584
 New state    583 was old state    585
 New state    584 was old state    596
 New state    585 was old state    586
 New state    586 was old state    579
 New state    590 was old state    591
 New state    591 was old state    593
 New state    592 was old state    590
 New state    593 was old state    592
 No map to state    595
 New state    596 was old state    595
 New state    598 was old state    599
 New state    599 was old state    598
 New state    601 was old state    602
 New state    602 was old state    603
 New state    603 was old state    601
 New state    615 was old state    617
 New state    617 was old state    618
 New state    618 was old state    615
 New state    628 was old state    629
 New state    629 was old state    628
 New state    630 was old state    631
 New state    631 was old state    632
 New state    632 was old state    630
 New state    633 was old state    634
 New state    634 was old state    635
 New state    635 was old state    633
 New state    638 was old state    639
 New state    639 was old state    638
 New state    642 was old state    644
 New state    644 was old state    645
 New state    645 was old state    642
 New state    646 was old state    647
 New state    647 was old state    646
 New state    649 was old state    650
 New state    650 was old state    652
 New state    652 was old state    649
 New state    653 was old state    654
 New state    654 was old state    653
 New state    659 was old state    662
 New state    660 was old state    661
 New state    661 was old state    666
 New state    662 was old state    667
 New state    663 was old state    660
 New state    664 was old state    663
 New state    666 was old state    664
 New state    667 was old state    659
 New state    669 was old state    670
 New state    670 was old state    669
 New state    671 was old state    673
 New state    673 was old state    674
 New state    674 was old state    671
 New state    675 was old state    676
 New state    676 was old state    675
 New state    683 was old state    684
 New state    684 was old state    683
 New state    687 was old state    688
 New state    688 was old state    689
 New state    689 was old state    690
 New state    690 was old state    691
 New state    691 was old state    687
 New state    696 was old state    697
 New state    697 was old state    696
 New state    700 was old state    701
 New state    701 was old state    700
 New state    702 was old state    703
 New state    703 was old state    702
 New state    721 was old state    722
 New state    722 was old state    721
 New state    724 was old state    725
 New state    725 was old state    724
 New state    729 was old state    730
 New state    730 was old state    729
 New state    742 was old state    743
 New state    743 was old state    742
 New state    750 was old state    751
 New state    751 was old state    750
 New state    756 was old state    757
 New state    757 was old state    756
 New state    759 was old state    760
 New state    760 was old state    759
 New state    765 was old state    766
 New state    766 was old state    765
 New state    767 was old state    768
 New state    768 was old state    767
 New state    778 was old state    779
 New state    779 was old state    778
 New state    780 was old state    781
 New state    781 was old state    780
 New state    789 was old state    790
 New state    790 was old state    789
 New state    797 was old state    798
 New state    798 was old state    799
 New state    799 was old state    797
 New state    807 was old state    808
 New state    808 was old state    809
 New state    809 was old state    807
 New state    810 was old state    811
 New state    811 was old state    810
 New state    828 was old state    829
 New state    829 was old state    830
 New state    830 was old state    828
 New state    840 was old state    841
 New state    841 was old state    840
 New state    849 was old state    850
 New state    850 was old state    849
 Excitation Energies [eV] at current iteration:
 Root      1 :     6.483800818509697
 Root      2 :     7.214881120386972
 Root      3 :     7.246898524485709
 Root      4 :     7.366511102695832
 Root      5 :     7.841967897585275
 Root      6 :     8.405870694962097
 Root      7 :     8.462656790718256
 Root      8 :     8.553786544133974
 Root      9 :     8.633344154649594
 Root     10 :     8.928049490634727
 Root     11 :     9.280465048137437
 Root     12 :     9.302882170402119
 Root     13 :     9.359051521813715
 Root     14 :     9.436467665877982
 Root     15 :     9.757161549134112
 Root     16 :     9.797502549491414
 Root     17 :     9.908659895838479
 Root     18 :     9.914029929518637
 Root     19 :    10.005096699085890
 Root     20 :    10.038246711922960
 Root     21 :    10.123733946377550
 Root     22 :    10.405396971710290
 Root     23 :    10.553751701057970
 Root     24 :    10.606630671136560
 Root     25 :    10.612506260576250
 Root     26 :    10.790398590682540
 Root     27 :    10.916487286967040
 Root     28 :    11.029260517914000
 Root     29 :    11.061586136618910
 Root     30 :    11.075222318145250
 Root     31 :    11.117010856391520
 Root     32 :    11.197997599022060
 Root     33 :    11.322488412439460
 Root     34 :    11.339064048538740
 Root     35 :    11.343307008514690
 Root     36 :    11.457301928015460
 Root     37 :    11.674925436696580
 Root     38 :    11.723942101749870
 Root     39 :    11.785561671107330
 Root     40 :    11.872712236731410
 Root     41 :    12.023438620833160
 Root     42 :    12.100040134792850
 Root     43 :    12.127438834183040
 Root     44 :    12.258088389700000
 Root     45 :    12.287099268656230
 Root     46 :    12.395407779785480
 Root     47 :    12.418561201622460
 Root     48 :    12.451002307329440
 Root     49 :    12.502747058524820
 Root     50 :    12.535839857336410
 Root     51 :    12.549934955616730
 Root     52 :    12.639143384028670
 Root     53 :    12.666026573636450
 Root     54 :    12.863233635748400
 Root     55 :    12.876569552357120
 Root     56 :    12.959732851764520
 Root     57 :    13.018721982623540
 Root     58 :    13.153837454736340
 Root     59 :    13.158224443042800
 Root     60 :    13.216632058131490
 Root     61 :    13.220324208791870
 Root     62 :    13.350485205671130
 Root     63 :    13.462697515181030
 Root     64 :    13.508834320349310
 Root     65 :    13.606480106970820
 Root     66 :    13.659183417336340
 Root     67 :    13.672553449769300
 Root     68 :    13.710836201225800
 Root     69 :    13.728432916475540
 Root     70 :    13.810289238608280
 Root     71 :    13.836600009724180
 Root     72 :    13.896065126286000
 Root     73 :    13.967430027037780
 Root     74 :    14.021947792292730
 Root     75 :    14.058677627721190
 Root     76 :    14.115515012894350
 Root     77 :    14.221808716684790
 Root     78 :    14.259489182758620
 Root     79 :    14.372074454894090
 Root     80 :    14.465801032147070
 Root     81 :    14.478809034269820
 Root     82 :    14.483181771336930
 Root     83 :    14.508674535809330
 Root     84 :    14.529202741406670
 Root     85 :    14.572853985334850
 Root     86 :    14.673598276309220
 Root     87 :    14.785044407645870
 Root     88 :    14.787207611050550
 Root     89 :    14.840520423973390
 Root     90 :    14.844294905122470
 Root     91 :    14.911445502192820
 Root     92 :    14.970473755352530
 Root     93 :    15.017407623186150
 Root     94 :    15.106094920245320
 Root     95 :    15.118662635636490
 Root     96 :    15.165840300201650
 Root     97 :    15.394755590339700
 Root     98 :    15.439900535474090
 Root     99 :    15.501560632802870
 Root    100 :    15.568896052921230
 Root    101 :    15.658913561917170
 Root    102 :    15.680593900345090
 Root    103 :    15.684453908487400
 Root    104 :    15.731454990722850
 Root    105 :    15.739855069212560
 Root    106 :    15.747931969943580
 Root    107 :    15.788767958052540
 Root    108 :    15.819774848584450
 Root    109 :    15.849450091297000
 Root    110 :    15.937290049441420
 Root    111 :    15.962799047677280
 Root    112 :    16.082395751288020
 Root    113 :    16.173895722599220
 Root    114 :    16.198329637216640
 Root    115 :    16.233681481267120
 Root    116 :    16.285524630416700
 Root    117 :    16.344094761529270
 Root    118 :    16.353255263547660
 Root    119 :    16.404357380348500
 Root    120 :    16.556174075378880
 Root    121 :    16.612446961024450
 Root    122 :    16.667990809625540
 Root    123 :    16.716503390084740
 Root    124 :    16.766281797087410
 Root    125 :    16.785552402186740
 Root    126 :    16.862992180661510
 Root    127 :    16.869474852538060
 Root    128 :    16.883371378065130
 Root    129 :    16.943827737814410
 Root    130 :    16.968993646876130
 Root    131 :    17.098516364343610
 Root    132 :    17.140383360198070
 Root    133 :    17.197823744325430
 Root    134 :    17.199643842262860
 Root    135 :    17.248663566987840
 Root    136 :    17.251220440470140
 Root    137 :    17.298536353819930
 Root    138 :    17.401759863882900
 Root    139 :    17.431272709291040
 Root    140 :    17.502822299397800
 Root    141 :    17.550201927575720
 Root    142 :    17.607044741280380
 Root    143 :    17.671559881987680
 Root    144 :    17.675321672191880
 Root    145 :    17.713530997607560
 Root    146 :    17.740628502026790
 Root    147 :    17.784559856194960
 Root    148 :    17.804177438443390
 Root    149 :    17.839884175738990
 Root    150 :    17.845893243772560
 Root    151 :    17.908888981101850
 Root    152 :    17.927983418871380
 Root    153 :    17.988261885669280
 Root    154 :    18.010757714731550
 Root    155 :    18.015733436661950
 Root    156 :    18.147674978560390
 Root    157 :    18.164372702266660
 Root    158 :    18.217165699133400
 Root    159 :    18.274913325488920
 Root    160 :    18.282726673366650
 Root    161 :    18.327730592103230
 Root    162 :    18.397711426745100
 Root    163 :    18.511174811081520
 Root    164 :    18.512781735434450
 Root    165 :    18.527413116932640
 Root    166 :    18.573896129966460
 Root    167 :    18.604191742177060
 Root    168 :    18.682053773742250
 Root    169 :    18.694222131572560
 Root    170 :    18.769751229932030
 Root    171 :    18.801002945730860
 Root    172 :    18.839484748613030
 Root    173 :    18.918833778478350
 Root    174 :    18.922024565139530
 Root    175 :    18.981963172460230
 Root    176 :    19.009528614071260
 Root    177 :    19.056890341707090
 Root    178 :    19.116045788175990
 Root    179 :    19.143002943838260
 Root    180 :    19.175164612953380
 Root    181 :    19.180312059713750
 Root    182 :    19.221226060392050
 Root    183 :    19.272604452054850
 Root    184 :    19.340939375227560
 Root    185 :    19.400692932515560
 Root    186 :    19.422278102440700
 Root    187 :    19.453058618842610
 Root    188 :    19.496134170505370
 Root    189 :    19.528629602692040
 Root    190 :    19.619162331306200
 Root    191 :    19.641634349064580
 Root    192 :    19.658720310646260
 Root    193 :    19.679811325990190
 Root    194 :    19.680286866109140
 Root    195 :    19.709079360125010
 Root    196 :    19.754697943023680
 Root    197 :    19.772716130741470
 Root    198 :    19.787055362061100
 Root    199 :    19.803376650903490
 Root    200 :    19.856703948815860
 Root    201 :    19.879279727000060
 Root    202 :    19.917689649462410
 Root    203 :    19.951494454551230
 Root    204 :    19.989262636352940
 Root    205 :    20.045514266882150
 Root    206 :    20.094126011585830
 Root    207 :    20.156026890117880
 Root    208 :    20.207670353877810
 Root    209 :    20.218691272236610
 Root    210 :    20.334145203871700
 Root    211 :    20.344026321274580
 Root    212 :    20.391043028769680
 Root    213 :    20.409549503767260
 Root    214 :    20.439186960253020
 Root    215 :    20.461155779017390
 Root    216 :    20.476520830758100
 Root    217 :    20.532104525449990
 Root    218 :    20.567545770866930
 Root    219 :    20.614231368320730
 Root    220 :    20.752611675231570
 Root    221 :    20.783311834749660
 Root    222 :    20.815435123500660
 Root    223 :    20.841667580239210
 Root    224 :    20.863770039968810
 Root    225 :    20.883236276580810
 Root    226 :    20.960619996896930
 Root    227 :    20.975109143318830
 Root    228 :    20.997347041519690
 Root    229 :    21.017804184461060
 Root    230 :    21.040863839686900
 Root    231 :    21.063153368754350
 Root    232 :    21.124724777708590
 Root    233 :    21.140573856310200
 Root    234 :    21.189623086696760
 Root    235 :    21.241981773333120
 Root    236 :    21.330183135204890
 Root    237 :    21.370590578712760
 Root    238 :    21.431343756461770
 Root    239 :    21.463682029125050
 Root    240 :    21.518534339736370
 Root    241 :    21.533339974439300
 Root    242 :    21.571525426440460
 Root    243 :    21.580523286879360
 Root    244 :    21.672319356190890
 Root    245 :    21.687578350182380
 Root    246 :    21.717708702045520
 Root    247 :    21.802377486768570
 Root    248 :    21.842170531922100
 Root    249 :    21.869030448819370
 Root    250 :    21.876150789381700
 Root    251 :    22.008687691126360
 Root    252 :    22.015389285886380
 Root    253 :    22.028924322409540
 Root    254 :    22.040868731430880
 Root    255 :    22.101361755242370
 Root    256 :    22.143712305056450
 Root    257 :    22.177605156266610
 Root    258 :    22.180962300103660
 Root    259 :    22.251554389550180
 Root    260 :    22.254696387923620
 Root    261 :    22.272720783052530
 Root    262 :    22.294599431021050
 Root    263 :    22.336957126409410
 Root    264 :    22.352103815219570
 Root    265 :    22.382795566617950
 Root    266 :    22.424529067022860
 Root    267 :    22.461169598295150
 Root    268 :    22.489672157199290
 Root    269 :    22.515121931806350
 Root    270 :    22.645588998415500
 Root    271 :    22.692209414224280
 Root    272 :    22.713591903897600
 Root    273 :    22.734147183584080
 Root    274 :    22.863487330342230
 Root    275 :    22.942435465782460
 Root    276 :    22.945785557463120
 Root    277 :    22.953851068700590
 Root    278 :    22.954521096777980
 Root    279 :    23.010293504051550
 Root    280 :    23.081387678073520
 Root    281 :    23.090594450418870
 Root    282 :    23.143174930101320
 Root    283 :    23.148460660944450
 Root    284 :    23.179042323778770
 Root    285 :    23.218405105280770
 Root    286 :    23.287131563124870
 Root    287 :    23.294379291275330
 Root    288 :    23.368327456534280
 Root    289 :    23.381701644895830
 Root    290 :    23.491144897999370
 Root    291 :    23.515154913203050
 Root    292 :    23.522119733974280
 Root    293 :    23.622463179107100
 Root    294 :    23.640785268801760
 Root    295 :    23.711819735591760
 Root    296 :    23.769086594600780
 Root    297 :    23.857705011584300
 Root    298 :    23.881618014987390
 Root    299 :    24.004914110441900
 Root    300 :    24.029172652740930
 Root    301 :    24.057003067900790
 Root    302 :    24.081667607081880
 Root    303 :    24.093960043320080
 Root    304 :    24.170707719677100
 Root    305 :    24.216036962230070
 Root    306 :    24.298695135720560
 Root    307 :    24.341155229087210
 Root    308 :    24.361111961672690
 Root    309 :    24.415889180208540
 Root    310 :    24.514518799051670
 Root    311 :    24.558333355972270
 Root    312 :    24.596530321291970
 Root    313 :    24.687533598564170
 Root    314 :    24.744803281875760
 Root    315 :    24.819095975723270
 Root    316 :    24.864637442179300
 Root    317 :    24.880504884138670
 Root    318 :    24.943488124997630
 Root    319 :    24.967531942728850
 Root    320 :    25.073013309106610
 Root    321 :    25.120191970262050
 Root    322 :    25.241908018655800
 Root    323 :    25.265238918084540
 Root    324 :    25.309026635851770
 Root    325 :    25.485967131773300
 Root    326 :    25.486814826246190
 Root    327 :    25.514362959651650
 Root    328 :    25.569457330220060
 Root    329 :    25.598910681874460
 Root    330 :    25.634157090921630
 Root    331 :    25.722199691144430
 Root    332 :    25.728371771332340
 Root    333 :    25.819388165500980
 Root    334 :    25.876779337915380
 Root    335 :    25.897443274565030
 Root    336 :    25.965885029151160
 Root    337 :    26.087369859132660
 Root    338 :    26.111793289992400
 Root    339 :    26.180806314128160
 Root    340 :    26.226718808183220
 Root    341 :    26.256389853187450
 Root    342 :    26.318319696182820
 Root    343 :    26.385465081918470
 Root    344 :    26.455901064437070
 Root    345 :    26.461397655754600
 Root    346 :    26.552688117387150
 Root    347 :    26.631442908931550
 Root    348 :    26.673543104361170
 Root    349 :    26.720833043195260
 Root    350 :    26.750506572314250
 Root    351 :    26.944859255591180
 Root    352 :    27.221963454271090
 Root    353 :    27.234823498554640
 Root    354 :    27.243895635332950
 Root    355 :    27.299837603635880
 Root    356 :    27.324828312797600
 Root    357 :    27.357791976737530
 Root    358 :    27.424155746452820
 Root    359 :    27.529511483526370
 Root    360 :    27.564477525476130
 Root    361 :    27.570852553494980
 Root    362 :    27.686342267069430
 Root    363 :    27.717531966820460
 Root    364 :    27.853615920373990
 Root    365 :    28.016550022744010
 Root    366 :    28.052692759658790
 Root    367 :    28.213248395758930
 Root    368 :    28.243522959221430
 Root    369 :    28.258861766423070
 Root    370 :    28.617873895062780
 Root    371 :    28.714204943051170
 Root    372 :    28.804030085129040
 Root    373 :    28.829998325741220
 Root    374 :    28.853722827524440
 Root    375 :    28.893280608082120
 Root    376 :    28.906791286599440
 Root    377 :    28.964174319065710
 Root    378 :    29.014845722371080
 Root    379 :    29.103052679281160
 Root    380 :    29.371947898455470
 Root    381 :    29.407269412416020
 Root    382 :    29.417453938925330
 Root    383 :    29.695408763107080
 Root    384 :    29.737743908378380
 Root    385 :    29.741317946304700
 Root    386 :    29.824318308632300
 Root    387 :    29.865798613049620
 Root    388 :    29.870994459625690
 Root    389 :    29.919016883947350
 Root    390 :    30.012854153802000
 Root    391 :    30.022911076291860
 Root    392 :    30.164423410166640
 Root    393 :    30.437379372939790
 Root    394 :    30.583789202708080
 Root    395 :    30.587828892998460
 Root    396 :    30.674187949184200
 Root    397 :    30.750155265887220
 Root    398 :    30.800196685059530
 Root    399 :    30.878815244671140
 Root    400 :    30.935974568250230
 Root    401 :    30.963176788650710
 Root    402 :    30.976625098272470
 Root    403 :    31.030596714811330
 Root    404 :    31.303881728420660
 Root    405 :    31.383176142390680
 Root    406 :    31.484401167822880
 Root    407 :    31.486414629048880
 Root    408 :    31.517541449193670
 Root    409 :    31.671146481420240
 Root    410 :    31.808771643908010
 Root    411 :    31.869016715700740
 Root    412 :    31.923099066470470
 Root    413 :    31.964998740850800
 Root    414 :    31.970108537995290
 Root    415 :    32.128528106840140
 Root    416 :    32.155639283767990
 Root    417 :    32.266598266015630
 Root    418 :    32.295503672328590
 Root    419 :    32.481310221195430
 Root    420 :    32.553417948465860
 Root    421 :    32.600948915990640
 Root    422 :    32.654422629279640
 Root    423 :    32.658817019269160
 Root    424 :    32.686415425802370
 Root    425 :    32.734946414322140
 Root    426 :    32.833915482678260
 Root    427 :    32.981783831389500
 Root    428 :    33.080704815489330
 Root    429 :    33.420720091794340
 Root    430 :    33.493826427024050
 Root    431 :    33.510738395425410
 Root    432 :    33.656765364687320
 Root    433 :    33.689567180886970
 Root    434 :    33.778710057929590
 Root    435 :    33.802228254374850
 Root    436 :    33.893015823000220
 Root    437 :    33.914435750442390
 Root    438 :    34.027252933563460
 Root    439 :    34.149738248388240
 Root    440 :    34.171118693838190
 Root    441 :    34.176222439339560
 Root    442 :    34.236662527966590
 Root    443 :    34.387270019583880
 Root    444 :    34.403851515614980
 Root    445 :    34.536600334389290
 Root    446 :    34.554125237832890
 Root    447 :    34.574617342761820
 Root    448 :    34.801948881572310
 Root    449 :    34.878007840876020
 Root    450 :    34.978879413895870
 Root    451 :    34.981350598698630
 Root    452 :    35.047481840915630
 Root    453 :    35.144094986530380
 Root    454 :    35.171149367729100
 Root    455 :    35.226522990057150
 Root    456 :    35.301490594281340
 Root    457 :    35.369004330032910
 Root    458 :    35.565949672609810
 Root    459 :    35.630288087794370
 Root    460 :    35.740195801012720
 Root    461 :    35.823650287371860
 Root    462 :    35.830479211859220
 Root    463 :    35.876957616146590
 Root    464 :    36.047833325542580
 Root    465 :    36.089864567773380
 Root    466 :    36.321211421424810
 Root    467 :    36.491638478601690
 Root    468 :    36.536689827424690
 Root    469 :    36.571876805832320
 Root    470 :    36.730035127816440
 Root    471 :    36.730817225515060
 Root    472 :    36.816248558974730
 Root    473 :    36.992046694869340
 Root    474 :    37.011001486402490
 Root    475 :    37.019096905662640
 Root    476 :    37.199599474090020
 Root    477 :    37.348603209465870
 Root    478 :    37.537285451296370
 Root    479 :    37.541339843488590
 Root    480 :    37.613325840533010
 Root    481 :    37.728791817448890
 Root    482 :    37.823476118387830
 Root    483 :    37.894204715694270
 Root    484 :    38.047606914770000
 Root    485 :    38.074961619296450
 Root    486 :    38.108440774000140
 Root    487 :    38.194354729504970
 Root    488 :    38.265741018583480
 Root    489 :    38.552093303762110
 Root    490 :    38.603435015580220
 Root    491 :    38.628821288405380
 Root    492 :    38.861716554483090
 Root    493 :    38.872281819107770
 Root    494 :    38.974614002402650
 Root    495 :    39.199864825037020
 Root    496 :    39.323577008968980
 Root    497 :    39.333867321352690
 Root    498 :    39.530615107359890
 Root    499 :    39.725783912229690
 Root    500 :    39.789055462685940
 Root    501 :    39.920593851042630
 Root    502 :    39.938116118437810
 Root    503 :    39.995548397032190
 Root    504 :    40.030498059993240
 Root    505 :    40.318130007221800
 Root    506 :    40.353567696227640
 Root    507 :    40.403285033617150
 Root    508 :    40.436184353266420
 Root    509 :    40.572966380161520
 Root    510 :    40.750792023575040
 Root    511 :    40.861778762770320
 Root    512 :    41.046361353786480
 Root    513 :    41.076428127347060
 Root    514 :    41.113513525302430
 Root    515 :    41.245280381800430
 Root    516 :    41.320312278709610
 Root    517 :    41.421083117507730
 Root    518 :    41.735345431706640
 Root    519 :    42.057638279085990
 Root    520 :    42.060681425596610
 Root    521 :    42.171308322637520
 Root    522 :    42.222255213027420
 Root    523 :    42.391033503366110
 Root    524 :    42.454472657979660
 Root    525 :    42.471488483582200
 Root    526 :    42.558047163541690
 Root    527 :    42.807155998057380
 Root    528 :    42.881161810594070
 Root    529 :    42.905772829151300
 Root    530 :    42.975536130910360
 Root    531 :    43.217407329451580
 Root    532 :    43.410441633676610
 Root    533 :    43.505443789758390
 Root    534 :    43.737667033197510
 Root    535 :    43.785111439562970
 Root    536 :    43.904966562448680
 Root    537 :    44.043426750926270
 Root    538 :    44.339399501891560
 Root    539 :    44.450574664980460
 Root    540 :    44.473226834418050
 Root    541 :    44.760200318720510
 Root    542 :    44.806526860998510
 Root    543 :    45.003437580051390
 Root    544 :    45.155926230680820
 Root    545 :    45.214463114866180
 Root    546 :    45.387580451441110
 Root    547 :    45.756306417730170
 Root    548 :    45.902394583949170
 Root    549 :    45.945990536515590
 Root    550 :    46.005112693014830
 Root    551 :    46.105757927352300
 Root    552 :    46.345892875231580
 Root    553 :    46.581087476246700
 Root    554 :    46.850506597334040
 Root    555 :    46.882734766053630
 Root    556 :    47.247593856167600
 Root    557 :    47.455961407912640
 Root    558 :    47.713552863912430
 Root    559 :    47.777699257689600
 Root    560 :    47.811545209367780
 Root    561 :    47.891524596152450
 Root    562 :    47.923818286981080
 Root    563 :    48.322839069512280
 Root    564 :    48.530216174349110
 Root    565 :    48.668951241639800
 Root    566 :    49.087359877525880
 Root    567 :    49.223382823858100
 Root    568 :    49.390333768199040
 Root    569 :    49.479382720185850
 Root    570 :    49.536777445844850
 Root    571 :    49.563283057058830
 Root    572 :    49.751266289674910
 Root    573 :    49.842602511758620
 Root    574 :    50.043364318765340
 Root    575 :    50.287959697726910
 Root    576 :    50.325708354066640
 Root    577 :    50.395185386098820
 Root    578 :    50.553331274271360
 Root    579 :    50.758632866266270
 Root    580 :    50.803662905417590
 Root    581 :    50.988925061272400
 Root    582 :    51.354869955596880
 Root    583 :    51.609730951648210
 Root    584 :    51.749487655257260
 Root    585 :    51.765200095711180
 Root    586 :    51.980613446957430
 Root    587 :    52.403723327425560
 Root    588 :    52.544775490824090
 Root    589 :    52.707508834921750
 Root    590 :    52.772471284317280
 Root    591 :    52.821016639777890
 Root    592 :    52.920696917098590
 Root    593 :    53.037460878308110
 Root    594 :    53.094317754834040
 Root    595 :    53.193253814439440
 Root    596 :    53.254161846629560
 Root    597 :    53.403716688906980
 Root    598 :    53.805607899471530
 Root    599 :    54.090759168162910
 Root    600 :    54.216028651469510
 Root    601 :    54.396007172410810
 Root    602 :    54.427762641048400
 Root    603 :    54.465390973429880
 Root    604 :    54.785601883263050
 Root    605 :    54.989392817293580
 Root    606 :    55.124784298911440
 Root    607 :    55.215868513248730
 Root    608 :    55.471830104782450
 Root    609 :    55.519474873277840
 Root    610 :    55.729221467189010
 Root    611 :    56.025517864872280
 Root    612 :    56.051399296944440
 Root    613 :    56.116023867180470
 Root    614 :    56.260388910534380
 Root    615 :    56.339051069479360
 Root    616 :    56.390500057480500
 Root    617 :    56.519216252944810
 Root    618 :    56.594679524671400
 Root    619 :    56.734991408033590
 Root    620 :    56.953933844801030
 Root    621 :    57.191509768475910
 Root    622 :    57.342660587965750
 Root    623 :    57.475665051417710
 Root    624 :    57.513734651692960
 Root    625 :    57.600562890638060
 Root    626 :    57.615998720786270
 Root    627 :    57.748444312236580
 Root    628 :    57.987063044347130
 Root    629 :    58.038224771933210
 Root    630 :    58.183844959531600
 Root    631 :    58.269957836054120
 Root    632 :    58.314207802750430
 Root    633 :    58.483841423964800
 Root    634 :    58.501044054818560
 Root    635 :    58.689690691428420
 Root    636 :    58.713393290453040
 Root    637 :    58.915445473729070
 Root    638 :    59.101391072720210
 Root    639 :    59.143221989898230
 Root    640 :    59.272826125153440
 Root    641 :    59.329030866768240
 Root    642 :    59.380373629054260
 Root    643 :    59.491719206657760
 Root    644 :    59.572203741153980
 Root    645 :    59.706635690722740
 Root    646 :    59.754025383791060
 Root    647 :    60.020499285089700
 Root    648 :    60.103639214094410
 Root    649 :    60.197864066227380
 Root    650 :    60.376309806459000
 Root    651 :    60.394660697657590
 Root    652 :    60.435136675520280
 Root    653 :    60.554458535317630
 Root    654 :    60.577724637416400
 Root    655 :    60.753975061575080
 Root    656 :    60.810001574894300
 Root    657 :    60.951297395262210
 Root    658 :    61.131271076554820
 Root    659 :    61.352576005833420
 Root    660 :    61.468802927706830
 Root    661 :    61.543470422550760
 Root    662 :    61.585653670547460
 Root    663 :    61.601063621180050
 Root    664 :    61.620512197585580
 Root    665 :    61.643807328680450
 Root    666 :    61.700579331037350
 Root    667 :    61.860890491709480
 Root    668 :    61.984023512376450
 Root    669 :    62.307993091072150
 Root    670 :    62.397865453774480
 Root    671 :    62.650269471550760
 Root    672 :    62.741893456211170
 Root    673 :    62.836906365487820
 Root    674 :    62.854055211508360
 Root    675 :    62.933901257602990
 Root    676 :    62.960995604440480
 Root    677 :    63.327789907668930
 Root    678 :    63.403702612727190
 Root    679 :    63.605670168930290
 Root    680 :    63.638358398152210
 Root    681 :    63.740157301539630
 Root    682 :    63.956389806541220
 Root    683 :    64.004881077246070
 Root    684 :    64.080330993827150
 Root    685 :    64.296857146160650
 Root    686 :    64.385499369098000
 Root    687 :    64.596860667275640
 Root    688 :    64.712134462360070
 Root    689 :    64.826829271645890
 Root    690 :    64.845604221683200
 Root    691 :    65.044286473776170
 Root    692 :    65.093953968156600
 Root    693 :    65.322603981016870
 Root    694 :    65.969836166794830
 Root    695 :    66.056955296787520
 Root    696 :    66.255399452867250
 Root    697 :    66.313609198252610
 Root    698 :    66.635255870072100
 Root    699 :    66.897895451862440
 Root    700 :    66.979093682185380
 Root    701 :    66.980427684264010
 Root    702 :    67.097625100468040
 Root    703 :    67.143952612277300
 Root    704 :    67.365061167267000
 Root    705 :    67.404986194263460
 Root    706 :    67.684524064894660
 Root    707 :    67.761721584658790
 Root    708 :    67.960487621338940
 Root    709 :    68.073050347093100
 Root    710 :    68.177602307149810
 Root    711 :    68.297240128125540
 Root    712 :    68.610491804115550
 Root    713 :    68.786280352670320
 Root    714 :    69.027675119801100
 Root    715 :    69.226427960021310
 Root    716 :    69.324713497076260
 Root    717 :    69.388877903924270
 Root    718 :    69.480569706122990
 Root    719 :    69.511408252380240
 Root    720 :    69.730553631510090
 Root    721 :    70.012118329389890
 Root    722 :    70.032959531643290
 Root    723 :    70.177646228062020
 Root    724 :    70.420713046621830
 Root    725 :    70.524081099144230
 Root    726 :    70.612995027954330
 Root    727 :    70.665831906736430
 Root    728 :    70.839032150736300
 Root    729 :    71.030357772655110
 Root    730 :    71.036558978140410
 Root    731 :    71.245512219826130
 Root    732 :    71.314547502503400
 Root    733 :    71.363957514795690
 Root    734 :    71.571911872710420
 Root    735 :    71.835556023467490
 Root    736 :    71.911702331058020
 Root    737 :    71.914319497912170
 Root    738 :    72.246134452625710
 Root    739 :    72.455312199613590
 Root    740 :    72.595064791144180
 Root    741 :    72.836143004755640
 Root    742 :    73.130020396309380
 Root    743 :    73.138486901942810
 Root    744 :    73.178688540443120
 Root    745 :    73.199934580849360
 Root    746 :    73.236250424916010
 Root    747 :    73.687331346724020
 Root    748 :    73.939654596600660
 Root    749 :    73.962566323202310
 Root    750 :    74.315239380238110
 Root    751 :    74.354698418773740
 Root    752 :    74.746579647782890
 Root    753 :    74.877596846143520
 Root    754 :    74.934083723697270
 Root    755 :    75.038127348189930
 Root    756 :    75.114368314549380
 Root    757 :    75.260394150522340
 Root    758 :    75.445341290184540
 Root    759 :    75.768765523425100
 Root    760 :    75.819433249869390
 Root    761 :    76.263929078425060
 Root    762 :    76.295192569352320
 Root    763 :    76.433186407150060
 Root    764 :    76.569645721474960
 Root    765 :    77.238333573907640
 Root    766 :    77.321764885200860
 Root    767 :    77.414186066510060
 Root    768 :    77.529326430129430
 Root    769 :    77.704902334653380
 Root    770 :    77.961367318269310
 Root    771 :    78.018151733246160
 Root    772 :    78.157920778836740
 Root    773 :    78.252243080080490
 Root    774 :    78.281886024255070
 Root    775 :    78.597940130409650
 Root    776 :    78.974531013566010
 Root    777 :    79.263152692020160
 Root    778 :    79.634405895395400
 Root    779 :    79.714123071202270
 Root    780 :    79.917194612064680
 Root    781 :    79.974962890257900
 Root    782 :    80.102238022048410
[...]
     11   0.000000D+00  0.000000D+00  0.000000D+00  0.573506D+00  0.621890D+00
     12   0.000000D+00  0.000000D+00  0.000000D+00 -0.373389D-01 -0.146482D+00
     13   0.000000D+00  0.000000D+00  0.000000D+00 -0.557467D-01 -0.344141D-01
     14   0.000000D+00  0.000000D+00  0.000000D+00  0.204813D-01  0.460191D+00
     15  -0.250880D-02  0.219591D+00 -0.131115D+00  0.000000D+00  0.000000D+00
     16  -0.498976D-01 -0.119829D+00 -0.124760D+00  0.000000D+00  0.000000D+00
               796           797           798           799           800 
      1  -0.114668D+03 -0.114663D+03 -0.114661D+03 -0.114660D+03 -0.114656D+03
      2   0.238856D-01  0.000000D+00  0.669960D-02  0.264457D-01  0.000000D+00
      3  -0.140643D-01  0.000000D+00 -0.168213D-01 -0.250196D-01  0.000000D+00
      4   0.000000D+00 -0.159505D-01  0.000000D+00  0.000000D+00  0.614758D-01
      5  -0.351954D-01  0.000000D+00 -0.218234D-01 -0.712272D-01  0.000000D+00
      6   0.266204D-01  0.000000D+00  0.377823D-01  0.574281D-01  0.000000D+00
      7   0.000000D+00  0.429600D-01  0.000000D+00  0.000000D+00 -0.161814D+00
      8   0.000000D+00 -0.301728D-01  0.000000D+00  0.000000D+00  0.512012D-01
      9   0.000000D+00 -0.106796D+00  0.000000D+00  0.000000D+00  0.654289D+00
     10  -0.392531D+00  0.000000D+00 -0.176653D+00  0.119132D+00  0.000000D+00
     11  -0.865509D-01  0.000000D+00 -0.230783D+00 -0.600014D+00  0.000000D+00
     12  -0.227734D+00  0.000000D+00 -0.123063D+00  0.258159D+00  0.000000D+00
     13  -0.147361D+00  0.000000D+00  0.938213D-01 -0.135977D+00  0.000000D+00
     14  -0.382838D+00  0.000000D+00 -0.139125D+00  0.182197D+00  0.000000D+00
     15   0.000000D+00  0.193337D+00  0.000000D+00  0.000000D+00 -0.768826D+00
     16   0.000000D+00 -0.730221D-01  0.000000D+00  0.000000D+00  0.138166D+00
               801           802           803           804           805 
      1  -0.114649D+03 -0.114638D+03 -0.114630D+03 -0.114619D+03 -0.114614D+03
      2   0.000000D+00 -0.103449D+00  0.000000D+00  0.642110D-01  0.288496D-01
      3   0.000000D+00  0.519337D-02  0.000000D+00 -0.190804D-01  0.910500D-01
      4   0.235519D-01  0.000000D+00 -0.170186D-02  0.000000D+00  0.000000D+00
      5   0.000000D+00  0.289721D+00  0.000000D+00 -0.169125D+00 -0.864744D-01
      6   0.000000D+00  0.103137D-01  0.000000D+00  0.399812D-01 -0.242731D+00
      7  -0.575757D-01  0.000000D+00  0.126346D-01  0.000000D+00  0.000000D+00
      8  -0.745128D-01  0.000000D+00  0.151914D+00  0.000000D+00  0.000000D+00
      9   0.373793D+00  0.000000D+00 -0.150032D+00  0.000000D+00  0.000000D+00
     10   0.000000D+00 -0.260036D+00  0.000000D+00 -0.125704D+00 -0.437461D-01
     11   0.000000D+00  0.662106D-01  0.000000D+00  0.999747D-01 -0.505197D+00
     12   0.000000D+00 -0.162838D+00  0.000000D+00 -0.996294D-01  0.614969D-02
     13   0.000000D+00  0.291620D-02  0.000000D+00  0.106209D-01 -0.125094D-01
     14   0.000000D+00 -0.177676D+00  0.000000D+00 -0.331770D-01 -0.506527D-01
     15  -0.391057D+00  0.000000D+00  0.305549D+00  0.000000D+00  0.000000D+00
     16   0.536935D-01  0.000000D+00  0.200645D+00  0.000000D+00  0.000000D+00
               806           807           808           809           810 
      1  -0.114581D+03 -0.114579D+03 -0.114578D+03 -0.114578D+03 -0.114565D+03
      2   0.120084D-01  0.348164D-01  0.000000D+00  0.926855D-02 -0.982988D-02
      3  -0.224023D-01 -0.378903D-01  0.000000D+00  0.607790D-01  0.580642D-01
      4   0.000000D+00  0.000000D+00 -0.660890D-01  0.000000D+00  0.000000D+00
      5  -0.406923D-01 -0.898813D-01  0.000000D+00 -0.409284D-01  0.182921D-01
      6   0.438312D-01  0.109321D+00  0.000000D+00 -0.152723D+00 -0.155845D+00
      7   0.000000D+00  0.000000D+00  0.158085D+00  0.000000D+00  0.000000D+00
      8   0.000000D+00  0.000000D+00 -0.104346D+00  0.000000D+00  0.000000D+00
      9   0.000000D+00  0.000000D+00  0.341695D+00  0.000000D+00  0.000000D+00
     10  -0.867785D-01 -0.110673D-01  0.000000D+00 -0.972268D-01 -0.672393D-02
     11   0.658873D-01  0.839291D-01  0.000000D+00 -0.365029D+00 -0.169895D+00
     12  -0.242761D+00  0.100597D+00  0.000000D+00 -0.158981D+00  0.109138D+00
     13   0.369657D-01  0.496242D-02  0.000000D+00 -0.103312D+00 -0.716466D-01
     14  -0.624641D-02 -0.821345D-01  0.000000D+00 -0.184213D+00  0.205516D+00
     15   0.000000D+00  0.000000D+00 -0.407535D+00  0.000000D+00  0.000000D+00
     16   0.000000D+00  0.000000D+00 -0.305816D+00  0.000000D+00  0.000000D+00
               811           812           813           814           815 
      1  -0.114562D+03 -0.114554D+03 -0.114549D+03 -0.114532D+03 -0.114525D+03
      2  -0.383303D-01  0.105088D-01 -0.558091D-01  0.000000D+00  0.485563D-02
      3  -0.153346D+00 -0.682044D-01  0.209114D-02  0.000000D+00  0.177170D-01
      4   0.000000D+00  0.000000D+00  0.000000D+00  0.319855D-01  0.000000D+00
      5   0.120120D+00 -0.389382D-01  0.151260D+00  0.000000D+00  0.219682D-02
      6   0.405921D+00  0.180717D+00 -0.962577D-02  0.000000D+00 -0.453147D-01
      7   0.000000D+00  0.000000D+00  0.000000D+00 -0.742775D-01  0.000000D+00
      8   0.000000D+00  0.000000D+00  0.000000D+00 -0.885344D-01  0.000000D+00
      9   0.000000D+00  0.000000D+00  0.000000D+00  0.995135D-01  0.000000D+00
     10   0.243739D+00 -0.156422D+00 -0.212914D+00  0.000000D+00 -0.237903D+00
     11  -0.941891D+00  0.342111D+00  0.318309D+00  0.000000D+00 -0.331599D+00
     12   0.112614D+00 -0.580403D-03 -0.311047D+00  0.000000D+00 -0.309383D+00
     13  -0.358682D-01  0.121668D+00  0.523096D-01  0.000000D+00 -0.191861D+00
     14   0.435844D-01  0.606781D-01 -0.105440D+00  0.000000D+00 -0.436613D+00
     15   0.000000D+00  0.000000D+00  0.000000D+00 -0.115346D+00  0.000000D+00
     16   0.000000D+00  0.000000D+00  0.000000D+00 -0.281460D+00  0.000000D+00
               816           817           818           819           820 
      1  -0.114515D+03 -0.114512D+03 -0.114505D+03 -0.114500D+03 -0.114486D+03
      2   0.000000D+00  0.000000D+00 -0.442101D-01  0.780243D-01  0.271065D-01
      3   0.000000D+00  0.000000D+00  0.148278D-01 -0.384706D-01 -0.313375D-01
      4  -0.317932D-01 -0.231862D-01  0.000000D+00  0.000000D+00  0.000000D+00
      5   0.000000D+00  0.000000D+00  0.122946D+00 -0.205948D+00 -0.819034D-01
      6   0.000000D+00  0.000000D+00 -0.182056D-01  0.951461D-01  0.706811D-01
      7   0.923712D-01  0.725865D-01  0.000000D+00  0.000000D+00  0.000000D+00
      8   0.527293D-01  0.291142D-01  0.000000D+00  0.000000D+00  0.000000D+00
      9   0.440223D+00  0.135524D+00  0.000000D+00  0.000000D+00  0.000000D+00
     10   0.000000D+00  0.000000D+00 -0.280296D-01  0.129042D+00  0.184038D+00
     11   0.000000D+00  0.000000D+00 -0.661693D+00 -0.630174D+00  0.433575D+00
     12   0.000000D+00  0.000000D+00 -0.174204D+00 -0.301280D-02  0.161320D+00
     13   0.000000D+00  0.000000D+00  0.577964D-01  0.582635D-01 -0.116989D+00
     14   0.000000D+00  0.000000D+00 -0.953954D-01 -0.209412D+00  0.138723D+00
     15  -0.453598D+00 -0.249269D+00  0.000000D+00  0.000000D+00  0.000000D+00
     16   0.923088D-01  0.108792D+00  0.000000D+00  0.000000D+00  0.000000D+00
               821           822           823           824           825 
      1  -0.114481D+03 -0.114465D+03 -0.114459D+03 -0.114452D+03 -0.114440D+03
      2   0.000000D+00 -0.510858D-01  0.000000D+00  0.297655D-01 -0.382498D-01
      3   0.000000D+00 -0.165492D-01  0.000000D+00  0.163356D-01  0.103278D+00
      4   0.276208D-01  0.000000D+00 -0.107439D+00  0.000000D+00  0.000000D+00
      5   0.000000D+00  0.133407D+00  0.000000D+00 -0.913664D-01  0.103768D+00
      6   0.000000D+00  0.364230D-01  0.000000D+00 -0.538619D-01 -0.290181D+00
      7  -0.711911D-01  0.000000D+00  0.302466D+00  0.000000D+00  0.000000D+00
      8   0.964213D-01  0.000000D+00 -0.260040D+00  0.000000D+00  0.000000D+00
      9  -0.235497D+00  0.000000D+00  0.628103D+00  0.000000D+00  0.000000D+00
     10   0.000000D+00  0.155268D+00  0.000000D+00 -0.165279D-01  0.247488D+00
     11   0.000000D+00  0.644485D+00  0.000000D+00  0.282154D-01 -0.262301D+00
     12   0.000000D+00  0.363849D+00  0.000000D+00  0.583754D-01  0.179616D+00
     13   0.000000D+00 -0.317243D-01  0.000000D+00 -0.598727D-01  0.632874D-01
     14   0.000000D+00  0.257876D+00  0.000000D+00  0.392467D+00  0.125674D+00
     15   0.280876D+00  0.000000D+00 -0.644080D+00  0.000000D+00  0.000000D+00
     16   0.264602D+00  0.000000D+00 -0.235624D+00  0.000000D+00  0.000000D+00
               826           827           828           829           830 
      1  -0.114439D+03 -0.114429D+03 -0.114417D+03 -0.114410D+03 -0.114410D+03
      2   0.000000D+00  0.000000D+00 -0.682978D-01  0.000000D+00 -0.985328D-01
      3   0.000000D+00  0.000000D+00  0.643961D-01  0.000000D+00 -0.359568D-01
      4  -0.198573D-01 -0.241583D-01  0.000000D+00 -0.116381D-02  0.000000D+00
      5   0.000000D+00  0.000000D+00  0.182416D+00  0.000000D+00  0.279360D+00
      6   0.000000D+00  0.000000D+00 -0.182926D+00  0.000000D+00  0.989973D-01
      7   0.515148D-01  0.714336D-01  0.000000D+00 -0.157894D-02  0.000000D+00
      8  -0.175196D-01 -0.383617D-01  0.000000D+00 -0.587271D-02  0.000000D+00
      9   0.134600D+00 -0.157409D+00  0.000000D+00  0.286519D-02  0.000000D+00
     10   0.000000D+00  0.000000D+00  0.446675D+00  0.000000D+00  0.168996D+00
     11   0.000000D+00  0.000000D+00 -0.753088D+00  0.000000D+00 -0.105807D+01
     12   0.000000D+00  0.000000D+00  0.126393D+00  0.000000D+00 -0.891056D-01
     13   0.000000D+00  0.000000D+00 -0.886506D-01  0.000000D+00 -0.487614D-01
     14   0.000000D+00  0.000000D+00  0.362396D-01  0.000000D+00 -0.357976D+00
     15  -0.135995D+00  0.161201D+00  0.000000D+00  0.582797D-01  0.000000D+00
     16  -0.757205D-01  0.117452D+00  0.000000D+00  0.158878D+00  0.000000D+00
               831           832           833           834           835 
      1  -0.114391D+03 -0.114383D+03 -0.114378D+03 -0.114369D+03 -0.114366D+03
      2  -0.234021D-01  0.334833D-01  0.000000D+00  0.625231D-03  0.000000D+00
      3  -0.143942D-01  0.374720D-01  0.000000D+00  0.236531D-01  0.000000D+00
      4   0.000000D+00  0.000000D+00  0.616640D-01  0.000000D+00  0.600194D-01
      5   0.717499D-01 -0.901454D-01  0.000000D+00 -0.498485D-03  0.000000D+00
      6   0.390057D-01 -0.994108D-01  0.000000D+00 -0.674995D-01  0.000000D+00
      7   0.000000D+00  0.000000D+00 -0.171070D+00  0.000000D+00 -0.175204D+00
      8   0.000000D+00  0.000000D+00  0.228126D+00  0.000000D+00  0.204972D+00
      9   0.000000D+00  0.000000D+00 -0.409169D+00  0.000000D+00 -0.364651D+00
     10  -0.636655D-01  0.203082D+00  0.000000D+00  0.647032D+00  0.000000D+00
     11  -0.585230D+00 -0.360718D+00  0.000000D+00 -0.962499D-01  0.000000D+00
     12  -0.627377D-01  0.187947D+00  0.000000D+00  0.462280D+00  0.000000D+00
     13   0.234122D+00 -0.658917D-01  0.000000D+00  0.175556D-01  0.000000D+00
     14   0.690009D-01  0.258940D+00  0.000000D+00  0.633698D+00  0.000000D+00
     15   0.000000D+00  0.000000D+00  0.378226D+00  0.000000D+00  0.399676D+00
     16   0.000000D+00  0.000000D+00  0.162091D+00  0.000000D+00  0.196715D+00
               836           837           838           839           840 
      1  -0.114351D+03 -0.114331D+03 -0.114325D+03 -0.114322D+03 -0.114292D+03
      2  -0.271703D-01 -0.606455D-02  0.110034D-01 -0.106192D-01  0.000000D+00
      3  -0.640191D-01  0.454963D-01 -0.365432D-01  0.450602D-01  0.000000D+00
      4   0.000000D+00  0.000000D+00  0.000000D+00  0.000000D+00  0.166533D-01
      5   0.875983D-01  0.178717D-02 -0.437223D-01  0.349290D-01  0.000000D+00
      6   0.197534D+00 -0.133838D+00  0.107747D+00 -0.147453D+00  0.000000D+00
      7   0.000000D+00  0.000000D+00  0.000000D+00  0.000000D+00 -0.433840D-01
      8   0.000000D+00  0.000000D+00  0.000000D+00  0.000000D+00  0.632644D-01
      9   0.000000D+00  0.000000D+00  0.000000D+00  0.000000D+00 -0.129641D+00
     10   0.510197D+00 -0.299461D+00 -0.102075D+00  0.610305D-01  0.000000D+00
     11  -0.450071D+00 -0.857189D+00 -0.305342D+00  0.351086D+00  0.000000D+00
     12   0.370306D+00 -0.489881D+00 -0.229069D+00  0.880222D-01  0.000000D+00
     13   0.612640D-01  0.140384D+00 -0.489592D-01  0.349106D-01  0.000000D+00
     14   0.318293D+00 -0.628930D+00 -0.556140D-01  0.220996D+00  0.000000D+00
     15   0.000000D+00  0.000000D+00  0.000000D+00  0.000000D+00  0.932113D-01
     16   0.000000D+00  0.000000D+00  0.000000D+00  0.000000D+00  0.126824D-01
               841           842           843           844           845 
      1  -0.114289D+03 -0.114285D+03 -0.114278D+03 -0.114265D+03 -0.114252D+03
      2  -0.185806D-01  0.000000D+00  0.216666D-01 -0.227021D-01 -0.120691D-01
      3  -0.236620D-01  0.000000D+00  0.600676D-01  0.577152D-02 -0.217090D-01
      4   0.000000D+00  0.210652D-01  0.000000D+00  0.000000D+00  0.000000D+00
      5   0.609787D-01  0.000000D+00 -0.690748D-01  0.732763D-01  0.303634D-01
      6   0.772673D-01  0.000000D+00 -0.172181D+00 -0.743223D-02  0.632052D-01
      7   0.000000D+00 -0.606060D-01  0.000000D+00  0.000000D+00  0.000000D+00
      8   0.000000D+00  0.383635D-01  0.000000D+00  0.000000D+00  0.000000D+00
      9   0.000000D+00 -0.195898D+00  0.000000D+00  0.000000D+00  0.000000D+00
     10   0.119299D+00  0.000000D+00  0.215437D+00  0.290139D+00  0.295829D-02
     11   0.188413D+00  0.000000D+00 -0.658112D+00 -0.443935D-01 -0.153605D+00
     12   0.125758D-01  0.000000D+00  0.276589D+00 -0.692283D-01 -0.169243D+00
     13   0.144591D+00  0.000000D+00  0.132457D+00  0.130642D+00  0.122302D+00
     14   0.255744D+00  0.000000D+00 -0.154714D+00  0.496100D+00 -0.803400D-01
     15   0.000000D+00  0.692651D-01  0.000000D+00  0.000000D+00  0.000000D+00
     16   0.000000D+00 -0.418097D-01  0.000000D+00  0.000000D+00  0.000000D+00
               846           847           848           849           850 
      1  -0.114238D+03 -0.114236D+03 -0.114229D+03 -0.114176D+03 -0.114174D+03
      2  -0.819019D-01  0.489262D-02  0.000000D+00  0.000000D+00 -0.317271D-01
      3  -0.883348D-01  0.423724D-01  0.000000D+00  0.000000D+00  0.632867D-01
      4   0.000000D+00  0.000000D+00  0.178438D-02 -0.778900D-01  0.000000D+00
      5   0.232282D+00  0.101483D-01  0.000000D+00  0.000000D+00  0.868128D-01
      6   0.241889D+00 -0.114524D+00  0.000000D+00  0.000000D+00 -0.177337D+00
      7   0.000000D+00  0.000000D+00 -0.723694D-02  0.222117D+00  0.000000D+00
      8   0.000000D+00  0.000000D+00 -0.230589D-01 -0.196544D+00  0.000000D+00
      9   0.000000D+00  0.000000D+00 -0.355428D-01  0.444291D+00  0.000000D+00
     10   0.544991D-01 -0.390603D+00  0.000000D+00  0.000000D+00 -0.728295D-01
     11   0.216363D-01  0.275710D-01  0.000000D+00  0.000000D+00 -0.592440D-01
     12   0.268990D+00 -0.109820D+00  0.000000D+00  0.000000D+00 -0.595185D-03
     13   0.927812D-01 -0.191774D-01  0.000000D+00  0.000000D+00 -0.490745D-01
     14  -0.187659D-01 -0.499786D+00  0.000000D+00  0.000000D+00  0.308918D-01
     15   0.000000D+00  0.000000D+00  0.233112D-01 -0.286492D+00  0.000000D+00
     16   0.000000D+00  0.000000D+00 -0.859902D-01 -0.244896D+00  0.000000D+00
               851           852           853           854           855 
      1  -0.114162D+03 -0.114143D+03 -0.114134D+03 -0.114119D+03 -0.114080D+03
      2   0.117010D-01  0.149672D-01  0.356376D-01  0.358013D-01  0.000000D+00
      3   0.367970D-02 -0.153616D-01 -0.188992D-01 -0.931660D-02  0.000000D+00
      4   0.000000D+00  0.000000D+00  0.000000D+00  0.000000D+00  0.321272D-01
      5  -0.314140D-01 -0.449426D-01 -0.922183D-01 -0.126857D+00  0.000000D+00
      6  -0.939699D-02  0.407426D-01  0.540673D-01  0.302327D-01  0.000000D+00
      7   0.000000D+00  0.000000D+00  0.000000D+00  0.000000D+00 -0.895395D-01
      8   0.000000D+00  0.000000D+00  0.000000D+00  0.000000D+00  0.682713D-01
      9   0.000000D+00  0.000000D+00  0.000000D+00  0.000000D+00 -0.197319D+00
     10  -0.600660D-01 -0.857332D-01 -0.451456D+00 -0.623892D+00  0.000000D+00
     11  -0.326472D+00  0.760651D+00  0.504963D+00 -0.219212D+00  0.000000D+00
     12  -0.194635D-01  0.248230D+00 -0.178422D+00 -0.537439D-01  0.000000D+00
     13   0.296799D-01  0.768059D-01 -0.509421D-01 -0.396107D-01  0.000000D+00
     14   0.318976D-01 -0.793379D-01 -0.178570D+00 -0.596165D+00  0.000000D+00
     15   0.000000D+00  0.000000D+00  0.000000D+00  0.000000D+00  0.925935D-01
     16   0.000000D+00  0.000000D+00  0.000000D+00  0.000000D+00  0.143842D+00
               856           857           858           859           860 
      1  -0.114079D+03 -0.114075D+03 -0.114046D+03 -0.114036D+03 -0.114033D+03
      2   0.000000D+00  0.714322D-01  0.650723D-01  0.256442D-01  0.456389D-01
      3   0.000000D+00 -0.142729D-01 -0.783235D-01 -0.372196D-01  0.198479D-01
      4  -0.547440D-01  0.000000D+00  0.000000D+00  0.000000D+00  0.000000D+00
      5   0.000000D+00 -0.242352D+00 -0.194071D+00 -0.687909D-01 -0.152619D+00
      6   0.000000D+00  0.402055D-01  0.226841D+00  0.116266D+00 -0.556712D-01
      7   0.157880D+00  0.000000D+00  0.000000D+00  0.000000D+00  0.000000D+00
      8  -0.174167D+00  0.000000D+00  0.000000D+00  0.000000D+00  0.000000D+00
      9   0.349583D+00  0.000000D+00  0.000000D+00  0.000000D+00  0.000000D+00
     10   0.000000D+00  0.553506D+00 -0.729362D-01 -0.156321D+00  0.695573D-01
     11   0.000000D+00  0.212205D-01 -0.356105D+00  0.598196D+00 -0.769318D+00
     12   0.000000D+00 -0.150808D+00  0.156711D-01  0.112166D+00  0.339976D+00
     13   0.000000D+00 -0.801433D-01 -0.113645D+00 -0.202840D-01  0.709723D-02
     14   0.000000D+00  0.482152D+00 -0.994713D-01 -0.289030D-01 -0.236293D+00
     15  -0.261716D+00  0.000000D+00  0.000000D+00  0.000000D+00  0.000000D+00
     16  -0.172650D+00  0.000000D+00  0.000000D+00  0.000000D+00  0.000000D+00
               861           862           863           864 
      1  -0.113961D+03 -0.113951D+03 -0.113840D+03 -0.113749D+03
      2   0.309762D-02 -0.401958D-01  0.655799D-02 -0.132679D-01
      3  -0.201839D-01  0.229469D-01  0.368913D-01  0.875713D-02
      4   0.000000D+00  0.000000D+00  0.000000D+00  0.000000D+00
      5  -0.992472D-02  0.109229D+00 -0.602755D-02  0.519349D-01
      6   0.841695D-01 -0.735847D-01 -0.991749D-01 -0.138759D-01
      7   0.000000D+00  0.000000D+00  0.000000D+00  0.000000D+00
      8   0.000000D+00  0.000000D+00  0.000000D+00  0.000000D+00
      9   0.000000D+00  0.000000D+00  0.000000D+00  0.000000D+00
     10   0.420412D-01 -0.394792D+00 -0.205115D+00  0.272420D+00
     11  -0.358158D+00  0.483179D+00 -0.733901D-02  0.307317D+00
     12  -0.385742D-02 -0.283277D+00  0.193852D+00 -0.170778D-01
     13   0.101532D-01 -0.258385D-01 -0.313353D-01 -0.286337D-01
     14  -0.496482D-01 -0.220103D+00 -0.897616D-01  0.438234D+00
     15   0.000000D+00  0.000000D+00  0.000000D+00  0.000000D+00
     16   0.000000D+00  0.000000D+00  0.000000D+00  0.000000D+00
 Unable to Open any file for archive entry.
 1\1\GINC-HEL24\SP\RBLYP TD-FC\Gen\C3H6\SABYASACHI\21-Mar-2022\0\\#P TD
 (Nstates=10000) blyp/Gen SCF(maxcycles=100) Int(Grid=ultrafine)\\xGDB7
 _00001_tier4.com\\0,1\C,0,-1.131573,-0.504386,0.\C,0,0.,0.472223,0.\C,
 0,1.284136,0.150792,0.\H,0,-1.767446,-0.362775,0.877699\H,0,-0.770123,
 -1.533458,0.\H,0,-1.767446,-0.362775,-0.877699\H,0,-0.276551,1.523465,
 0.\H,0,1.608435,-0.884556,0.\H,0,2.057749,0.908326,0.\\Version=EM64L-G
 16RevC.01\State=1-A'\HF=-117.7522519\RMSD=1.980e-09\PG=CS [SG(C3H4),X(
 H2)]\\@
 The archive entry for this job was punched.


  THE LARGE PRINT GIVETH,
  AND THE SMALL PRINT TAKETH AWAY.

                     -- TOM WAITS
 Job cpu time:       0 days  0 hours 10 minutes 18.0 seconds.
 Elapsed time:       0 days  0 hours  1 minutes 17.6 seconds.
 File lengths (MBytes):  RWF=    377 Int=      0 D2E=      0 Chk=    240 Scr=      1
 Normal termination of Gaussian 16 at Mon Mar 21 20:07:50 2022.
