 Entering Gaussian System, Link 0=g16
 Input=000019.com
 Output=000019.log
 Initial command:
 /home/sabyasachi/g16/l1.exe "/scratch/sabyasachi/PBS_7975922.helios/Gau-30230.inp" -scrdir="/scratch/sabyasachi/PBS_7975922.helios/"
 Entering Link 1 = /home/sabyasachi/g16/l1.exe PID=     30231.
  
 Copyright (c) 1988-2019, Gaussian, Inc.  All Rights Reserved.
  
 This is part of the Gaussian(R) 16 program.  It is based on
 the Gaussian(R) 09 system (copyright 2009, Gaussian, Inc.),
 the Gaussian(R) 03 system (copyright 2003, Gaussian, Inc.),
 the Gaussian(R) 98 system (copyright 1998, Gaussian, Inc.),
 the Gaussian(R) 94 system (copyright 1995, Gaussian, Inc.),
 the Gaussian 92(TM) system (copyright 1992, Gaussian, Inc.),
 the Gaussian 90(TM) system (copyright 1990, Gaussian, Inc.),
 the Gaussian 88(TM) system (copyright 1988, Gaussian, Inc.),
 the Gaussian 86(TM) system (copyright 1986, Carnegie Mellon
 University), and the Gaussian 82(TM) system (copyright 1983,
 Carnegie Mellon University). Gaussian is a federally registered
 trademark of Gaussian, Inc.
  
 This software contains proprietary and confidential information,
 including trade secrets, belonging to Gaussian, Inc.
  
 This software is provided under written license and may be
 used, copied, transmitted, or stored only in accord with that
 written license.
  
 The following legend is applicable only to US Government
 contracts under FAR:
  
                    RESTRICTED RIGHTS LEGEND
  
 Use, reproduction and disclosure by the US Government is
 subject to restrictions as set forth in subparagraphs (a)
 and (c) of the Commercial Computer Software - Restricted
 Rights clause in FAR 52.227-19.
  
 Gaussian, Inc.
 340 Quinnipiac St., Bldg. 40, Wallingford CT 06492
  
  
 ---------------------------------------------------------------
 Warning -- This program may not be used in any manner that
 competes with the business of Gaussian, Inc. or will provide
 assistance to any competitor of Gaussian, Inc.  The licensee
 of this program is prohibited from giving any competitor of
 Gaussian, Inc. access to this program.  By using this program,
 the user acknowledges that Gaussian, Inc. is engaged in the
 business of creating and licensing software in the field of
 computational chemistry and represents and warrants to the
 licensee that it is not a competitor of Gaussian, Inc. and that
 it will not use this program in any manner prohibited above.
 ---------------------------------------------------------------
  

 Cite this work as:
 Gaussian 16, Revision C.01,
 M. J. Frisch, G. W. Trucks, H. B. Schlegel, G. E. Scuseria, 
 M. A. Robb, J. R. Cheeseman, G. Scalmani, V. Barone, 
 G. A. Petersson, H. Nakatsuji, X. Li, M. Caricato, A. V. Marenich, 
 J. Bloino, B. G. Janesko, R. Gomperts, B. Mennucci, H. P. Hratchian, 
 J. V. Ortiz, A. F. Izmaylov, J. L. Sonnenberg, D. Williams-Young, 
 F. Ding, F. Lipparini, F. Egidi, J. Goings, B. Peng, A. Petrone, 
 T. Henderson, D. Ranasinghe, V. G. Zakrzewski, J. Gao, N. Rega, 
 G. Zheng, W. Liang, M. Hada, M. Ehara, K. Toyota, R. Fukuda, 
 J. Hasegawa, M. Ishida, T. Nakajima, Y. Honda, O. Kitao, H. Nakai, 
 T. Vreven, K. Throssell, J. A. Montgomery, Jr., J. E. Peralta, 
 F. Ogliaro, M. J. Bearpark, J. J. Heyd, E. N. Brothers, K. N. Kudin, 
 V. N. Staroverov, T. A. Keith, R. Kobayashi, J. Normand, 
 K. Raghavachari, A. P. Rendell, J. C. Burant, S. S. Iyengar, 
 J. Tomasi, M. Cossi, J. M. Millam, M. Klene, C. Adamo, R. Cammi, 
 J. W. Ochterski, R. L. Martin, K. Morokuma, O. Farkas, 
 J. B. Foresman, and D. J. Fox, Gaussian, Inc., Wallingford CT, 2019.
 
 ******************************************
 Gaussian 16:  EM64L-G16RevC.01  3-Jul-2019
                21-Mar-2022 
 ******************************************
 %mem=64gb
 %nproc=8
 Will use up to    8 processors via shared memory.
 --------------------------------------------------------------------
 #P TD(Nstates=10000) blyp/Gen SCF(maxcycles=100) Int(Grid=ultrafine)
 --------------------------------------------------------------------
 1/38=1,172=1/1;
 2/12=2,17=6,18=5,40=1/2;
 3/5=7,11=9,25=1,30=1,74=402,75=-5/1,2,3,8;
 4//1;
 5/5=2,7=100,38=5/2;
 8/6=1,10=1,108=10000/1;
 9/41=10000,42=1,70=2/14;
 6/7=2,8=2,9=2,10=2/1;
 99/5=1,9=1/99;
 Leave Link    1 at Mon Mar 21 20:06:22 2022, MaxMem=  8589934592 cpu:               0.4 elap:               0.1
 (Enter /home/sabyasachi/g16/l101.exe)
 ---------------------
 xGDB7_00001_tier4.com
 ---------------------
 Symbolic Z-matrix:
 Charge =  0 Multiplicity = 1
 6                    -0.02666  -0.22092   1.20692 
 7                    -0.02666   0.57968   0. 
 6                    -0.02666  -0.22092  -1.20692 
 1                     0.02893   0.4272    2.08233 
 1                     0.80084  -0.94738   1.25857 
 1                    -0.96172  -0.78309   1.26937 
 1                     0.77036   1.19991   0. 
 1                    -0.96172  -0.78309  -1.26937 
 1                     0.80084  -0.94738  -1.25857 
 1                     0.02893   0.4272   -2.08233 
 
 ITRead=  0  0  0  0  0  0  0  0  0  0
 MicOpt= -1 -1 -1 -1 -1 -1 -1 -1 -1 -1
 NAtoms=     10 NQM=       10 NQMF=       0 NMMI=      0 NMMIF=      0
                NMic=       0 NMicF=      0.
                    Isotopes and Nuclear Properties:
 (Nuclear quadrupole moments (NQMom) in fm**2, nuclear magnetic moments (NMagM)
  in nuclear magnetons)

  Atom         1           2           3           4           5           6           7           8           9          10
 IAtWgt=          12          14          12           1           1           1           1           1           1           1
 AtmWgt=  12.0000000  14.0030740  12.0000000   1.0078250   1.0078250   1.0078250   1.0078250   1.0078250   1.0078250   1.0078250
 NucSpn=           0           2           0           1           1           1           1           1           1           1
 AtZEff=  -0.0000000  -0.0000000  -0.0000000  -0.0000000  -0.0000000  -0.0000000  -0.0000000  -0.0000000  -0.0000000  -0.0000000
 NQMom=    0.0000000   2.0440000   0.0000000   0.0000000   0.0000000   0.0000000   0.0000000   0.0000000   0.0000000   0.0000000
 NMagM=    0.0000000   0.4037610   0.0000000   2.7928460   2.7928460   2.7928460   2.7928460   2.7928460   2.7928460   2.7928460
 AtZNuc=   6.0000000   7.0000000   6.0000000   1.0000000   1.0000000   1.0000000   1.0000000   1.0000000   1.0000000   1.0000000
 Leave Link  101 at Mon Mar 21 20:06:22 2022, MaxMem=  8589934592 cpu:               0.7 elap:               0.1
 (Enter /home/sabyasachi/g16/l202.exe)
                          Input orientation:                          
 ---------------------------------------------------------------------
 Center     Atomic      Atomic             Coordinates (Angstroms)
 Number     Number       Type             X           Y           Z
 ---------------------------------------------------------------------
      1          6           0       -0.026655   -0.220923    1.206915
      2          7           0       -0.026655    0.579675    0.000000
      3          6           0       -0.026655   -0.220923   -1.206915
      4          1           0        0.028929    0.427196    2.082330
      5          1           0        0.800836   -0.947383    1.258571
      6          1           0       -0.961718   -0.783094    1.269367
      7          1           0        0.770359    1.199905    0.000000
      8          1           0       -0.961718   -0.783094   -1.269367
      9          1           0        0.800836   -0.947383   -1.258571
     10          1           0        0.028929    0.427196   -2.082330
 ---------------------------------------------------------------------
                    Distance matrix (angstroms):
                    1          2          3          4          5
     1  C    0.000000
     2  N    1.448310   0.000000
     3  C    2.413830   1.448310   0.000000
     4  H    1.090642   2.088645   3.352951   0.000000
     5  H    1.102340   2.144912   2.700205   1.778732   0.000000
     6  H    1.092831   2.083933   2.705984   1.762695   1.770227
     7  H    2.027468   1.009909   2.027468   2.341558   2.489131
     8  H    2.705984   2.083933   1.092831   3.698656   3.086107
     9  H    2.700205   2.144912   1.102340   3.694175   2.517142
    10  H    3.352951   2.088645   1.090642   4.164660   3.694175
                    6          7          8          9         10
     6  H    0.000000
     7  H    2.922955   0.000000
     8  H    2.538734   2.922955   0.000000
     9  H    3.086107   2.489131   1.770227   0.000000
    10  H    3.698656   2.341558   1.762695   1.778732   0.000000
 Stoichiometry    C2H7N
 Framework group  CS[SG(HN),X(C2H6)]
 Deg. of freedom    13
 Full point group                 CS      NOp   2
 Largest Abelian subgroup         CS      NOp   2
 Largest concise Abelian subgroup CS      NOp   2
                         Standard orientation:                         
 ---------------------------------------------------------------------
 Center     Atomic      Atomic             Coordinates (Angstroms)
 Number     Number       Type             X           Y           Z
 ---------------------------------------------------------------------
      1          6           0       -0.026655   -0.220923    1.206915
      2          7           0       -0.026655    0.579675   -0.000000
      3          6           0       -0.026655   -0.220923   -1.206915
      4          1           0        0.028929    0.427196    2.082330
      5          1           0        0.800836   -0.947383    1.258571
      6          1           0       -0.961718   -0.783094    1.269367
      7          1           0        0.770359    1.199905   -0.000000
      8          1           0       -0.961718   -0.783094   -1.269367
      9          1           0        0.800836   -0.947383   -1.258571
     10          1           0        0.028929    0.427196   -2.082330
 ---------------------------------------------------------------------
 Rotational constants (GHZ):          34.9124078           9.3924968           8.2918128
 Leave Link  202 at Mon Mar 21 20:06:23 2022, MaxMem=  8589934592 cpu:               0.1 elap:               0.0
 (Enter /home/sabyasachi/g16/l301.exe)
 General basis read from cards:  (5D, 7F)
 Centers:       4      5      6      7      8      9     10
 S 3 1.00
     Exponent=  1.3010701000D+01 Coefficients=  1.9682158000D-02
     Exponent=  1.9622572000D+00 Coefficients=  1.3796524000D-01
     Exponent=  4.4453796000D-01 Coefficients=  4.7831935000D-01
 S 1 1.00
     Exponent=  1.2194962000D-01 Coefficients=  1.0000000000D+00
 P 1 1.00
     Exponent=  8.0000000000D-01 Coefficients=  1.0000000000D+00
 P 1 1.00
     Exponent=  1.1704099050D-01 Coefficients=  1.0000000000D+00
 ****
 Centers:       1      3
 S 5 1.00
     Exponent=  1.2384016938D+03 Coefficients=  5.4568832082D-03
     Exponent=  1.8629004992D+02 Coefficients=  4.0638409211D-02
     Exponent=  4.2251176346D+01 Coefficients=  1.8025593888D-01
     Exponent=  1.1676557932D+01 Coefficients=  4.6315121755D-01
     Exponent=  3.5930506482D+00 Coefficients=  4.4087173314D-01
 S 1 1.00
     Exponent=  4.0245147363D-01 Coefficients=  1.0000000000D+00
 S 1 1.00
     Exponent=  1.3090182668D-01 Coefficients=  1.0000000000D+00
 S 1 1.00
     Exponent=  6.7053540256D-02 Coefficients=  1.0000000000D+00
 P 3 1.00
     Exponent=  9.4680970621D+00 Coefficients=  3.8387871728D-02
     Exponent=  2.0103545142D+00 Coefficients=  2.1117025112D-01
     Exponent=  5.4771004707D-01 Coefficients=  5.1328172114D-01
 P 1 1.00
     Exponent=  1.5268613795D-01 Coefficients=  1.0000000000D+00
 D 1 1.00
     Exponent=  8.0000000000D-01 Coefficients=  1.0000000000D+00
 D 1 1.00
     Exponent=  1.1713185140D-01 Coefficients=  1.0000000000D+00
 ****
 Centers:       2
 S 5 1.00
     Exponent=  1.7128415853D+03 Coefficients= -5.3934125305D-03
     Exponent=  2.5764812677D+02 Coefficients= -4.0221581118D-02
     Exponent=  5.8458245853D+01 Coefficients= -1.7931144990D-01
     Exponent=  1.6198367905D+01 Coefficients= -4.6376317823D-01
     Exponent=  5.0052600809D+00 Coefficients= -4.4171422662D-01
 S 1 1.00
     Exponent=  5.8731856571D-01 Coefficients=  1.0000000000D+00
 S 1 1.00
     Exponent=  1.8764592253D-01 Coefficients=  1.0000000000D+00
 S 1 1.00
     Exponent=  9.6171241529D-02 Coefficients=  1.0000000000D+00
 P 3 1.00
     Exponent=  1.3571470233D+01 Coefficients= -4.0072398852D-02
     Exponent=  2.9257372874D+00 Coefficients= -2.1807045028D-01
     Exponent=  7.9927750754D-01 Coefficients= -5.1294466049D-01
 P 1 1.00
     Exponent=  2.1954348034D-01 Coefficients=  1.0000000000D+00
 D 1 1.00
     Exponent=  1.0000000000D+00 Coefficients=  1.0000000000D+00
 D 1 1.00
     Exponent=  1.6697708112D-01 Coefficients=  1.0000000000D+00
 ****
 Ernie: Thresh=  0.10000D-02 Tol=  0.10000D-05 Strict=F.
 There are    68 symmetry adapted cartesian basis functions of A'  symmetry.
 There are    54 symmetry adapted cartesian basis functions of A"  symmetry.
 There are    64 symmetry adapted basis functions of A'  symmetry.
 There are    52 symmetry adapted basis functions of A"  symmetry.
   116 basis functions,   166 primitive gaussians,   122 cartesian basis functions
    13 alpha electrons       13 beta electrons
       nuclear repulsion energy        84.4195862032 Hartrees.
 IExCor=  402 DFT=T Ex=B Corr=LYP ExCW=0 ScaHFX=  0.000000
 ScaDFX=  1.000000  1.000000  1.000000  1.000000 ScalE2=  1.000000  1.000000
 IRadAn=      5 IRanWt=     -1 IRanGd=            0 ICorTp=0 IEmpDi=  4
 NAtoms=   10 NActive=   10 NUniq=    6 SFac= 2.78D+00 NAtFMM=   60 NAOKFM=F Big=F
 Integral buffers will be    131072 words long.
 Regular integral format.
 Two-electron integral symmetry is turned on.
 Leave Link  301 at Mon Mar 21 20:06:23 2022, MaxMem=  8589934592 cpu:               0.6 elap:               0.1
 (Enter /home/sabyasachi/g16/l302.exe)
 NPDir=0 NMtPBC=     1 NCelOv=     1 NCel=       1 NClECP=     1 NCelD=      1
         NCelK=      1 NCelE2=     1 NClLst=     1 CellRange=     0.0.
 One-electron integrals computed using PRISM.
 One-electron integral symmetry used in STVInt
 NBasis=   116 RedAO= T EigKep=  3.71D-04  NBF=    64    52
 NBsUse=   116 1.00D-06 EigRej= -1.00D+00 NBFU=    64    52
 Precomputing XC quadrature grid using
 IXCGrd= 4 IRadAn=           5 IRanWt=          -1 IRanGd=           0 AccXCQ= 0.00D+00.
 Generated NRdTot=       0 NPtTot=           0 NUsed=           0 NTot=          32
 NSgBfM=   122   122   122   122   122 MxSgAt=    10 MxSgA2=    10.
 Leave Link  302 at Mon Mar 21 20:06:23 2022, MaxMem=  8589934592 cpu:               1.1 elap:               0.2
 (Enter /home/sabyasachi/g16/l303.exe)
 DipDrv:  MaxL=1.
 Leave Link  303 at Mon Mar 21 20:06:23 2022, MaxMem=  8589934592 cpu:               0.2 elap:               0.0
 (Enter /home/sabyasachi/g16/l308.exe)
 Leave Link  308 at Mon Mar 21 20:06:23 2022, MaxMem=  8589934592 cpu:               0.2 elap:               0.1
 (Enter /home/sabyasachi/g16/l401.exe)
 ExpMin= 6.71D-02 ExpMax= 1.71D+03 ExpMxC= 2.58D+02 IAcc=3 IRadAn=         5 AccDes= 0.00D+00
 Harris functional with IExCor=  402 and IRadAn=       5 diagonalized for initial guess.
 HarFok:  IExCor=  402 AccDes= 0.00D+00 IRadAn=         5 IDoV= 1 UseB2=F ITyADJ=14
 ICtDFT=  3500011 ScaDFX=  1.000000  1.000000  1.000000  1.000000
 FoFCou: FMM=F IPFlag=           0 FMFlag=      100000 FMFlg1=           0
         NFxFlg=           0 DoJE=T BraDBF=F KetDBF=T FulRan=T
         wScrn=  0.000000 ICntrl=       500 IOpCl=  0 I1Cent=   200000004 NGrid=           0
         NMat0=    1 NMatS0=      1 NMatT0=    0 NMatD0=    1 NMtDS0=    0 NMtDT0=    0
 Petite list used in FoFCou.
 Harris En= -135.095384648195    
 JPrj=0 DoOrth=F DoCkMO=F.
 Initial guess orbital symmetries:
       Occupied  (A') (A") (A') (A') (A") (A') (A') (A") (A') (A")
                 (A") (A') (A')
       Virtual   (A') (A") (A') (A') (A') (A") (A') (A") (A') (A")
                 (A") (A') (A") (A') (A') (A") (A') (A') (A") (A')
                 (A') (A') (A") (A') (A") (A') (A") (A') (A") (A")
                 (A') (A") (A') (A') (A') (A") (A") (A') (A') (A")
                 (A") (A") (A') (A") (A") (A') (A') (A") (A') (A')
                 (A") (A') (A") (A') (A') (A") (A") (A') (A') (A")
                 (A") (A') (A") (A') (A') (A") (A") (A') (A') (A")
                 (A') (A') (A") (A') (A") (A") (A') (A') (A") (A")
                 (A') (A') (A") (A') (A") (A') (A") (A') (A") (A')
                 (A") (A') (A') (A") (A') (A") (A') (A') (A") (A")
                 (A') (A") (A')
 The electronic state of the initial guess is 1-A'.
 Leave Link  401 at Mon Mar 21 20:06:23 2022, MaxMem=  8589934592 cpu:               2.4 elap:               0.3
 (Enter /home/sabyasachi/g16/l502.exe)
 Keep J ints in memory in symmetry-blocked form, NReq=34564347.
 FoFCou: FMM=F IPFlag=           0 FMFlag=           0 FMFlg1=           0
         NFxFlg=           0 DoJE=F BraDBF=F KetDBF=F FulRan=T
         wScrn=  0.000000 ICntrl=       600 IOpCl=  0 I1Cent=           0 NGrid=           0
         NMat0=    1 NMatS0=   6786 NMatT0=    0 NMatD0=    1 NMtDS0=    0 NMtDT0=    0
 Petite list used in FoFCou.
 Closed shell SCF:
 Using DIIS extrapolation, IDIIS=  1040.
 NGot=  8589934592 LenX=  8578367329 LenY=  8578352004
 Requested convergence on RMS density matrix=1.00D-08 within 100 cycles.
 Requested convergence on MAX density matrix=1.00D-06.
 Requested convergence on             energy=1.00D-06.
 No special actions if energy rises.
 Integral accuracy reduced to 1.0D-05 until final iterations.

 Cycle   1  Pass 0  IDiag  1:
 E= -134.880865034690    
 DIIS: error= 3.30D-02 at cycle   1 NSaved=   1.
 NSaved= 1 IEnMin= 1 EnMin= -134.880865034690     IErMin= 1 ErrMin= 3.30D-02
 ErrMax= 3.30D-02  0.00D+00 EMaxC= 1.00D-01 BMatC= 9.84D-02 BMatP= 9.84D-02
 IDIUse=3 WtCom= 6.70D-01 WtEn= 3.30D-01
 Coeff-Com:  0.100D+01
 Coeff-En:   0.100D+01
 Coeff:      0.100D+01
 Gap=     0.090 Goal=   None    Shift=    0.000
 GapD=    0.090 DampG=0.500 DampE=0.500 DampFc=0.2500 IDamp=-1.
 Damping current iteration by 2.50D-01
 RMSDP=1.64D-02 MaxDP=1.02D+00              OVMax= 2.71D-01

 Cycle   2  Pass 0  IDiag  1:
 E= -134.921923487629     Delta-E=       -0.041058452939 Rises=F Damp=T
 DIIS: error= 1.06D-02 at cycle   2 NSaved=   2.
 NSaved= 2 IEnMin= 2 EnMin= -134.921923487629     IErMin= 2 ErrMin= 1.06D-02
 ErrMax= 1.06D-02  0.00D+00 EMaxC= 1.00D-01 BMatC= 1.33D-02 BMatP= 9.84D-02
 IDIUse=3 WtCom= 8.94D-01 WtEn= 1.06D-01
 Coeff-Com: -0.459D+00 0.146D+01
 Coeff-En:   0.000D+00 0.100D+01
 Coeff:     -0.410D+00 0.141D+01
 Gap=     0.185 Goal=   None    Shift=    0.000
 RMSDP=2.92D-03 MaxDP=7.25D-02 DE=-4.11D-02 OVMax= 1.95D-01

 Cycle   3  Pass 0  IDiag  1:
 E= -134.990342371141     Delta-E=       -0.068418883512 Rises=F Damp=F
 DIIS: error= 5.25D-03 at cycle   3 NSaved=   3.
 NSaved= 3 IEnMin= 3 EnMin= -134.990342371141     IErMin= 3 ErrMin= 5.25D-03
 ErrMax= 5.25D-03  0.00D+00 EMaxC= 1.00D-01 BMatC= 4.95D-03 BMatP= 1.33D-02
 IDIUse=3 WtCom= 9.47D-01 WtEn= 5.25D-02
 Coeff-Com: -0.259D+00 0.790D+00 0.468D+00
 Coeff-En:   0.000D+00 0.000D+00 0.100D+01
 Coeff:     -0.245D+00 0.749D+00 0.496D+00
 Gap=     0.180 Goal=   None    Shift=    0.000
 RMSDP=1.00D-03 MaxDP=4.66D-02 DE=-6.84D-02 OVMax= 2.03D-02

 Cycle   4  Pass 0  IDiag  1:
 E= -134.994201113641     Delta-E=       -0.003858742500 Rises=F Damp=F
 DIIS: error= 2.05D-03 at cycle   4 NSaved=   4.
 NSaved= 4 IEnMin= 4 EnMin= -134.994201113641     IErMin= 4 ErrMin= 2.05D-03
 ErrMax= 2.05D-03  0.00D+00 EMaxC= 1.00D-01 BMatC= 6.79D-04 BMatP= 4.95D-03
 IDIUse=3 WtCom= 9.80D-01 WtEn= 2.05D-02
 Coeff-Com: -0.860D-01 0.242D+00 0.280D+00 0.564D+00
 Coeff-En:   0.000D+00 0.000D+00 0.932D-01 0.907D+00
 Coeff:     -0.843D-01 0.237D+00 0.276D+00 0.571D+00
 Gap=     0.183 Goal=   None    Shift=    0.000
 RMSDP=4.64D-04 MaxDP=3.03D-02 DE=-3.86D-03 OVMax= 6.06D-03

 Cycle   5  Pass 0  IDiag  1:
 E= -134.994766105680     Delta-E=       -0.000564992039 Rises=F Damp=F
 DIIS: error= 3.40D-04 at cycle   5 NSaved=   5.
 NSaved= 5 IEnMin= 5 EnMin= -134.994766105680     IErMin= 5 ErrMin= 3.40D-04
 ErrMax= 3.40D-04  0.00D+00 EMaxC= 1.00D-01 BMatC= 1.84D-05 BMatP= 6.79D-04
 IDIUse=3 WtCom= 9.97D-01 WtEn= 3.40D-03
 Coeff-Com: -0.107D-01 0.214D-01 0.493D-01 0.205D+00 0.735D+00
 Coeff-En:   0.000D+00 0.000D+00 0.000D+00 0.000D+00 0.100D+01
 Coeff:     -0.106D-01 0.213D-01 0.492D-01 0.205D+00 0.735D+00
 Gap=     0.182 Goal=   None    Shift=    0.000
 RMSDP=1.10D-04 MaxDP=6.87D-03 DE=-5.65D-04 OVMax= 1.37D-03

 Cycle   6  Pass 0  IDiag  1:
 E= -134.994782335239     Delta-E=       -0.000016229558 Rises=F Damp=F
 DIIS: error= 6.96D-05 at cycle   6 NSaved=   6.
 NSaved= 6 IEnMin= 6 EnMin= -134.994782335239     IErMin= 6 ErrMin= 6.96D-05
 ErrMax= 6.96D-05  0.00D+00 EMaxC= 1.00D-01 BMatC= 3.19D-07 BMatP= 1.84D-05
 IDIUse=1 WtCom= 1.00D+00 WtEn= 0.00D+00
 Coeff-Com: -0.196D-02 0.258D-02 0.122D-01 0.638D-01 0.278D+00 0.646D+00
 Coeff:     -0.196D-02 0.258D-02 0.122D-01 0.638D-01 0.278D+00 0.646D+00
 Gap=     0.182 Goal=   None    Shift=    0.000
 RMSDP=1.13D-05 MaxDP=4.11D-04 DE=-1.62D-05 OVMax= 2.50D-04

 Cycle   7  Pass 0  IDiag  1:
 E= -134.994782751222     Delta-E=       -0.000000415984 Rises=F Damp=F
 DIIS: error= 7.66D-06 at cycle   7 NSaved=   7.
 NSaved= 7 IEnMin= 7 EnMin= -134.994782751222     IErMin= 7 ErrMin= 7.66D-06
 ErrMax= 7.66D-06  0.00D+00 EMaxC= 1.00D-01 BMatC= 5.17D-09 BMatP= 3.19D-07
 IDIUse=1 WtCom= 1.00D+00 WtEn= 0.00D+00
 Coeff-Com:  0.594D-04-0.329D-03 0.543D-03 0.545D-02 0.293D-01 0.150D+00
 Coeff-Com:  0.815D+00
 Coeff:      0.594D-04-0.329D-03 0.543D-03 0.545D-02 0.293D-01 0.150D+00
 Coeff:      0.815D+00
 Gap=     0.182 Goal=   None    Shift=    0.000
 RMSDP=1.51D-06 MaxDP=3.36D-05 DE=-4.16D-07 OVMax= 2.45D-05

 Initial convergence to 1.0D-05 achieved.  Increase integral accuracy.
 Cycle   8  Pass 1  IDiag  1:
 E= -134.994786777193     Delta-E=       -0.000004025970 Rises=F Damp=F
 DIIS: error= 2.68D-06 at cycle   1 NSaved=   1.
 NSaved= 1 IEnMin= 1 EnMin= -134.994786777193     IErMin= 1 ErrMin= 2.68D-06
 ErrMax= 2.68D-06  0.00D+00 EMaxC= 1.00D-01 BMatC= 7.80D-10 BMatP= 7.80D-10
 IDIUse=1 WtCom= 1.00D+00 WtEn= 0.00D+00
 Coeff-Com:  0.100D+01
 Coeff:      0.100D+01
 Gap=     0.182 Goal=   None    Shift=    0.000
 RMSDP=1.51D-06 MaxDP=3.36D-05 DE=-4.03D-06 OVMax= 1.64D-05

 Cycle   9  Pass 1  IDiag  1:
 E= -134.994786778394     Delta-E=       -0.000000001201 Rises=F Damp=F
 DIIS: error= 9.26D-07 at cycle   2 NSaved=   2.
 NSaved= 2 IEnMin= 2 EnMin= -134.994786778394     IErMin= 2 ErrMin= 9.26D-07
 ErrMax= 9.26D-07  0.00D+00 EMaxC= 1.00D-01 BMatC= 8.85D-11 BMatP= 7.80D-10
 IDIUse=1 WtCom= 1.00D+00 WtEn= 0.00D+00
 Coeff-Com:  0.155D+00 0.845D+00
 Coeff:      0.155D+00 0.845D+00
 Gap=     0.182 Goal=   None    Shift=    0.000
 RMSDP=2.16D-07 MaxDP=3.20D-06 DE=-1.20D-09 OVMax= 4.80D-06

 Cycle  10  Pass 1  IDiag  1:
 E= -134.994786778402     Delta-E=       -0.000000000008 Rises=F Damp=F
 DIIS: error= 1.03D-06 at cycle   3 NSaved=   3.
 NSaved= 3 IEnMin= 3 EnMin= -134.994786778402     IErMin= 2 ErrMin= 9.26D-07
 ErrMax= 1.03D-06  0.00D+00 EMaxC= 1.00D-01 BMatC= 8.33D-11 BMatP= 8.85D-11
 IDIUse=1 WtCom= 1.00D+00 WtEn= 0.00D+00
 Coeff-Com:  0.112D-01 0.491D+00 0.498D+00
 Coeff:      0.112D-01 0.491D+00 0.498D+00
 Gap=     0.182 Goal=   None    Shift=    0.000
 RMSDP=9.74D-08 MaxDP=2.12D-06 DE=-7.90D-12 OVMax= 2.53D-06

 Cycle  11  Pass 1  IDiag  1:
 E= -134.994786778491     Delta-E=       -0.000000000089 Rises=F Damp=F
 DIIS: error= 1.29D-07 at cycle   4 NSaved=   4.
 NSaved= 4 IEnMin= 4 EnMin= -134.994786778491     IErMin= 4 ErrMin= 1.29D-07
 ErrMax= 1.29D-07  0.00D+00 EMaxC= 1.00D-01 BMatC= 2.85D-12 BMatP= 8.33D-11
 IDIUse=1 WtCom= 1.00D+00 WtEn= 0.00D+00
 Coeff-Com: -0.143D-02 0.221D+00 0.257D+00 0.524D+00
 Coeff:     -0.143D-02 0.221D+00 0.257D+00 0.524D+00
 Gap=     0.182 Goal=   None    Shift=    0.000
 RMSDP=4.28D-08 MaxDP=2.96D-06 DE=-8.89D-11 OVMax= 6.93D-07

 Cycle  12  Pass 1  IDiag  1:
 E= -134.994786778492     Delta-E=       -0.000000000001 Rises=F Damp=F
 DIIS: error= 3.72D-08 at cycle   5 NSaved=   5.
 NSaved= 5 IEnMin= 5 EnMin= -134.994786778492     IErMin= 5 ErrMin= 3.72D-08
 ErrMax= 3.72D-08  0.00D+00 EMaxC= 1.00D-01 BMatC= 2.04D-13 BMatP= 2.85D-12
 IDIUse=1 WtCom= 1.00D+00 WtEn= 0.00D+00
 Coeff-Com: -0.137D-02 0.973D-01 0.115D+00 0.297D+00 0.492D+00
 Coeff:     -0.137D-02 0.973D-01 0.115D+00 0.297D+00 0.492D+00
 Gap=     0.182 Goal=   None    Shift=    0.000
 RMSDP=8.19D-09 MaxDP=5.02D-07 DE=-7.96D-13 OVMax= 1.75D-07

 SCF Done:  E(RB-LYP) =  -134.994786778     A.U. after   12 cycles
            NFock= 12  Conv=0.82D-08     -V/T= 2.0109
 KE= 1.335373606128D+02 PE=-4.813085417683D+02 EE= 1.283568081738D+02
 Leave Link  502 at Mon Mar 21 20:06:25 2022, MaxMem=  8589934592 cpu:              15.6 elap:               2.1
 (Enter /home/sabyasachi/g16/l801.exe)
 DoSCS=F DFT=T ScalE2(SS,OS)=  1.000000  1.000000
 ExpMin= 6.71D-02 ExpMax= 1.71D+03 ExpMxC= 2.58D+02 IAcc=3 IRadAn=         5 AccDes= 0.00D+00
 HarFok:  IExCor=  205 AccDes= 0.00D+00 IRadAn=         5 IDoV=-2 UseB2=F ITyADJ=14
 ICtDFT= 12500011 ScaDFX=  1.000000  1.000000  1.000000  1.000000
 Largest valence mixing into a core orbital is  6.95D-05
 Largest core mixing into a valence orbital is  1.38D-05
 Range of M.O.s used for correlation:     4   116
 NBasis=   116 NAE=    13 NBE=    13 NFC=     3 NFV=     0
 NROrb=    113 NOA=    10 NOB=    10 NVA=   103 NVB=   103

 **** Warning!!: The largest alpha MO coefficient is  0.17090335D+02

 Leave Link  801 at Mon Mar 21 20:06:25 2022, MaxMem=  8589934592 cpu:               0.6 elap:               0.1
 (Enter /home/sabyasachi/g16/l914.exe)
 RHF ground state
 Keep J ints in memory in symmetry-blocked form, NReq=1236304925.
 FoFCou: FMM=F IPFlag=           0 FMFlag=           0 FMFlg1=           0
         NFxFlg=           0 DoJE=F BraDBF=F KetDBF=F FulRan=T
         wScrn=  0.000000 ICntrl=       600 IOpCl=  0 I1Cent=           0 NGrid=           0
         NMat0=    1 NMatS0=   6786 NMatT0=    0 NMatD0=    1 NMtDS0=    0 NMtDT0=    0
 Petite list used in FoFCou.
 MDV=  8589934592 DFT=T DoStab=F Mixed=F DoRPA=T DoScal=T NonHer=F
 Making orbital integer symmetry assigments:
 Orbital symmetries:
       Occupied  (A') (A") (A') (A') (A") (A') (A') (A') (A") (A")
                 (A') (A") (A')
       Virtual   (A') (A") (A') (A') (A') (A") (A') (A") (A') (A")
                 (A') (A") (A") (A') (A') (A") (A') (A') (A") (A')
                 (A') (A') (A") (A') (A') (A") (A') (A") (A") (A")
                 (A') (A") (A') (A') (A") (A') (A") (A') (A") (A')
                 (A") (A") (A") (A') (A") (A') (A') (A") (A') (A')
                 (A") (A') (A") (A') (A') (A") (A") (A') (A') (A")
                 (A') (A") (A") (A') (A') (A") (A") (A') (A') (A")
                 (A') (A') (A") (A') (A") (A') (A") (A') (A") (A")
                 (A') (A') (A") (A') (A") (A') (A") (A') (A") (A')
                 (A") (A') (A') (A") (A') (A") (A') (A') (A") (A")
                 (A') (A") (A')
  1030 initial guesses have been made.
 Convergence on wavefunction:    0.001000000000000
 Davidson Disk Diagonalization:  ConvIn= 1.00D-03 SkipCon=T Conv= 1.00D-03.
 Max sub-space:  4120 roots to seek:  2060 dimension of matrix:         2060
 *** WARNING: Number of orthogonal guesses is         1030
 Iteration     1 Dimension  1030 NMult     0 NNew   1030
 CISAX will form  1030 AO SS matrices at one time.
 NMat=  1030 NSing=  1030 JSym2X=-1.
 New state     10 was old state     11
 New state     11 was old state     10
 New state     19 was old state     20
 New state     20 was old state     19
 New state     22 was old state     23
 New state     23 was old state     22
 New state     25 was old state     27
 New state     26 was old state     25
 New state     27 was old state     26
 New state     34 was old state     36
 New state     35 was old state     34
 New state     36 was old state     37
 New state     37 was old state     35
 New state     38 was old state     39
 New state     39 was old state     38
 New state     40 was old state     42
 New state     41 was old state     40
 New state     42 was old state     41
 New state     45 was old state     49
 New state     47 was old state     48
 New state     48 was old state     47
 New state     49 was old state     45
 New state     52 was old state     53
 New state     53 was old state     55
 New state     54 was old state     52
 New state     55 was old state     54
 New state     56 was old state     57
 New state     57 was old state     56
 New state     58 was old state     60
 New state     60 was old state     61
 New state     61 was old state     64
 New state     64 was old state     65
 New state     65 was old state     68
 New state     68 was old state     70
 New state     70 was old state     72
 New state     72 was old state     74
 New state     74 was old state     75
 New state     75 was old state     77
 New state     76 was old state     79
 New state     77 was old state     81
 New state     78 was old state     83
 New state     79 was old state     78
 New state     80 was old state     82
 New state     81 was old state     84
 New state     82 was old state     85
 New state     83 was old state     80
 New state     84 was old state     87
 New state     85 was old state     88
 New state     87 was old state     89
 New state     88 was old state     90
 New state     89 was old state     91
 New state     90 was old state     92
 New state     91 was old state     93
 New state     92 was old state    101
 New state     93 was old state     94
 New state     94 was old state     99
 New state     96 was old state     97
 New state     97 was old state     98
 New state     98 was old state     96
 New state     99 was old state    100
 New state    100 was old state    103
 New state    101 was old state    102
 New state    102 was old state    107
 New state    103 was old state    104
 New state    104 was old state    108
 New state    105 was old state    106
 New state    106 was old state    115
 New state    107 was old state    110
 New state    108 was old state    105
 New state    110 was old state    112
 New state    112 was old state    113
 New state    113 was old state    114
 New state    114 was old state    117
 New state    115 was old state    116
 New state    116 was old state    118
 New state    117 was old state    121
 New state    118 was old state    122
 New state    121 was old state    123
 New state    122 was old state    128
 New state    123 was old state    124
 New state    124 was old state    126
 No map to state    125
 New state    126 was old state    133
 New state    127 was old state    129
 New state    128 was old state    132
 New state    129 was old state    130
 New state    130 was old state    131
 New state    131 was old state    127
 New state    132 was old state    125
 New state    133 was old state    134
 New state    134 was old state    136
 New state    136 was old state    140
 New state    137 was old state    138
 New state    138 was old state    137
 New state    139 was old state    141
 New state    140 was old state    142
 New state    141 was old state    139
 New state    142 was old state    143
 New state    143 was old state    146
 New state    144 was old state    147
 New state    145 was old state    151
 New state    146 was old state    149
 New state    147 was old state    144
 New state    148 was old state    145
 New state    149 was old state    153
 New state    151 was old state    148
 New state    153 was old state    155
 New state    155 was old state    158
 New state    156 was old state    157
 New state    157 was old state    156
 New state    158 was old state    160
 New state    160 was old state    174
 New state    161 was old state    165
 New state    162 was old state    161
 New state    163 was old state    164
 New state    164 was old state    162
 New state    165 was old state    163
 New state    166 was old state    167
 New state    167 was old state    166
 New state    170 was old state    171
 New state    171 was old state    172
 New state    172 was old state    173
 New state    173 was old state    178
 New state    174 was old state    176
 New state    175 was old state    181
 New state    176 was old state    170
 New state    177 was old state    185
 New state    178 was old state    184
 New state    179 was old state    182
 New state    180 was old state    187
 New state    181 was old state    189
 New state    182 was old state    175
 New state    184 was old state    180
 New state    185 was old state    186
 New state    186 was old state    179
 New state    187 was old state    193
 New state    188 was old state    191
 New state    189 was old state    188
 New state    190 was old state    192
 New state    191 was old state    194
 New state    192 was old state    195
 New state    193 was old state    197
 New state    194 was old state    196
 New state    195 was old state    198
 New state    196 was old state    177
 New state    197 was old state    201
 New state    198 was old state    199
 New state    199 was old state    203
 New state    200 was old state    205
 New state    201 was old state    208
 New state    202 was old state    200
 New state    203 was old state    202
 New state    204 was old state    206
 New state    205 was old state    207
 New state    206 was old state    209
 New state    207 was old state    204
 New state    208 was old state    213
 New state    209 was old state    219
 New state    210 was old state    214
 New state    211 was old state    218
 New state    212 was old state    220
 New state    213 was old state    217
 New state    214 was old state    210
 New state    216 was old state    212
 New state    217 was old state    211
 New state    218 was old state    216
 New state    219 was old state    221
 New state    220 was old state    224
 New state    221 was old state    222
 New state    222 was old state    223
 New state    223 was old state    229
 New state    224 was old state    225
 New state    225 was old state    228
 New state    227 was old state    232
 New state    228 was old state    231
 New state    229 was old state    230
 New state    230 was old state    227
 New state    231 was old state    233
 New state    232 was old state    235
 New state    233 was old state    239
 New state    234 was old state    236
 New state    235 was old state    254
 New state    236 was old state    234
 New state    238 was old state    241
 New state    239 was old state    238
 New state    240 was old state    244
 New state    241 was old state    246
 New state    242 was old state    240
 New state    243 was old state    242
 New state    244 was old state    243
 New state    246 was old state    248
 New state    247 was old state    250
 New state    248 was old state    253
 New state    249 was old state    257
 New state    250 was old state    255
 New state    251 was old state    249
 New state    253 was old state    247
 New state    254 was old state    256
 New state    255 was old state    260
 New state    256 was old state    258
 New state    257 was old state    261
 New state    258 was old state    259
 New state    259 was old state    264
 New state    260 was old state    251
 New state    261 was old state    269
 New state    262 was old state    266
 New state    264 was old state    272
 New state    265 was old state    270
 New state    266 was old state    273
 New state    267 was old state    271
 New state    269 was old state    262
 New state    270 was old state    274
 New state    271 was old state    267
 New state    272 was old state    275
 New state    273 was old state    276
 New state    274 was old state    277
 New state    275 was old state    280
 New state    276 was old state    278
 New state    277 was old state    282
 New state    278 was old state    284
 New state    280 was old state    265
 New state    281 was old state    283
 New state    282 was old state    281
 New state    283 was old state    293
 New state    284 was old state    289
 New state    286 was old state    290
 New state    287 was old state    291
 New state    289 was old state    292
 New state    290 was old state    286
 New state    291 was old state    287
 New state    292 was old state    297
 New state    293 was old state    294
 New state    294 was old state    302
 New state    297 was old state    301
 New state    298 was old state    300
 New state    299 was old state    298
 New state    300 was old state    304
 New state    301 was old state    307
 New state    302 was old state    299
 New state    304 was old state    306
 New state    306 was old state    308
 New state    307 was old state    310
 New state    308 was old state    313
 New state    309 was old state    312
 New state    310 was old state    316
 New state    312 was old state    315
 New state    313 was old state    317
 New state    314 was old state    318
 New state    315 was old state    321
 New state    316 was old state    314
 New state    317 was old state    320
 New state    318 was old state    319
 New state    319 was old state    323
 New state    320 was old state    324
 New state    321 was old state    322
 New state    322 was old state    325
 No map to state    323
 New state    324 was old state    327
 New state    325 was old state    330
 New state    327 was old state    331
 New state    328 was old state    334
 New state    329 was old state    328
 New state    330 was old state    329
 New state    331 was old state    332
 New state    332 was old state    333
 New state    333 was old state    337
 New state    334 was old state    336
 New state    335 was old state    339
 New state    336 was old state    335
 New state    337 was old state    341
 New state    338 was old state    355
 New state    339 was old state    353
 New state    340 was old state    338
 New state    341 was old state    340
 New state    342 was old state    343
 New state    343 was old state    345
 New state    344 was old state    347
 New state    345 was old state    349
 New state    346 was old state    348
 New state    347 was old state    351
 New state    348 was old state    350
 New state    349 was old state    352
 New state    350 was old state    346
 New state    351 was old state    354
 New state    352 was old state    357
 New state    353 was old state    360
 New state    354 was old state    371
 New state    355 was old state    356
 New state    356 was old state    358
 New state    357 was old state    359
 New state    358 was old state    362
 New state    359 was old state    363
 New state    360 was old state    361
 New state    361 was old state    364
 New state    362 was old state    366
 New state    363 was old state    367
 New state    364 was old state    374
 New state    365 was old state    368
 New state    366 was old state    365
 New state    367 was old state    370
 New state    368 was old state    384
 New state    370 was old state    375
 New state    371 was old state    376
 New state    372 was old state    389
 New state    373 was old state    377
 New state    374 was old state    372
 New state    375 was old state    378
 New state    376 was old state    382
 New state    377 was old state    381
 New state    378 was old state    383
 New state    379 was old state    390
 New state    380 was old state    385
 New state    381 was old state    373
 New state    382 was old state    386
 New state    383 was old state    387
 New state    384 was old state    380
 New state    385 was old state    379
 New state    386 was old state    342
 New state    387 was old state    391
 New state    388 was old state    398
 New state    389 was old state    388
 New state    390 was old state    393
 New state    391 was old state    394
 New state    393 was old state    412
 New state    394 was old state    395
 New state    395 was old state    396
 New state    396 was old state    397
 New state    397 was old state    399
 New state    398 was old state    400
 New state    399 was old state    403
 New state    400 was old state    401
 New state    401 was old state    404
 New state    403 was old state    408
 New state    404 was old state    405
 New state    405 was old state    411
 New state    407 was old state    410
 New state    408 was old state    407
 New state    410 was old state    415
 New state    411 was old state    419
 New state    412 was old state    413
 New state    413 was old state    417
 New state    414 was old state    418
 New state    415 was old state    422
 New state    416 was old state    414
 New state    417 was old state    416
 No map to state    418
 New state    419 was old state    420
 New state    420 was old state    421
 New state    421 was old state    424
 New state    422 was old state    423
 New state    423 was old state    436
 New state    424 was old state    432
 New state    425 was old state    428
 New state    426 was old state    427
 New state    427 was old state    426
 New state    428 was old state    430
 New state    429 was old state    425
 New state    430 was old state    429
 New state    432 was old state    433
 New state    433 was old state    434
 New state    434 was old state    437
 New state    436 was old state    438
 New state    437 was old state    439
 New state    438 was old state    440
 New state    439 was old state    442
 New state    440 was old state    441
 New state    441 was old state    444
 New state    442 was old state    443
 New state    443 was old state    452
 New state    444 was old state    445
 New state    445 was old state    448
 New state    446 was old state    449
 New state    448 was old state    451
 New state    449 was old state    450
 New state    450 was old state    446
 New state    451 was old state    454
 New state    452 was old state    460
 New state    453 was old state    456
 New state    454 was old state    457
 New state    456 was old state    459
 New state    457 was old state    458
 New state    458 was old state    453
 New state    459 was old state    462
 New state    460 was old state    464
 New state    461 was old state    463
 New state    462 was old state    465
 New state    463 was old state    467
 New state    464 was old state    466
 New state    465 was old state    468
 New state    466 was old state    470
 New state    467 was old state    469
 New state    468 was old state    471
 New state    469 was old state    461
 New state    470 was old state    473
 New state    471 was old state    472
 New state    472 was old state    474
 New state    473 was old state    483
 New state    474 was old state    475
 New state    475 was old state    476
 New state    476 was old state    489
 New state    480 was old state    481
 New state    481 was old state    480
 New state    482 was old state    485
 New state    483 was old state    484
 New state    484 was old state    486
 New state    485 was old state    482
 New state    486 was old state    487
 New state    487 was old state    491
 New state    488 was old state    492
 New state    489 was old state    497
 New state    490 was old state    488
 New state    491 was old state    499
 New state    492 was old state    490
 New state    493 was old state    494
 New state    494 was old state    493
 New state    496 was old state    505
 New state    497 was old state    496
 New state    498 was old state    500
 New state    499 was old state    498
 New state    500 was old state    501
 New state    501 was old state    504
 New state    503 was old state    509
 New state    504 was old state    508
 New state    505 was old state    506
 New state    506 was old state    510
 New state    508 was old state    503
 New state    509 was old state    519
 New state    510 was old state    512
 New state    511 was old state    513
 New state    512 was old state    511
 New state    513 was old state    514
 New state    514 was old state    515
 New state    515 was old state    517
 New state    516 was old state    518
 New state    517 was old state    516
 New state    518 was old state    527
 New state    519 was old state    521
 New state    521 was old state    522
 New state    522 was old state    523
 New state    523 was old state    526
 New state    524 was old state    525
 New state    525 was old state    524
 New state    526 was old state    528
 New state    527 was old state    529
 New state    528 was old state    530
 New state    529 was old state    535
 New state    530 was old state    531
 New state    531 was old state    532
 New state    532 was old state    533
 New state    533 was old state    534
 New state    534 was old state    538
 New state    535 was old state    536
 New state    536 was old state    539
 New state    538 was old state    542
 New state    539 was old state    541
 New state    541 was old state    543
 New state    542 was old state    545
 New state    543 was old state    547
 No map to state    545
 New state    547 was old state    548
 New state    548 was old state    549
 New state    549 was old state    550
 New state    550 was old state    551
 New state    551 was old state    553
 New state    553 was old state    555
 New state    554 was old state    556
 New state    555 was old state    554
 New state    556 was old state    558
 New state    558 was old state    565
 New state    560 was old state    561
 New state    561 was old state    560
 New state    562 was old state    564
 New state    563 was old state    566
 New state    564 was old state    569
 New state    565 was old state    563
 New state    566 was old state    570
 New state    569 was old state    574
 New state    570 was old state    577
 New state    571 was old state    572
 New state    572 was old state    573
 New state    573 was old state    575
 New state    574 was old state    580
 New state    575 was old state    576
 New state    576 was old state    583
 New state    577 was old state    578
 New state    578 was old state    581
 New state    580 was old state    582
 New state    581 was old state    584
 New state    582 was old state    593
 New state    583 was old state    586
 New state    584 was old state    589
 New state    585 was old state    588
 New state    586 was old state    585
 New state    588 was old state    591
 New state    589 was old state    596
 New state    591 was old state    592
 No map to state    592
 New state    593 was old state    594
 New state    594 was old state    601
 New state    596 was old state    598
 New state    598 was old state    599
 New state    599 was old state    600
 New state    600 was old state    603
 New state    601 was old state    604
 New state    603 was old state    605
 New state    604 was old state    606
 New state    605 was old state    607
 New state    606 was old state    608
 New state    607 was old state    611
 New state    608 was old state    610
 New state    610 was old state    612
 No map to state    611
 New state    612 was old state    613
 New state    613 was old state    615
 New state    614 was old state    616
 New state    615 was old state    619
 New state    616 was old state    614
 New state    617 was old state    618
 New state    618 was old state    620
 New state    619 was old state    627
 New state    620 was old state    617
 New state    624 was old state    625
 New state    625 was old state    624
 New state    627 was old state    629
 New state    629 was old state    631
 New state    631 was old state    632
 New state    632 was old state    634
 New state    634 was old state    638
 New state    636 was old state    637
 New state    637 was old state    636
 New state    638 was old state    639
 New state    639 was old state    640
 New state    640 was old state    641
 New state    641 was old state    645
 New state    642 was old state    643
 New state    643 was old state    644
 New state    644 was old state    642
 New state    645 was old state    646
 New state    646 was old state    656
 New state    650 was old state    652
 New state    651 was old state    654
 New state    652 was old state    653
 New state    653 was old state    651
 New state    654 was old state    650
 New state    656 was old state    658
 New state    657 was old state    659
 New state    658 was old state    657
 New state    659 was old state    660
 New state    660 was old state    666
 New state    664 was old state    667
 New state    665 was old state    664
 New state    666 was old state    669
 New state    667 was old state    668
 New state    668 was old state    670
 New state    669 was old state    671
 New state    670 was old state    672
 New state    671 was old state    679
 New state    672 was old state    680
 New state    677 was old state    678
 New state    678 was old state    677
 New state    679 was old state    682
 New state    680 was old state    684
 New state    681 was old state    683
 New state    682 was old state    685
 New state    683 was old state    689
 New state    684 was old state    681
 New state    685 was old state    687
 New state    687 was old state    688
 New state    688 was old state    692
 New state    689 was old state    690
 New state    690 was old state    691
 New state    691 was old state    695
 New state    692 was old state    694
 New state    694 was old state    697
 New state    695 was old state    700
 New state    697 was old state    703
 New state    700 was old state    702
 No map to state    702
 New state    703 was old state    704
 New state    704 was old state    706
 No map to state    705
 New state    706 was old state    705
 New state    712 was old state    714
 New state    713 was old state    712
 New state    714 was old state    713
 New state    717 was old state    718
 New state    718 was old state    717
 New state    721 was old state    722
 New state    722 was old state    721
 New state    725 was old state    726
 New state    726 was old state    725
 New state    730 was old state    734
 New state    731 was old state    732
 New state    732 was old state    731
 New state    733 was old state    730
 New state    734 was old state    733
 New state    735 was old state    737
 New state    736 was old state    735
 New state    737 was old state    736
 New state    740 was old state    741
 New state    741 was old state    742
 New state    742 was old state    743
 New state    743 was old state    740
 New state    745 was old state    746
 New state    746 was old state    747
 New state    747 was old state    745
 New state    748 was old state    749
 New state    749 was old state    748
 New state    750 was old state    751
 New state    751 was old state    750
 New state    752 was old state    753
 New state    753 was old state    758
 New state    754 was old state    752
 New state    755 was old state    756
 New state    756 was old state    754
 New state    757 was old state    761
 New state    758 was old state    759
 New state    759 was old state    757
 New state    760 was old state    762
 New state    761 was old state    760
 New state    762 was old state    755
 New state    768 was old state    769
 New state    769 was old state    768
 New state    771 was old state    772
 New state    772 was old state    771
 New state    774 was old state    775
 New state    775 was old state    776
 New state    776 was old state    778
 New state    777 was old state    779
 New state    778 was old state    777
 New state    779 was old state    781
 New state    781 was old state    786
 New state    786 was old state    788
 New state    788 was old state    789
 New state    789 was old state    796
 New state    790 was old state    792
 New state    791 was old state    793
 New state    792 was old state    790
 New state    793 was old state    791
 New state    796 was old state    799
 New state    799 was old state    800
 New state    800 was old state    801
 New state    801 was old state    808
 New state    802 was old state    804
 New state    803 was old state    802
 New state    804 was old state    803
 New state    805 was old state    806
 New state    806 was old state    805
 New state    808 was old state    809
 No map to state    809
 New state    810 was old state    811
 New state    811 was old state    810
 New state    813 was old state    814
 New state    814 was old state    813
 New state    816 was old state    818
 New state    818 was old state    820
 New state    819 was old state    816
 New state    820 was old state    821
 New state    821 was old state    819
 New state    822 was old state    824
 New state    823 was old state    822
 New state    824 was old state    823
 New state    831 was old state    832
 New state    832 was old state    831
 New state    838 was old state    839
 New state    839 was old state    842
 New state    841 was old state    843
 New state    842 was old state    838
 New state    843 was old state    844
 New state    844 was old state    841
 New state    845 was old state    846
 New state    846 was old state    845
 New state    851 was old state    852
 New state    852 was old state    851
 New state    853 was old state    855
 New state    855 was old state    853
 New state    858 was old state    861
 New state    859 was old state    862
 New state    860 was old state    864
 New state    861 was old state    863
 New state    862 was old state    859
 New state    863 was old state    860
 New state    864 was old state    858
 New state    869 was old state    870
 New state    870 was old state    869
 New state    872 was old state    874
 New state    873 was old state    872
 New state    874 was old state    873
 New state    877 was old state    878
 New state    878 was old state    877
 New state    881 was old state    882
 New state    882 was old state    881
 New state    883 was old state    884
 New state    884 was old state    883
 New state    888 was old state    889
 New state    889 was old state    890
 New state    890 was old state    892
 New state    891 was old state    888
 New state    892 was old state    891
 New state    902 was old state    903
 New state    903 was old state    902
 New state    909 was old state    910
 New state    910 was old state    912
 New state    911 was old state    909
 New state    912 was old state    911
 New state    917 was old state    918
 New state    918 was old state    919
 New state    919 was old state    917
 New state    923 was old state    924
 New state    924 was old state    923
 New state    925 was old state    926
 New state    926 was old state    927
 New state    927 was old state    925
 New state    930 was old state    931
 New state    931 was old state    933
 New state    932 was old state    935
 New state    933 was old state    934
 New state    934 was old state    938
 New state    935 was old state    936
 New state    936 was old state    939
 New state    938 was old state    932
 New state    939 was old state    940
 New state    940 was old state    941
 New state    941 was old state    942
 New state    942 was old state    930
 New state    945 was old state    946
 New state    946 was old state    945
 New state    949 was old state    950
 New state    950 was old state    951
 New state    951 was old state    949
 New state    958 was old state    959
 New state    959 was old state    958
 New state    961 was old state    962
 New state    962 was old state    961
 New state    964 was old state    965
 New state    965 was old state    964
 New state    974 was old state    975
 New state    975 was old state    974
 New state    980 was old state    981
 New state    981 was old state    982
 New state    982 was old state    983
 New state    983 was old state    984
 New state    984 was old state    980
 New state    985 was old state    986
 New state    986 was old state    985
 New state    990 was old state    992
 New state    991 was old state    990
 New state    992 was old state    993
 New state    993 was old state    991
 New state   1003 was old state   1004
 New state   1004 was old state   1005
 New state   1005 was old state   1003
 New state   1006 was old state   1007
 New state   1007 was old state   1006
 New state   1012 was old state   1013
 New state   1013 was old state   1014
 New state   1014 was old state   1012
 New state   1022 was old state   1023
 New state   1023 was old state   1022
 Excitation Energies [eV] at current iteration:
 Root      1 :     5.012813100991195
 Root      2 :     5.833678301380196
 Root      3 :     6.067534827732524
 Root      4 :     6.933564810551987
 Root      5 :     7.024410912572538
 Root      6 :     7.676967825291952
 Root      7 :     7.812255654440349
 Root      8 :     8.125502991198836
 Root      9 :     8.226793562762465
 Root     10 :     8.767434694375886
 Root     11 :     8.799536702695383
 Root     12 :     8.881060812126089
 Root     13 :     9.071699821166916
 Root     14 :     9.283507655009256
 Root     15 :     9.344427081535702
 Root     16 :     9.690200206311948
 Root     17 :     9.704034141827684
 Root     18 :     9.796871410720033
 Root     19 :     9.891800220018764
 Root     20 :     9.928377969444114
 Root     21 :    10.215931859694450
 Root     22 :    10.350919972134060
 Root     23 :    10.574380707041960
 Root     24 :    10.694426064339600
 Root     25 :    10.749015113980510
 Root     26 :    10.780311546964180
 Root     27 :    10.794191221029340
 Root     28 :    10.830221448256320
 Root     29 :    10.970147415576820
 Root     30 :    11.151238270232380
 Root     31 :    11.188243630229800
 Root     32 :    11.310320142380070
 Root     33 :    11.437024932761990
 Root     34 :    11.550063934171410
 Root     35 :    11.578402293881740
 Root     36 :    11.597460648810380
 Root     37 :    11.611874693542100
 Root     38 :    11.634781295097100
 Root     39 :    11.636728935766120
 Root     40 :    11.750016626077480
 Root     41 :    11.765936639218650
 Root     42 :    11.796312776170530
 Root     43 :    11.845360626638410
 Root     44 :    11.934003836801680
 Root     45 :    12.010499894206700
 Root     46 :    12.043283003170140
 Root     47 :    12.057794431902360
 Root     48 :    12.136991748089290
 Root     49 :    12.157477972705300
 Root     50 :    12.440532604957610
 Root     51 :    12.511453563614720
 Root     52 :    12.559039168803960
 Root     53 :    12.608894420599130
 Root     54 :    12.611668216946930
 Root     55 :    12.619314750862850
 Root     56 :    12.712152135119740
 Root     57 :    12.721364772422590
 Root     58 :    12.745484587429890
 Root     59 :    12.766698036536630
 Root     60 :    12.859970983088260
 Root     61 :    12.879199472408270
 Root     62 :    12.918520833235620
 Root     63 :    12.948344839586330
 Root     64 :    13.001489644371680
 Root     65 :    13.098126077377170
 Root     66 :    13.128496014121970
 Root     67 :    13.165613810819440
 Root     68 :    13.310599884207500
 Root     69 :    13.362105773159640
 Root     70 :    13.491505008577190
 Root     71 :    13.517597285719940
 Root     72 :    13.544988369522590
 Root     73 :    13.590439014632250
 Root     74 :    13.618472340792500
 Root     75 :    13.628563835628860
 Root     76 :    13.723245497806510
 Root     77 :    13.759009176745120
 Root     78 :    13.821892814530260
 Root     79 :    13.824097690790510
 Root     80 :    13.881233616042250
 Root     81 :    13.911949949157780
 Root     82 :    13.942739347474760
 Root     83 :    13.995539281038430
 Root     84 :    14.074341197800120
 Root     85 :    14.125818668209380
 Root     86 :    14.126306003426500
 Root     87 :    14.197645147539960
 Root     88 :    14.233440439936550
 Root     89 :    14.326630764597280
 Root     90 :    14.445359091042680
 Root     91 :    14.518088663032080
 Root     92 :    14.533028158824820
 Root     93 :    14.603542359938740
 Root     94 :    14.605051265990340
 Root     95 :    14.637803785310170
 Root     96 :    14.724013005634300
 Root     97 :    14.765468028370350
 Root     98 :    14.777399226576890
 Root     99 :    14.881973485173240
 Root    100 :    14.883884866864580
 Root    101 :    14.939476662484600
 Root    102 :    14.977986285197470
 Root    103 :    15.036612205143310
 Root    104 :    15.129219911990360
 Root    105 :    15.179252822472130
 Root    106 :    15.185352651039660
 Root    107 :    15.303618960260160
 Root    108 :    15.335958846568940
 Root    109 :    15.340866598700360
 Root    110 :    15.447234525157460
 Root    111 :    15.476423007034550
 Root    112 :    15.518119658304420
 Root    113 :    15.519002943290050
 Root    114 :    15.551111875161220
 Root    115 :    15.652247837917290
 Root    116 :    15.722045100320610
 Root    117 :    15.733010793998510
 Root    118 :    15.858549326243290
 Root    119 :    15.889494375669350
 Root    120 :    16.011909523720000
 Root    121 :    16.067744594219470
 Root    122 :    16.078489798832740
 Root    123 :    16.137964207661560
 Root    124 :    16.182165496930320
 Root    125 :    16.191040564937160
 Root    126 :    16.291859935002770
 Root    127 :    16.296282165162390
 Root    128 :    16.389072107977440
 Root    129 :    16.418031832600740
 Root    130 :    16.445853235794410
 Root    131 :    16.499084360323410
 Root    132 :    16.549989322337100
 Root    133 :    16.608767564258430
 Root    134 :    16.613781963277650
 Root    135 :    16.714036726259430
 Root    136 :    16.739692790263930
 Root    137 :    16.867185593395480
 Root    138 :    16.867237330967560
 Root    139 :    16.953121231519270
 Root    140 :    16.969349266284390
 Root    141 :    16.997957010895490
 Root    142 :    17.064197381439180
 Root    143 :    17.075535864830170
 Root    144 :    17.129417642094690
 Root    145 :    17.135978445929720
 Root    146 :    17.184538437271700
 Root    147 :    17.214557553190770
 Root    148 :    17.222476929152870
 Root    149 :    17.281201816759960
 Root    150 :    17.303524322126350
 Root    151 :    17.330509886838670
 Root    152 :    17.348907433806180
 Root    153 :    17.357144411512530
 Root    154 :    17.416175588732940
 Root    155 :    17.429851765305000
 Root    156 :    17.452360659218790
 Root    157 :    17.467763284845650
 Root    158 :    17.494913669731560
 Root    159 :    17.666006279080200
 Root    160 :    17.730257066964410
 Root    161 :    17.896502963030800
 Root    162 :    17.901219000190440
 Root    163 :    17.914906838434520
 Root    164 :    17.969579035732330
 Root    165 :    17.972772549510850
 Root    166 :    18.014939375985930
 Root    167 :    18.056159859070000
 Root    168 :    18.085516909447830
 Root    169 :    18.091772035560390
 Root    170 :    18.112810602572060
 Root    171 :    18.132173176020800
 Root    172 :    18.143100214371840
 Root    173 :    18.189566718561290
 Root    174 :    18.272262128809200
 Root    175 :    18.286269058506030
 Root    176 :    18.325159919060750
 Root    177 :    18.338590302456320
 Root    178 :    18.380819505003700
 Root    179 :    18.384032914011010
 Root    180 :    18.416476479303850
 Root    181 :    18.418991351362250
 Root    182 :    18.442293172842560
 Root    183 :    18.456663761100930
 Root    184 :    18.486718577261290
 Root    185 :    18.516526577754520
 Root    186 :    18.532154589568950
 Root    187 :    18.580398674723930
 Root    188 :    18.609938927451450
 Root    189 :    18.631043889326680
 Root    190 :    18.647753705492930
 Root    191 :    18.676159810869830
 Root    192 :    18.725287077263590
 Root    193 :    18.760530907981280
 Root    194 :    18.793350134823430
 Root    195 :    18.845900289200120
 Root    196 :    18.852119704011170
 Root    197 :    18.977560398143700
 Root    198 :    19.015422676782880
 Root    199 :    19.078959487044660
 Root    200 :    19.129689341630710
 Root    201 :    19.166115527996330
 Root    202 :    19.177997784919020
 Root    203 :    19.241274483629860
 Root    204 :    19.259413651809770
 Root    205 :    19.312678699818200
 Root    206 :    19.323146493679590
 Root    207 :    19.333720718847890
 Root    208 :    19.359164644749000
 Root    209 :    19.391855507538020
 Root    210 :    19.474173550286630
 Root    211 :    19.496003365061290
 Root    212 :    19.512362368360940
 Root    213 :    19.540304430242340
 Root    214 :    19.548484215217680
 Root    215 :    19.571160234739170
 Root    216 :    19.589541222444560
 Root    217 :    19.653541270025910
 Root    218 :    19.694582282242160
 Root    219 :    19.722738565515500
 Root    220 :    19.784237379333590
 Root    221 :    19.849993828150740
 Root    222 :    19.871232291195400
 Root    223 :    19.915746384621490
 Root    224 :    19.926272138273070
 Root    225 :    19.982269649470170
 Root    226 :    19.989671129453330
 Root    227 :    20.025432135477860
 Root    228 :    20.054659857105580
 Root    229 :    20.065755186278300
 Root    230 :    20.103886556937230
 Root    231 :    20.132274560191470
 Root    232 :    20.162563849811240
 Root    233 :    20.225035887491080
 Root    234 :    20.254066762661780
 Root    235 :    20.304696157666850
 Root    236 :    20.319912753720040
 Root    237 :    20.333442261179480
 Root    238 :    20.495498031259550
 Root    239 :    20.505420488975470
 Root    240 :    20.548176070508510
 Root    241 :    20.584928082931930
 Root    242 :    20.588768131317060
 Root    243 :    20.595160793847100
 Root    244 :    20.633387202451950
 Root    245 :    20.665483783238740
 Root    246 :    20.707082677364380
 Root    247 :    20.824496659743150
 Root    248 :    20.861667292175330
 Root    249 :    20.898250264171520
 Root    250 :    20.927474337795870
 Root    251 :    20.948720887036940
 Root    252 :    20.967764162556400
 Root    253 :    20.994421789488320
 Root    254 :    21.075754062510050
 Root    255 :    21.086786396886390
 Root    256 :    21.116384697883750
 Root    257 :    21.131472944208490
 Root    258 :    21.258466451309620
 Root    259 :    21.283417610438530
 Root    260 :    21.293332739622360
 Root    261 :    21.326069324364770
 Root    262 :    21.411027832956560
 Root    263 :    21.421347417295080
 Root    264 :    21.428162883827210
 Root    265 :    21.457828984828690
 Root    266 :    21.482119014685430
 Root    267 :    21.491673400197310
 Root    268 :    21.511794600978130
 Root    269 :    21.525675843099690
 Root    270 :    21.604410334496260
 Root    271 :    21.634569036326070
 Root    272 :    21.684506486840370
 Root    273 :    21.700229186196090
 Root    274 :    21.754397898056010
 Root    275 :    21.770286474612800
 Root    276 :    21.863393433011220
 Root    277 :    21.900096543783410
 Root    278 :    21.926051291876100
 Root    279 :    21.947039306987330
 Root    280 :    21.951032984219100
 Root    281 :    21.977029269232400
 Root    282 :    22.035413821852270
 Root    283 :    22.118813728273860
 Root    284 :    22.122133563775310
 Root    285 :    22.242388113847700
 Root    286 :    22.333032115326290
 Root    287 :    22.346441658257150
 Root    288 :    22.360450906937390
 Root    289 :    22.424847192704770
 Root    290 :    22.445241467538360
 Root    291 :    22.518977856303060
 Root    292 :    22.600086086039080
 Root    293 :    22.667903431297860
 Root    294 :    22.718827209439080
 Root    295 :    22.753608937029650
 Root    296 :    22.771828395075590
 Root    297 :    22.818628234836650
 Root    298 :    22.845856535755350
 Root    299 :    22.845867603756790
 Root    300 :    22.865214425794900
 Root    301 :    22.928025636643080
 Root    302 :    22.953531964795380
 Root    303 :    22.971239472228640
 Root    304 :    22.990520461705900
 Root    305 :    22.991401171402620
 Root    306 :    23.040638260268330
 Root    307 :    23.084602995751850
 Root    308 :    23.129008328562390
 Root    309 :    23.175006574113550
 Root    310 :    23.201573302265480
 Root    311 :    23.261216648064250
 Root    312 :    23.288656144006650
 Root    313 :    23.365608785035420
 Root    314 :    23.384079984832740
 Root    315 :    23.384281229028170
 Root    316 :    23.516639241868120
 Root    317 :    23.538183725509620
 Root    318 :    23.647032464002430
 Root    319 :    23.734630621097370
 Root    320 :    23.816943757193410
 Root    321 :    23.826265528624900
 Root    322 :    23.830590243632460
 Root    323 :    23.847115541180800
 Root    324 :    23.861174023302440
 Root    325 :    24.002002140432100
 Root    326 :    24.070017743441500
 Root    327 :    24.122181741677170
 Root    328 :    24.150622935260220
 Root    329 :    24.187264232612210
 Root    330 :    24.214097333042730
 Root    331 :    24.230468095548000
 Root    332 :    24.303706253182230
 Root    333 :    24.332524319053600
 Root    334 :    24.362481422648370
 Root    335 :    24.384103541521640
 Root    336 :    24.456148818495510
 Root    337 :    24.509580738839640
 Root    338 :    24.519859833483650
 Root    339 :    24.551059194542180
 Root    340 :    24.562785034331720
 Root    341 :    24.571784085587120
 Root    342 :    24.693745999676540
 Root    343 :    24.752544970794890
 Root    344 :    24.794423683026050
 Root    345 :    24.796465367577020
 Root    346 :    24.888913975661890
 Root    347 :    24.902362164322150
 Root    348 :    24.924753627348260
 Root    349 :    24.944457404022590
 Root    350 :    25.035245089106490
 Root    351 :    25.045148259795500
 Root    352 :    25.143173147450680
 Root    353 :    25.144392562872180
 Root    354 :    25.163027938503820
 Root    355 :    25.173271311900070
 Root    356 :    25.254055781887660
 Root    357 :    25.299166647092160
 Root    358 :    25.337828034077720
 Root    359 :    25.341624382141620
 Root    360 :    25.445246182623820
 Root    361 :    25.517174010237110
 Root    362 :    25.597033428133630
 Root    363 :    25.644607723526240
 Root    364 :    25.658417431090480
 Root    365 :    25.716060275728600
 Root    366 :    25.722366297747680
 Root    367 :    25.795168206023400
 Root    368 :    25.860242998384720
 Root    369 :    25.903698802427350
 Root    370 :    25.968902835776730
 Root    371 :    26.025096862037240
 Root    372 :    26.030899230217890
 Root    373 :    26.156283759458070
 Root    374 :    26.173278929318220
 Root    375 :    26.178852236943720
 Root    376 :    26.222718807852320
 Root    377 :    26.246181454783690
 Root    378 :    26.270729286141980
 Root    379 :    26.294578302604010
 Root    380 :    26.398597633891000
 Root    381 :    26.407906797982080
 Root    382 :    26.469044896548800
 Root    383 :    26.479827947893070
 Root    384 :    26.525049129361360
 Root    385 :    26.553489330229340
 Root    386 :    26.602504986232020
 Root    387 :    26.614950698376670
 Root    388 :    26.656390053604080
 Root    389 :    26.686563780252840
 Root    390 :    26.768873832580140
 Root    391 :    26.850951674186280
 Root    392 :    26.882304733531600
 Root    393 :    26.914906196757150
 Root    394 :    27.051552723194860
 Root    395 :    27.124478931385890
 Root    396 :    27.243125804263120
 Root    397 :    27.377718980874680
 Root    398 :    27.400517737458740
 Root    399 :    27.445586895543130
 Root    400 :    27.488124089720820
 Root    401 :    27.547927705056460
 Root    402 :    27.557341072574530
 Root    403 :    27.613287200640470
 Root    404 :    27.638888335147410
 Root    405 :    27.684545594519180
 Root    406 :    27.743556507820130
 Root    407 :    27.835190839779880
 Root    408 :    27.859921958444390
 Root    409 :    27.925277767789620
 Root    410 :    27.950788151929910
 Root    411 :    28.099820505998230
 Root    412 :    28.286415823233340
 Root    413 :    28.305721428744980
 Root    414 :    28.345448214711080
 Root    415 :    28.353382652296100
 Root    416 :    28.373159245507310
 Root    417 :    28.453144553042470
 Root    418 :    28.627396296292530
 Root    419 :    28.691745677011140
 Root    420 :    28.763321380085650
 Root    421 :    28.793802502203430
 Root    422 :    28.868536080100060
 Root    423 :    28.897878374675040
 Root    424 :    28.925700219455090
 Root    425 :    29.233394346987190
 Root    426 :    29.270533496084480
 Root    427 :    29.337689459419580
 Root    428 :    29.384738795260070
 Root    429 :    29.434221904481970
 Root    430 :    29.436601438379390
 Root    431 :    29.518815830084640
 Root    432 :    29.556610678846370
 Root    433 :    29.606392066818920
 Root    434 :    29.728590109845140
 Root    435 :    29.802069517240250
 Root    436 :    29.823442936614160
 Root    437 :    29.839053471392530
 Root    438 :    29.985032427082340
 Root    439 :    30.082650987998320
 Root    440 :    30.109350077567670
 Root    441 :    30.184696966393670
 Root    442 :    30.285732153902040
 Root    443 :    30.353854616500770
 Root    444 :    30.606294692423210
 Root    445 :    30.642444871414380
 Root    446 :    30.702273878952780
 Root    447 :    30.713983125190540
 Root    448 :    30.723989240325130
 Root    449 :    30.781914516104970
 Root    450 :    30.813319703648890
 Root    451 :    30.831134077687890
 Root    452 :    30.943767599253940
 Root    453 :    30.985274367697430
 Root    454 :    31.067250974992490
 Root    455 :    31.177179323554980
 Root    456 :    31.208052104115910
 Root    457 :    31.229304811360470
 Root    458 :    31.329379458351360
 Root    459 :    31.471658500670510
 Root    460 :    31.482418990162750
 Root    461 :    31.519083093593040
 Root    462 :    31.638266093340210
 Root    463 :    31.729306315305810
 Root    464 :    31.767219445741960
 Root    465 :    31.791152887921630
 Root    466 :    31.820872604339480
 Root    467 :    31.907247903380570
 Root    468 :    31.938787111558930
 Root    469 :    31.945394766588570
 Root    470 :    31.998625984623370
 Root    471 :    32.034104974054990
 Root    472 :    32.098146143369050
 Root    473 :    32.162888037486080
 Root    474 :    32.281119120608480
 Root    475 :    32.446076918102310
 Root    476 :    32.551540923183810
 Root    477 :    32.611796004651690
 Root    478 :    32.694603053254670
 Root    479 :    32.723139127394110
 Root    480 :    32.845298704138780
 Root    481 :    32.852145849491880
 Root    482 :    32.925185004571200
 Root    483 :    32.998545183712810
 Root    484 :    33.004728596995650
 Root    485 :    33.099742599090190
 Root    486 :    33.115289354471810
 Root    487 :    33.354825670918020
 Root    488 :    33.380439720123900
 Root    489 :    33.398783550717760
 Root    490 :    33.413949878028510
 Root    491 :    33.584273947834960
 Root    492 :    33.608169433210070
 Root    493 :    33.813226535803660
 Root    494 :    33.819494210306340
 Root    495 :    33.889236503713550
 Root    496 :    34.014139786821570
 Root    497 :    34.102856778223750
 Root    498 :    34.214979209965270
 Root    499 :    34.229028834690540
 Root    500 :    34.303768931276890
 Root    501 :    34.330730147774520
 Root    502 :    34.352466572593820
 Root    503 :    34.428578569396930
 Root    504 :    34.439335334360990
 Root    505 :    34.485926961856010
 Root    506 :    34.497206352791000
 Root    507 :    34.530137995918070
 Root    508 :    34.539758271830560
 Root    509 :    34.616959480319760
 Root    510 :    34.660197041375560
 Root    511 :    34.757281751488460
 Root    512 :    34.766122052420810
 Root    513 :    34.949467525453820
 Root    514 :    34.964573991396850
 Root    515 :    35.163674628346210
 Root    516 :    35.257955972601980
 Root    517 :    35.291156786209030
 Root    518 :    35.364884905475100
 Root    519 :    35.428554252595850
 Root    520 :    35.476904862036110
 Root    521 :    35.595460327300270
 Root    522 :    35.668460021401170
 Root    523 :    35.710732495120190
 Root    524 :    35.722252761592880
 Root    525 :    35.775242126116390
 Root    526 :    35.859975328907570
 Root    527 :    35.871874832979710
 Root    528 :    36.068072365922800
 Root    529 :    36.094893361958090
 Root    530 :    36.324238922797380
 Root    531 :    36.336170558320100
 Root    532 :    36.459627351142270
 Root    533 :    36.463519458905650
 Root    534 :    36.550004562000240
 Root    535 :    36.652348515903030
 Root    536 :    36.736551461329500
 Root    537 :    36.788644531453020
 Root    538 :    36.963569619277960
 Root    539 :    37.028619760598470
 Root    540 :    37.070299884090110
 Root    541 :    37.103221016619600
 Root    542 :    37.242435203442180
 Root    543 :    37.280841190587440
 Root    544 :    37.317517206197610
 Root    545 :    37.408559146676650
 Root    546 :    37.449904407138770
 Root    547 :    37.693745100964150
 Root    548 :    37.709814960387900
 Root    549 :    37.763422245026570
 Root    550 :    37.859545999629700
 Root    551 :    37.863627368523920
 Root    552 :    37.899376153146540
 Root    553 :    38.011826919797230
 Root    554 :    38.015449947954980
 Root    555 :    38.192395630659380
 Root    556 :    38.240057015419200
 Root    557 :    38.556643199492630
 Root    558 :    38.683628253595250
 Root    559 :    38.693288990841990
 Root    560 :    38.958996198138410
 Root    561 :    39.006463431788240
 Root    562 :    39.093126452320930
 Root    563 :    39.180106267767750
 Root    564 :    39.226352334191280
 Root    565 :    39.360245076125080
 Root    566 :    39.455809013561570
 Root    567 :    39.534701201343610
 Root    568 :    39.684594885074460
 Root    569 :    40.163894499382320
 Root    570 :    40.342222925910260
 Root    571 :    40.355521449027090
 Root    572 :    40.441944926777450
 Root    573 :    40.502549525758710
 Root    574 :    40.540527269336780
 Root    575 :    40.587958514682940
 Root    576 :    40.829152484192190
 Root    577 :    41.094154303027960
 Root    578 :    41.154216555642320
 Root    579 :    41.238925004528390
 Root    580 :    41.380231073142840
 Root    581 :    41.457320823427840
 Root    582 :    41.703797541002040
 Root    583 :    41.760985414045920
 Root    584 :    41.838338238413230
 Root    585 :    41.889849065986720
 Root    586 :    41.947747627915430
 Root    587 :    41.960047315364080
 Root    588 :    42.119371900875060
 Root    589 :    42.148440792630790
 Root    590 :    42.175265724596690
 Root    591 :    42.280953431577080
 Root    592 :    42.327761009148790
 Root    593 :    42.460098849530700
 Root    594 :    42.774703333962950
 Root    595 :    42.958315699843140
 Root    596 :    43.144088940082270
 Root    597 :    43.181026182088880
 Root    598 :    43.233909341454800
 Root    599 :    43.323243881362340
 Root    600 :    43.483343183178520
 Root    601 :    43.608687801505270
 Root    602 :    43.629873661010580
 Root    603 :    43.776068917334700
 Root    604 :    43.778644058127260
 Root    605 :    43.847735806867280
 Root    606 :    43.913166485406830
 Root    607 :    44.077619209943240
 Root    608 :    44.207414780622990
 Root    609 :    44.358340887115910
 Root    610 :    44.536621302491240
 Root    611 :    44.624024227910970
 Root    612 :    44.861311800579140
 Root    613 :    45.001643217458530
 Root    614 :    45.061291782367230
 Root    615 :    45.144585281522750
 Root    616 :    45.165252018204520
 Root    617 :    45.586666583429730
 Root    618 :    45.724492129289160
 Root    619 :    45.973654569507410
[...]
      1  -0.131714D+03 -0.131712D+03 -0.131706D+03 -0.131702D+03 -0.131701D+03
      2   0.296359D-01  0.133710D-01  0.000000D+00 -0.400716D-02 -0.425247D-01
      3  -0.175112D-01 -0.714172D-01  0.000000D+00  0.668655D-01  0.557732D-02
      4   0.000000D+00  0.000000D+00  0.948077D-01  0.000000D+00  0.000000D+00
      5  -0.695987D-01 -0.423132D-01  0.000000D+00  0.105629D-01  0.127938D+00
      6   0.480887D-01  0.187076D+00  0.000000D+00 -0.172631D+00 -0.310572D-01
      7   0.000000D+00  0.000000D+00 -0.290096D+00  0.000000D+00  0.000000D+00
      8   0.000000D+00  0.000000D+00 -0.315267D+00  0.000000D+00  0.000000D+00
      9   0.000000D+00  0.000000D+00  0.367609D+00  0.000000D+00  0.000000D+00
     10  -0.127872D+00  0.296518D-01  0.000000D+00 -0.443749D-01 -0.265764D+00
     11  -0.157443D-02 -0.483498D-01  0.000000D+00 -0.145317D+00 -0.890975D-01
     12   0.355517D-01  0.219890D+00  0.000000D+00  0.331733D-01 -0.578637D+00
     13  -0.779335D+00  0.749429D+00  0.000000D+00 -0.128486D+01  0.538650D+00
     14   0.175702D+00 -0.525348D-01  0.000000D+00  0.430983D-01  0.378154D+00
     15   0.000000D+00  0.000000D+00  0.501044D+00  0.000000D+00  0.000000D+00
     16   0.000000D+00  0.000000D+00  0.823711D-01  0.000000D+00  0.000000D+00
               966           967           968           969           970 
      1  -0.131698D+03 -0.131691D+03 -0.131687D+03 -0.131674D+03 -0.131674D+03
      2   0.000000D+00  0.000000D+00 -0.106180D+00 -0.517086D-01  0.000000D+00
      3   0.000000D+00  0.000000D+00  0.264306D-01 -0.446252D-01  0.000000D+00
      4   0.465680D-01 -0.385580D-01  0.000000D+00  0.000000D+00 -0.204988D-01
      5   0.000000D+00  0.000000D+00  0.289239D+00  0.142067D+00  0.000000D+00
      6   0.000000D+00  0.000000D+00 -0.840700D-01  0.146720D+00  0.000000D+00
      7  -0.158207D+00  0.837820D-01  0.000000D+00  0.000000D+00  0.635691D-01
      8  -0.142832D+00 -0.517197D-01  0.000000D+00  0.000000D+00  0.197287D+00
      9   0.750448D-01 -0.125330D+00  0.000000D+00  0.000000D+00  0.615262D+00
     10   0.000000D+00  0.000000D+00  0.171468D+00 -0.926622D-02  0.000000D+00
     11   0.000000D+00  0.000000D+00 -0.217526D-01  0.374828D-01  0.000000D+00
     12   0.000000D+00  0.000000D+00  0.296497D-02  0.639082D-01  0.000000D+00
     13   0.000000D+00  0.000000D+00 -0.281637D+00 -0.640845D-01  0.000000D+00
     14   0.000000D+00  0.000000D+00 -0.964226D-01 -0.704230D-01  0.000000D+00
     15   0.255248D+00 -0.913256D-01  0.000000D+00  0.000000D+00  0.693879D+00
     16  -0.349125D+00  0.201673D+00  0.000000D+00  0.000000D+00 -0.130430D+00
               971           972           973           974           975 
      1  -0.131667D+03 -0.131662D+03 -0.131660D+03 -0.131652D+03 -0.131639D+03
      2   0.880851D-01 -0.153375D-01  0.000000D+00  0.000000D+00  0.000000D+00
      3  -0.104280D+00 -0.125381D-01  0.000000D+00  0.000000D+00  0.000000D+00
      4   0.000000D+00  0.000000D+00  0.152227D-01 -0.204043D-02  0.141840D+00
      5  -0.244494D+00  0.435882D-01  0.000000D+00  0.000000D+00  0.000000D+00
      6   0.281980D+00  0.397654D-01  0.000000D+00  0.000000D+00  0.000000D+00
      7   0.000000D+00  0.000000D+00 -0.420532D-01 -0.107317D-01 -0.420420D+00
      8   0.000000D+00  0.000000D+00 -0.116483D+00 -0.279611D+00 -0.231749D+00
      9   0.000000D+00  0.000000D+00 -0.218352D+00  0.992977D-01  0.162130D+00
     10   0.127201D+00 -0.120588D+00  0.000000D+00  0.000000D+00  0.000000D+00
     11  -0.289717D-01  0.172451D+00  0.000000D+00  0.000000D+00  0.000000D+00
     12   0.106904D+00 -0.873980D-01  0.000000D+00  0.000000D+00  0.000000D+00
     13  -0.319905D+00 -0.234291D+00  0.000000D+00  0.000000D+00  0.000000D+00
     14  -0.167474D+00  0.132697D-01  0.000000D+00  0.000000D+00  0.000000D+00
     15   0.000000D+00  0.000000D+00 -0.237916D+00 -0.166753D-01  0.106975D+00
     16   0.000000D+00  0.000000D+00 -0.239757D+00 -0.133694D+00 -0.356102D+00
               976           977           978           979           980 
      1  -0.131632D+03 -0.131631D+03 -0.131623D+03 -0.131593D+03 -0.131592D+03
      2   0.140091D-01  0.000000D+00  0.596153D-01  0.765053D-02  0.000000D+00
      3  -0.291695D-01  0.000000D+00  0.692695D-01 -0.492223D-01  0.000000D+00
      4   0.000000D+00  0.121963D+00  0.000000D+00  0.000000D+00 -0.668375D-01
      5  -0.330437D-01  0.000000D+00 -0.154729D+00 -0.449371D-01  0.000000D+00
      6   0.885355D-01  0.000000D+00 -0.193810D+00  0.141610D+00  0.000000D+00
      7   0.000000D+00 -0.358160D+00  0.000000D+00  0.000000D+00  0.200198D+00
      8   0.000000D+00 -0.719210D-01  0.000000D+00  0.000000D+00 -0.602951D+00
      9   0.000000D+00 -0.534065D+00  0.000000D+00  0.000000D+00  0.481916D+00
     10   0.997547D-01  0.000000D+00  0.971803D-01  0.103231D+00  0.000000D+00
     11  -0.642808D-01  0.000000D+00  0.239789D-02  0.189086D-01  0.000000D+00
     12   0.706207D+00  0.000000D+00  0.361253D-01  0.409286D-01  0.000000D+00
     13  -0.580660D-01  0.000000D+00  0.155110D+00  0.122551D+00  0.000000D+00
     14  -0.104414D+00  0.000000D+00 -0.448108D-01 -0.104771D+00  0.000000D+00
     15   0.000000D+00 -0.508920D+00  0.000000D+00  0.000000D+00  0.336170D+00
     16   0.000000D+00 -0.108907D+00  0.000000D+00  0.000000D+00  0.330232D+00
               981           982           983           984           985 
      1  -0.131588D+03 -0.131585D+03 -0.131584D+03 -0.131584D+03 -0.131570D+03
      2   0.000000D+00 -0.776701D-01  0.000000D+00  0.135163D+00  0.000000D+00
      3   0.000000D+00 -0.105038D-01  0.000000D+00 -0.403067D-01  0.000000D+00
      4   0.101335D+00  0.000000D+00  0.159703D-01  0.000000D+00  0.156412D-01
      5   0.000000D+00  0.218437D+00  0.000000D+00 -0.380316D+00  0.000000D+00
      6   0.000000D+00  0.386107D-01  0.000000D+00  0.121978D+00  0.000000D+00
      7  -0.294448D+00  0.000000D+00 -0.565317D-01  0.000000D+00 -0.524327D-01
      8   0.362876D+00  0.000000D+00 -0.212227D+00  0.000000D+00  0.151966D+00
      9   0.450329D+00  0.000000D+00  0.325128D+00  0.000000D+00  0.365828D+00
     10   0.000000D+00 -0.145918D+00  0.000000D+00  0.955141D-01  0.000000D+00
     11   0.000000D+00 -0.714350D-01  0.000000D+00  0.452378D-01  0.000000D+00
     12   0.000000D+00  0.406960D+00  0.000000D+00  0.336825D+00  0.000000D+00
     13   0.000000D+00  0.254559D+00  0.000000D+00  0.529722D+00  0.000000D+00
     14   0.000000D+00  0.184440D+00  0.000000D+00 -0.276318D+00  0.000000D+00
     15   0.430867D+00  0.000000D+00  0.334377D+00  0.000000D+00  0.222784D+00
     16   0.208316D-01  0.000000D+00 -0.910554D-01  0.000000D+00 -0.434247D-01
               986           987           988           989           990 
      1  -0.131569D+03 -0.131543D+03 -0.131533D+03 -0.131525D+03 -0.131521D+03
      2   0.323814D-01  0.170861D-01  0.162916D-01  0.000000D+00  0.000000D+00
      3   0.923675D-01 -0.335709D-01 -0.150852D-01  0.000000D+00  0.000000D+00
      4   0.000000D+00  0.000000D+00  0.000000D+00  0.215174D-01 -0.245785D-01
      5  -0.918416D-01 -0.376737D-01 -0.399100D-01  0.000000D+00  0.000000D+00
      6  -0.278336D+00  0.878628D-01  0.423432D-01  0.000000D+00  0.000000D+00
      7   0.000000D+00  0.000000D+00  0.000000D+00 -0.796709D-01  0.726504D-01
      8   0.000000D+00  0.000000D+00  0.000000D+00 -0.350644D+00 -0.116686D+00
      9   0.000000D+00  0.000000D+00  0.000000D+00 -0.726091D-01 -0.144503D+00
     10  -0.143191D-01 -0.362385D-01 -0.184687D-01  0.000000D+00  0.000000D+00
     11   0.639072D-01  0.319994D-01  0.126909D+00  0.000000D+00  0.000000D+00
     12   0.292345D+00 -0.782985D-01  0.816488D-01  0.000000D+00  0.000000D+00
     13   0.596474D+00 -0.733506D+00 -0.123908D+00  0.000000D+00  0.000000D+00
     14  -0.330218D-01 -0.974461D-01 -0.514021D-01  0.000000D+00  0.000000D+00
     15   0.000000D+00  0.000000D+00  0.000000D+00 -0.730936D-01 -0.899796D-01
     16   0.000000D+00  0.000000D+00  0.000000D+00  0.193889D+00  0.839372D-01
               991           992           993           994           995 
      1  -0.131521D+03 -0.131517D+03 -0.131516D+03 -0.131509D+03 -0.131507D+03
      2  -0.200053D-01  0.435349D-01  0.000000D+00  0.226934D-01  0.000000D+00
      3  -0.309070D-03  0.259474D-01  0.000000D+00 -0.120927D+00  0.000000D+00
      4   0.000000D+00  0.000000D+00  0.280032D-01  0.000000D+00  0.140528D+00
      5   0.519049D-01 -0.113974D+00  0.000000D+00 -0.587416D-01  0.000000D+00
      6   0.158395D-02 -0.686456D-01  0.000000D+00  0.379836D+00  0.000000D+00
      7   0.000000D+00  0.000000D+00 -0.937210D-01  0.000000D+00 -0.442224D+00
      8   0.000000D+00  0.000000D+00 -0.572361D+00  0.000000D+00 -0.163856D+00
      9   0.000000D+00  0.000000D+00 -0.782599D-01  0.000000D+00 -0.246525D+00
     10   0.310871D+00 -0.119241D+00  0.000000D+00 -0.231297D-01  0.000000D+00
     11   0.349265D-02 -0.713031D-01  0.000000D+00  0.458867D-01  0.000000D+00
     12   0.121756D+00 -0.125203D-01  0.000000D+00  0.163328D+00  0.000000D+00
     13  -0.114740D+00 -0.926239D+00  0.000000D+00  0.459639D+00  0.000000D+00
     14  -0.391765D+00  0.121296D+00  0.000000D+00 -0.749396D-01  0.000000D+00
     15   0.000000D+00  0.000000D+00 -0.130362D-01  0.000000D+00 -0.148055D+00
     16   0.000000D+00  0.000000D+00  0.511139D+00  0.000000D+00 -0.255401D+00
               996           997           998           999          1000 
      1  -0.131505D+03 -0.131495D+03 -0.131475D+03 -0.131473D+03 -0.131472D+03
      2   0.320747D-01 -0.270688D-01  0.000000D+00  0.000000D+00 -0.247644D-01
      3   0.416180D-01 -0.342669D-01  0.000000D+00  0.000000D+00  0.252794D-01
      4   0.000000D+00  0.000000D+00 -0.227175D-01 -0.326497D-01  0.000000D+00
      5  -0.914979D-01  0.726019D-01  0.000000D+00  0.000000D+00  0.623118D-01
      6  -0.126075D+00  0.103595D+00  0.000000D+00  0.000000D+00 -0.601958D-01
      7   0.000000D+00  0.000000D+00  0.925844D-01  0.115897D+00  0.000000D+00
      8   0.000000D+00  0.000000D+00 -0.129907D+00  0.196900D+00  0.000000D+00
      9   0.000000D+00  0.000000D+00 -0.362747D+00 -0.102550D+00  0.000000D+00
     10  -0.800305D-01  0.510251D-01  0.000000D+00  0.000000D+00  0.342413D-01
     11  -0.859716D-01  0.406727D-02  0.000000D+00  0.000000D+00  0.277772D-01
     12  -0.360749D-01 -0.139271D-01  0.000000D+00  0.000000D+00  0.184637D+00
     13   0.204062D+00 -0.173891D-02  0.000000D+00  0.000000D+00 -0.625107D+00
     14  -0.189818D-02 -0.285527D-01  0.000000D+00  0.000000D+00 -0.928826D-01
     15   0.000000D+00  0.000000D+00 -0.330445D+00 -0.557904D-01  0.000000D+00
     16   0.000000D+00  0.000000D+00  0.617109D+00 -0.131856D+00  0.000000D+00
              1001          1002          1003          1004          1005 
      1  -0.131468D+03 -0.131457D+03 -0.131443D+03 -0.131437D+03 -0.131431D+03
      2   0.000000D+00 -0.132598D-01  0.000000D+00  0.000000D+00  0.255931D-01
      3   0.000000D+00 -0.173006D-01  0.000000D+00  0.000000D+00 -0.118703D+00
      4  -0.419668D-01  0.000000D+00  0.155406D-01  0.205749D-01  0.000000D+00
      5   0.000000D+00  0.435636D-01  0.000000D+00  0.000000D+00 -0.690364D-01
      6   0.000000D+00  0.555305D-01  0.000000D+00  0.000000D+00  0.382120D+00
      7   0.119809D+00  0.000000D+00 -0.503433D-01 -0.755760D-01  0.000000D+00
      8  -0.386267D+00  0.000000D+00 -0.262987D+00 -0.157872D+00  0.000000D+00
      9  -0.868718D-01  0.000000D+00  0.315203D+00 -0.544779D+00  0.000000D+00
     10   0.000000D+00 -0.475208D-01  0.000000D+00  0.000000D+00  0.150962D-01
     11   0.000000D+00  0.115305D+00  0.000000D+00  0.000000D+00 -0.217468D-01
     12   0.000000D+00 -0.156276D+00  0.000000D+00  0.000000D+00  0.806036D+00
     13   0.000000D+00  0.305321D+00  0.000000D+00  0.000000D+00 -0.125930D+01
     14   0.000000D+00  0.419939D-01  0.000000D+00  0.000000D+00 -0.705712D-01
     15  -0.145723D+00  0.000000D+00  0.200413D+00 -0.710491D+00  0.000000D+00
     16   0.463927D+00  0.000000D+00  0.592177D-01 -0.220899D+00  0.000000D+00
              1006          1007          1008          1009          1010 
      1  -0.131401D+03 -0.131399D+03 -0.131388D+03 -0.131376D+03 -0.131355D+03
      2  -0.889443D-02  0.000000D+00  0.000000D+00 -0.325501D-01  0.000000D+00
      3  -0.718022D-01  0.000000D+00  0.000000D+00 -0.156169D+00  0.000000D+00
      4   0.000000D+00 -0.184782D-01  0.111047D+00  0.000000D+00  0.336321D-01
      5   0.236727D-01  0.000000D+00  0.000000D+00  0.993166D-01  0.000000D+00
      6   0.189107D+00  0.000000D+00  0.000000D+00  0.501701D+00  0.000000D+00
      7   0.000000D+00  0.462308D-01 -0.380839D+00  0.000000D+00 -0.107079D+00
      8   0.000000D+00  0.207110D-01 -0.639629D+00  0.000000D+00 -0.102247D+00
      9   0.000000D+00 -0.238663D+00 -0.146996D-02  0.000000D+00 -0.161632D+00
     10  -0.487870D-01  0.000000D+00  0.000000D+00 -0.782910D-01  0.000000D+00
     11   0.251922D+00  0.000000D+00  0.000000D+00  0.542596D-01  0.000000D+00
     12  -0.476862D+00  0.000000D+00  0.000000D+00  0.879024D+00  0.000000D+00
     13   0.278822D+00  0.000000D+00  0.000000D+00 -0.716144D-01  0.000000D+00
     14   0.608217D-02  0.000000D+00  0.000000D+00 -0.461424D-01  0.000000D+00
     15   0.000000D+00 -0.307324D+00  0.138229D+00  0.000000D+00 -0.957632D-01
     16   0.000000D+00 -0.223801D-01  0.119780D+00  0.000000D+00  0.141289D+00
              1011          1012          1013          1014          1015 
      1  -0.131351D+03 -0.131290D+03 -0.131286D+03 -0.131284D+03 -0.131273D+03
      2   0.215730D-02  0.874877D-01  0.000000D+00  0.484893D-01  0.000000D+00
      3   0.153099D-01 -0.142575D-01  0.000000D+00 -0.444304D-01  0.000000D+00
      4   0.000000D+00  0.000000D+00 -0.629012D-02  0.000000D+00  0.355539D-01
      5  -0.142869D-02 -0.249225D+00  0.000000D+00 -0.155734D+00  0.000000D+00
      6  -0.699383D-01  0.319165D-01  0.000000D+00  0.123257D+00  0.000000D+00
      7   0.000000D+00  0.000000D+00  0.142582D-01  0.000000D+00 -0.787828D-01
      8   0.000000D+00  0.000000D+00 -0.559051D+00  0.000000D+00  0.157785D+00
      9   0.000000D+00  0.000000D+00  0.153983D-01  0.000000D+00 -0.707804D-02
     10  -0.657707D-02 -0.153177D+00  0.000000D+00  0.142063D+00  0.000000D+00
     11   0.506297D-01 -0.788783D-01  0.000000D+00 -0.498208D-01  0.000000D+00
     12  -0.316870D+00  0.246699D-01  0.000000D+00  0.173403D+00  0.000000D+00
     13   0.498838D+00 -0.193158D+00  0.000000D+00  0.338345D-01  0.000000D+00
     14   0.689116D-01  0.137505D-01  0.000000D+00 -0.831164D-01  0.000000D+00
     15   0.000000D+00  0.000000D+00  0.137114D-01  0.000000D+00 -0.530627D-01
     16   0.000000D+00  0.000000D+00  0.245164D+00  0.000000D+00  0.620777D+00
              1016          1017          1018          1019          1020 
      1  -0.131249D+03 -0.131241D+03 -0.131236D+03 -0.131221D+03 -0.131213D+03
      2   0.345674D-01  0.000000D+00  0.102561D+00  0.000000D+00  0.000000D+00
      3   0.146729D-01  0.000000D+00  0.372518D-01  0.000000D+00  0.000000D+00
      4   0.000000D+00  0.634238D-01  0.000000D+00  0.827608D-02 -0.282464D-01
      5  -0.898835D-01  0.000000D+00 -0.338670D+00  0.000000D+00  0.000000D+00
      6  -0.361813D-01  0.000000D+00 -0.106399D+00  0.000000D+00  0.000000D+00
      7   0.000000D+00 -0.225013D+00  0.000000D+00 -0.196985D-01  0.987351D-01
      8   0.000000D+00 -0.254835D+00  0.000000D+00 -0.794739D-01 -0.426816D+00
      9   0.000000D+00  0.804617D-02  0.000000D+00  0.202663D+00  0.829328D-02
     10  -0.161070D+00  0.000000D+00  0.244993D+00  0.000000D+00  0.000000D+00
     11   0.352530D-01  0.000000D+00  0.964556D-01  0.000000D+00  0.000000D+00
     12  -0.189829D-01  0.000000D+00 -0.118975D+00  0.000000D+00  0.000000D+00
     13   0.573285D-01  0.000000D+00 -0.706660D-02  0.000000D+00  0.000000D+00
     14  -0.450121D-01  0.000000D+00 -0.151579D+00  0.000000D+00  0.000000D+00
     15   0.000000D+00  0.101258D+00  0.000000D+00  0.322687D+00  0.187159D-01
     16   0.000000D+00 -0.206041D+00  0.000000D+00  0.808271D-01  0.252472D+00
              1021          1022          1023          1024          1025 
      1  -0.131207D+03 -0.131170D+03 -0.131168D+03 -0.131112D+03 -0.131101D+03
      2  -0.956881D-02  0.946795D-02  0.000000D+00  0.980263D-01  0.000000D+00
      3   0.405945D-01 -0.473762D-01  0.000000D+00  0.534647D-01  0.000000D+00
      4   0.000000D+00  0.000000D+00  0.103290D+00  0.000000D+00  0.532266D-03
      5   0.229394D-01 -0.379286D-01  0.000000D+00 -0.331278D+00  0.000000D+00
      6  -0.155955D+00  0.151876D+00  0.000000D+00 -0.185598D+00  0.000000D+00
      7   0.000000D+00  0.000000D+00 -0.371337D+00  0.000000D+00  0.169851D-01
      8   0.000000D+00  0.000000D+00 -0.356224D+00  0.000000D+00  0.648652D-01
      9   0.000000D+00  0.000000D+00 -0.297258D-01  0.000000D+00 -0.396862D+00
     10  -0.236874D-02  0.446720D-02  0.000000D+00  0.412175D+00  0.000000D+00
     11   0.712006D-01  0.121731D+00  0.000000D+00  0.184422D+00  0.000000D+00
     12  -0.616140D+00  0.247465D+00  0.000000D+00 -0.544388D+00  0.000000D+00
     13  -0.949154D+00 -0.514423D-01  0.000000D+00 -0.421905D+00  0.000000D+00
     14   0.430623D-01 -0.392871D-01  0.000000D+00 -0.322066D+00  0.000000D+00
     15   0.000000D+00  0.000000D+00  0.597885D-01  0.000000D+00 -0.430040D+00
     16   0.000000D+00  0.000000D+00 -0.298779D+00  0.000000D+00  0.264883D-01
              1026          1027          1028          1029          1030 
      1  -0.131098D+03 -0.131020D+03 -0.131002D+03 -0.130937D+03 -0.130750D+03
      2   0.258965D-01  0.000000D+00 -0.392798D-01  0.000000D+00 -0.555157D-01
      3  -0.268136D-01  0.000000D+00 -0.269922D-01  0.000000D+00 -0.398636D-01
      4   0.000000D+00  0.471369D-01  0.000000D+00 -0.189411D-01  0.000000D+00
      5  -0.889589D-01  0.000000D+00  0.130052D+00  0.000000D+00  0.185071D+00
      6   0.704753D-01  0.000000D+00  0.882704D-01  0.000000D+00  0.112207D+00
      7   0.000000D+00 -0.837711D-01  0.000000D+00  0.974809D-01  0.000000D+00
      8   0.000000D+00  0.438493D-01  0.000000D+00  0.183318D-01  0.000000D+00
      9   0.000000D+00  0.451356D-01  0.000000D+00  0.912514D-01  0.000000D+00
     10   0.112948D+00  0.000000D+00 -0.110128D+00  0.000000D+00 -0.159433D+00
     11   0.175622D+00  0.000000D+00 -0.192441D-01  0.000000D+00 -0.933446D-01
     12  -0.409950D+00  0.000000D+00  0.632524D-01  0.000000D+00  0.195028D+00
     13   0.326783D+00  0.000000D+00 -0.388729D+00  0.000000D+00  0.446601D-01
     14  -0.123697D+00  0.000000D+00  0.149927D+00  0.000000D+00  0.362714D-01
     15   0.000000D+00  0.100669D+00  0.000000D+00  0.308534D-01  0.000000D+00
     16   0.000000D+00 -0.953638D-01  0.000000D+00  0.395767D+00  0.000000D+00
 Unable to Open any file for archive entry.
 1\1\GINC-HEL22\SP\RBLYP TD-FC\Gen\C2H7N1\SABYASACHI\21-Mar-2022\0\\#P 
 TD(Nstates=10000) blyp/Gen SCF(maxcycles=100) Int(Grid=ultrafine)\\xGD
 B7_00001_tier4.com\\0,1\C,0,-0.026655,-0.220923,1.206915\N,0,-0.026655
 ,0.579675,0.\C,0,-0.026655,-0.220923,-1.206915\H,0,0.028929,0.427196,2
 .08233\H,0,0.800836,-0.947383,1.258571\H,0,-0.961718,-0.783094,1.26936
 7\H,0,0.770359,1.199905,0.\H,0,-0.961718,-0.783094,-1.269367\H,0,0.800
 836,-0.947383,-1.258571\H,0,0.028929,0.427196,-2.08233\\Version=EM64L-
 G16RevC.01\State=1-A'\HF=-134.9947868\RMSD=8.187e-09\PG=CS [SG(H1N1),X
 (C2H6)]\\@
 The archive entry for this job was punched.


 IT IS A PROFOUNDLY ERRONEOUS TRUISM ... THAT WE SHOULD CULTIVATE
 THE HABIT OF THINKING OF WHAT WE ARE DOING.
 THE PRECISE OPPOSITE IS THE CASE.
 CIVILIZATION ADVANCES BY EXTENDING THE NUMBER OF IMPORTANT OPERATIONS
 WHICH WE CAN PERFORM WITHOUT THINKING ABOUT THEM.

                                    -- ALFRED NORTH WHITEHEAD
 Job cpu time:       0 days  0 hours 15 minutes 48.6 seconds.
 Elapsed time:       0 days  0 hours  1 minutes 58.9 seconds.
 File lengths (MBytes):  RWF=    532 Int=      0 D2E=      0 Chk=    332 Scr=      1
 Normal termination of Gaussian 16 at Mon Mar 21 20:08:21 2022.
