 Entering Gaussian System, Link 0=g16
 Input=000023.com
 Output=000023.log
 Initial command:
 /home/sabyasachi/g16/l1.exe "/scratch/sabyasachi/PBS_7975926.helios/Gau-140631.inp" -scrdir="/scratch/sabyasachi/PBS_7975926.helios/"
 Entering Link 1 = /home/sabyasachi/g16/l1.exe PID=    140633.
  
 Copyright (c) 1988-2019, Gaussian, Inc.  All Rights Reserved.
  
 This is part of the Gaussian(R) 16 program.  It is based on
 the Gaussian(R) 09 system (copyright 2009, Gaussian, Inc.),
 the Gaussian(R) 03 system (copyright 2003, Gaussian, Inc.),
 the Gaussian(R) 98 system (copyright 1998, Gaussian, Inc.),
 the Gaussian(R) 94 system (copyright 1995, Gaussian, Inc.),
 the Gaussian 92(TM) system (copyright 1992, Gaussian, Inc.),
 the Gaussian 90(TM) system (copyright 1990, Gaussian, Inc.),
 the Gaussian 88(TM) system (copyright 1988, Gaussian, Inc.),
 the Gaussian 86(TM) system (copyright 1986, Carnegie Mellon
 University), and the Gaussian 82(TM) system (copyright 1983,
 Carnegie Mellon University). Gaussian is a federally registered
 trademark of Gaussian, Inc.
  
 This software contains proprietary and confidential information,
 including trade secrets, belonging to Gaussian, Inc.
  
 This software is provided under written license and may be
 used, copied, transmitted, or stored only in accord with that
 written license.
  
 The following legend is applicable only to US Government
 contracts under FAR:
  
                    RESTRICTED RIGHTS LEGEND
  
 Use, reproduction and disclosure by the US Government is
 subject to restrictions as set forth in subparagraphs (a)
 and (c) of the Commercial Computer Software - Restricted
 Rights clause in FAR 52.227-19.
  
 Gaussian, Inc.
 340 Quinnipiac St., Bldg. 40, Wallingford CT 06492
  
  
 ---------------------------------------------------------------
 Warning -- This program may not be used in any manner that
 competes with the business of Gaussian, Inc. or will provide
 assistance to any competitor of Gaussian, Inc.  The licensee
 of this program is prohibited from giving any competitor of
 Gaussian, Inc. access to this program.  By using this program,
 the user acknowledges that Gaussian, Inc. is engaged in the
 business of creating and licensing software in the field of
 computational chemistry and represents and warrants to the
 licensee that it is not a competitor of Gaussian, Inc. and that
 it will not use this program in any manner prohibited above.
 ---------------------------------------------------------------
  

 Cite this work as:
 Gaussian 16, Revision C.01,
 M. J. Frisch, G. W. Trucks, H. B. Schlegel, G. E. Scuseria, 
 M. A. Robb, J. R. Cheeseman, G. Scalmani, V. Barone, 
 G. A. Petersson, H. Nakatsuji, X. Li, M. Caricato, A. V. Marenich, 
 J. Bloino, B. G. Janesko, R. Gomperts, B. Mennucci, H. P. Hratchian, 
 J. V. Ortiz, A. F. Izmaylov, J. L. Sonnenberg, D. Williams-Young, 
 F. Ding, F. Lipparini, F. Egidi, J. Goings, B. Peng, A. Petrone, 
 T. Henderson, D. Ranasinghe, V. G. Zakrzewski, J. Gao, N. Rega, 
 G. Zheng, W. Liang, M. Hada, M. Ehara, K. Toyota, R. Fukuda, 
 J. Hasegawa, M. Ishida, T. Nakajima, Y. Honda, O. Kitao, H. Nakai, 
 T. Vreven, K. Throssell, J. A. Montgomery, Jr., J. E. Peralta, 
 F. Ogliaro, M. J. Bearpark, J. J. Heyd, E. N. Brothers, K. N. Kudin, 
 V. N. Staroverov, T. A. Keith, R. Kobayashi, J. Normand, 
 K. Raghavachari, A. P. Rendell, J. C. Burant, S. S. Iyengar, 
 J. Tomasi, M. Cossi, J. M. Millam, M. Klene, C. Adamo, R. Cammi, 
 J. W. Ochterski, R. L. Martin, K. Morokuma, O. Farkas, 
 J. B. Foresman, and D. J. Fox, Gaussian, Inc., Wallingford CT, 2019.
 
 ******************************************
 Gaussian 16:  EM64L-G16RevC.01  3-Jul-2019
                21-Mar-2022 
 ******************************************
 %mem=64gb
 %nproc=8
 Will use up to    8 processors via shared memory.
 --------------------------------------------------------------------
 #P TD(Nstates=10000) blyp/Gen SCF(maxcycles=100) Int(Grid=ultrafine)
 --------------------------------------------------------------------
 1/38=1,172=1/1;
 2/12=2,17=6,18=5,40=1/2;
 3/5=7,11=9,25=1,30=1,74=402,75=-5/1,2,3,8;
 4//1;
 5/5=2,7=100,38=5/2;
 8/6=1,10=1,108=10000/1;
 9/41=10000,42=1,70=2/14;
 6/7=2,8=2,9=2,10=2/1;
 99/5=1,9=1/99;
 Leave Link    1 at Mon Mar 21 19:55:47 2022, MaxMem=  8589934592 cpu:               0.4 elap:               0.1
 (Enter /home/sabyasachi/g16/l101.exe)
 ---------------------
 xGDB7_00001_tier4.com
 ---------------------
 Symbolic Z-matrix:
 Charge =  0 Multiplicity = 1
 6                     0.        0.       -1.17365 
 6                     0.        0.        0.28099 
 7                     0.        0.        1.42744 
 1                     0.        1.02409  -1.54537 
 1                    -0.88689  -0.51204  -1.54537 
 1                     0.88689  -0.51204  -1.54537 
 
 ITRead=  0  0  0  0  0  0
 MicOpt= -1 -1 -1 -1 -1 -1
 NAtoms=      6 NQM=        6 NQMF=       0 NMMI=      0 NMMIF=      0
                NMic=       0 NMicF=      0.
                    Isotopes and Nuclear Properties:
 (Nuclear quadrupole moments (NQMom) in fm**2, nuclear magnetic moments (NMagM)
  in nuclear magnetons)

  Atom         1           2           3           4           5           6
 IAtWgt=          12          12          14           1           1           1
 AtmWgt=  12.0000000  12.0000000  14.0030740   1.0078250   1.0078250   1.0078250
 NucSpn=           0           0           2           1           1           1
 AtZEff=  -0.0000000  -0.0000000  -0.0000000  -0.0000000  -0.0000000  -0.0000000
 NQMom=    0.0000000   0.0000000   2.0440000   0.0000000   0.0000000   0.0000000
 NMagM=    0.0000000   0.0000000   0.4037610   2.7928460   2.7928460   2.7928460
 AtZNuc=   6.0000000   6.0000000   7.0000000   1.0000000   1.0000000   1.0000000
 Leave Link  101 at Mon Mar 21 19:55:48 2022, MaxMem=  8589934592 cpu:               0.6 elap:               0.1
 (Enter /home/sabyasachi/g16/l202.exe)
                          Input orientation:                          
 ---------------------------------------------------------------------
 Center     Atomic      Atomic             Coordinates (Angstroms)
 Number     Number       Type             X           Y           Z
 ---------------------------------------------------------------------
      1          6           0        0.000000    0.000000   -1.173653
      2          6           0        0.000000    0.000000    0.280989
      3          7           0        0.000000    0.000000    1.427442
      4          1           0        0.000000    1.024088   -1.545371
      5          1           0       -0.886886   -0.512044   -1.545371
      6          1           0        0.886886   -0.512044   -1.545371
 ---------------------------------------------------------------------
                    Distance matrix (angstroms):
                    1          2          3          4          5
     1  C    0.000000
     2  C    1.454642   0.000000
     3  N    2.601095   1.146453   0.000000
     4  H    1.089463   2.093883   3.144260   0.000000
     5  H    1.089463   2.093883   3.144260   1.773772   0.000000
     6  H    1.089463   2.093883   3.144260   1.773772   1.773772
                    6
     6  H    0.000000
 Stoichiometry    C2H3N
 Framework group  C3V[C3(CCN),3SGV(H)]
 Deg. of freedom     4
 Full point group                 C3V     NOp   6
 Largest Abelian subgroup         CS      NOp   2
 Largest concise Abelian subgroup CS      NOp   2
                         Standard orientation:                         
 ---------------------------------------------------------------------
 Center     Atomic      Atomic             Coordinates (Angstroms)
 Number     Number       Type             X           Y           Z
 ---------------------------------------------------------------------
      1          6           0        0.000000    0.000000   -1.173653
      2          6           0        0.000000    0.000000    0.280989
      3          7           0        0.000000    0.000000    1.427442
      4          1           0        0.000000    1.024088   -1.545371
      5          1           0       -0.886886   -0.512044   -1.545371
      6          1           0        0.886886   -0.512044   -1.545371
 ---------------------------------------------------------------------
 Rotational constants (GHZ):         159.3808899           9.3073631           9.3073631
 Leave Link  202 at Mon Mar 21 19:55:48 2022, MaxMem=  8589934592 cpu:               0.1 elap:               0.0
 (Enter /home/sabyasachi/g16/l301.exe)
 General basis read from cards:  (5D, 7F)
 Centers:       4      5      6
 S 3 1.00
     Exponent=  1.3010701000D+01 Coefficients=  1.9682158000D-02
     Exponent=  1.9622572000D+00 Coefficients=  1.3796524000D-01
     Exponent=  4.4453796000D-01 Coefficients=  4.7831935000D-01
 S 1 1.00
     Exponent=  1.2194962000D-01 Coefficients=  1.0000000000D+00
 P 1 1.00
     Exponent=  8.0000000000D-01 Coefficients=  1.0000000000D+00
 P 1 1.00
     Exponent=  1.1704099050D-01 Coefficients=  1.0000000000D+00
 ****
 Centers:       1      2
 S 5 1.00
     Exponent=  1.2384016938D+03 Coefficients=  5.4568832082D-03
     Exponent=  1.8629004992D+02 Coefficients=  4.0638409211D-02
     Exponent=  4.2251176346D+01 Coefficients=  1.8025593888D-01
     Exponent=  1.1676557932D+01 Coefficients=  4.6315121755D-01
     Exponent=  3.5930506482D+00 Coefficients=  4.4087173314D-01
 S 1 1.00
     Exponent=  4.0245147363D-01 Coefficients=  1.0000000000D+00
 S 1 1.00
     Exponent=  1.3090182668D-01 Coefficients=  1.0000000000D+00
 S 1 1.00
     Exponent=  6.7053540256D-02 Coefficients=  1.0000000000D+00
 P 3 1.00
     Exponent=  9.4680970621D+00 Coefficients=  3.8387871728D-02
     Exponent=  2.0103545142D+00 Coefficients=  2.1117025112D-01
     Exponent=  5.4771004707D-01 Coefficients=  5.1328172114D-01
 P 1 1.00
     Exponent=  1.5268613795D-01 Coefficients=  1.0000000000D+00
 D 1 1.00
     Exponent=  8.0000000000D-01 Coefficients=  1.0000000000D+00
 D 1 1.00
     Exponent=  1.1713185140D-01 Coefficients=  1.0000000000D+00
 ****
 Centers:       3
 S 5 1.00
     Exponent=  1.7128415853D+03 Coefficients= -5.3934125305D-03
     Exponent=  2.5764812677D+02 Coefficients= -4.0221581118D-02
     Exponent=  5.8458245853D+01 Coefficients= -1.7931144990D-01
     Exponent=  1.6198367905D+01 Coefficients= -4.6376317823D-01
     Exponent=  5.0052600809D+00 Coefficients= -4.4171422662D-01
 S 1 1.00
     Exponent=  5.8731856571D-01 Coefficients=  1.0000000000D+00
 S 1 1.00
     Exponent=  1.8764592253D-01 Coefficients=  1.0000000000D+00
 S 1 1.00
     Exponent=  9.6171241529D-02 Coefficients=  1.0000000000D+00
 P 3 1.00
     Exponent=  1.3571470233D+01 Coefficients= -4.0072398852D-02
     Exponent=  2.9257372874D+00 Coefficients= -2.1807045028D-01
     Exponent=  7.9927750754D-01 Coefficients= -5.1294466049D-01
 P 1 1.00
     Exponent=  2.1954348034D-01 Coefficients=  1.0000000000D+00
 D 1 1.00
     Exponent=  1.0000000000D+00 Coefficients=  1.0000000000D+00
 D 1 1.00
     Exponent=  1.6697708112D-01 Coefficients=  1.0000000000D+00
 ****
 Ernie: Thresh=  0.10000D-02 Tol=  0.10000D-05 Strict=F.
 There are    62 symmetry adapted cartesian basis functions of A'  symmetry.
 There are    28 symmetry adapted cartesian basis functions of A"  symmetry.
 There are    56 symmetry adapted basis functions of A'  symmetry.
 There are    28 symmetry adapted basis functions of A"  symmetry.
    84 basis functions,   126 primitive gaussians,    90 cartesian basis functions
    11 alpha electrons       11 beta electrons
       nuclear repulsion energy        58.7485374816 Hartrees.
 IExCor=  402 DFT=T Ex=B Corr=LYP ExCW=0 ScaHFX=  0.000000
 ScaDFX=  1.000000  1.000000  1.000000  1.000000 ScalE2=  1.000000  1.000000
 IRadAn=      5 IRanWt=     -1 IRanGd=            0 ICorTp=0 IEmpDi=  4
 NAtoms=    6 NActive=    6 NUniq=    4 SFac= 2.25D+00 NAtFMM=   60 NAOKFM=F Big=F
 Integral buffers will be    131072 words long.
 Regular integral format.
 Two-electron integral symmetry is turned on.
 Leave Link  301 at Mon Mar 21 19:55:48 2022, MaxMem=  8589934592 cpu:               0.6 elap:               0.1
 (Enter /home/sabyasachi/g16/l302.exe)
 NPDir=0 NMtPBC=     1 NCelOv=     1 NCel=       1 NClECP=     1 NCelD=      1
         NCelK=      1 NCelE2=     1 NClLst=     1 CellRange=     0.0.
 One-electron integrals computed using PRISM.
 One-electron integral symmetry used in STVInt
 NBasis=    84 RedAO= T EigKep=  2.41D-04  NBF=    56    28
 NBsUse=    84 1.00D-06 EigRej= -1.00D+00 NBFU=    56    28
 Precomputing XC quadrature grid using
 IXCGrd= 4 IRadAn=           5 IRanWt=          -1 IRanGd=           0 AccXCQ= 0.00D+00.
 Generated NRdTot=       0 NPtTot=           0 NUsed=           0 NTot=          32
 NSgBfM=    90    90    90    90    90 MxSgAt=     6 MxSgA2=     6.
 Leave Link  302 at Mon Mar 21 19:55:48 2022, MaxMem=  8589934592 cpu:               0.9 elap:               0.1
 (Enter /home/sabyasachi/g16/l303.exe)
 DipDrv:  MaxL=1.
 Leave Link  303 at Mon Mar 21 19:55:48 2022, MaxMem=  8589934592 cpu:               0.2 elap:               0.0
 (Enter /home/sabyasachi/g16/l308.exe)
 Leave Link  308 at Mon Mar 21 19:55:48 2022, MaxMem=  8589934592 cpu:               0.2 elap:               0.0
 (Enter /home/sabyasachi/g16/l401.exe)
 ExpMin= 6.71D-02 ExpMax= 1.71D+03 ExpMxC= 2.58D+02 IAcc=3 IRadAn=         5 AccDes= 0.00D+00
 Harris functional with IExCor=  402 and IRadAn=       5 diagonalized for initial guess.
 HarFok:  IExCor=  402 AccDes= 0.00D+00 IRadAn=         5 IDoV= 1 UseB2=F ITyADJ=14
 ICtDFT=  3500011 ScaDFX=  1.000000  1.000000  1.000000  1.000000
 FoFCou: FMM=F IPFlag=           0 FMFlag=      100000 FMFlg1=           0
         NFxFlg=           0 DoJE=T BraDBF=F KetDBF=T FulRan=T
         wScrn=  0.000000 ICntrl=       500 IOpCl=  0 I1Cent=   200000004 NGrid=           0
         NMat0=    1 NMatS0=      1 NMatT0=    0 NMatD0=    1 NMtDS0=    0 NMtDT0=    0
 Petite list used in FoFCou.
 Harris En= -132.677373016451    
 JPrj=0 DoOrth=F DoCkMO=F.
 Initial guess orbital symmetries:
       Occupied  (A1) (A1) (A1) (A1) (A1) (A1) (E) (E) (A1) (E)
                 (E)
       Virtual   (E) (E) (A1) (A1) (E) (E) (A1) (E) (E) (A1) (E)
                 (E) (A1) (E) (E) (A1) (E) (E) (E) (E) (A1) (A2)
                 (A1) (A1) (E) (E) (E) (E) (E) (E) (A1) (E) (E)
                 (A1) (E) (E) (A1) (A1) (E) (E) (A1) (E) (E) (A1)
                 (A1) (E) (E) (A1) (E) (E) (A1) (A2) (E) (E) (E)
                 (E) (E) (E) (A1) (E) (E) (A1) (E) (E) (E) (E)
                 (A1) (E) (E) (A1) (E) (E) (A1)
 The electronic state of the initial guess is 1-A1.
 Leave Link  401 at Mon Mar 21 19:55:48 2022, MaxMem=  8589934592 cpu:               1.6 elap:               0.2
 (Enter /home/sabyasachi/g16/l502.exe)
 Keep J ints in memory in symmetry-blocked form, NReq=13697361.
 FoFCou: FMM=F IPFlag=           0 FMFlag=           0 FMFlg1=           0
         NFxFlg=           0 DoJE=F BraDBF=F KetDBF=F FulRan=T
         wScrn=  0.000000 ICntrl=       600 IOpCl=  0 I1Cent=           0 NGrid=           0
         NMat0=    1 NMatS0=   3570 NMatT0=    0 NMatD0=    1 NMtDS0=    0 NMtDT0=    0
 Petite list used in FoFCou.
 Closed shell SCF:
 Using DIIS extrapolation, IDIIS=  1040.
 NGot=  8589934592 LenX=  8586672929 LenY=  8586664388
 Requested convergence on RMS density matrix=1.00D-08 within 100 cycles.
 Requested convergence on MAX density matrix=1.00D-06.
 Requested convergence on             energy=1.00D-06.
 No special actions if energy rises.
 Integral accuracy reduced to 1.0D-05 until final iterations.

 Cycle   1  Pass 0  IDiag  1:
 E= -132.532274356564    
 DIIS: error= 3.18D-02 at cycle   1 NSaved=   1.
 NSaved= 1 IEnMin= 1 EnMin= -132.532274356564     IErMin= 1 ErrMin= 3.18D-02
 ErrMax= 3.18D-02  0.00D+00 EMaxC= 1.00D-01 BMatC= 7.71D-02 BMatP= 7.71D-02
 IDIUse=3 WtCom= 6.82D-01 WtEn= 3.18D-01
 Coeff-Com:  0.100D+01
 Coeff-En:   0.100D+01
 Coeff:      0.100D+01
 Gap=     0.258 Goal=   None    Shift=    0.000
 GapD=    0.258 DampG=1.000 DampE=0.500 DampFc=0.5000 IDamp=-1.
 Damping current iteration by 5.00D-01
 RMSDP=1.31D-02 MaxDP=2.61D-01              OVMax= 2.57D-01

 Cycle   2  Pass 0  IDiag  1:
 E= -132.531067629035     Delta-E=        0.001206727529 Rises=F Damp=T
 DIIS: error= 2.04D-02 at cycle   2 NSaved=   2.
 NSaved= 2 IEnMin= 1 EnMin= -132.532274356564     IErMin= 2 ErrMin= 2.04D-02
 ErrMax= 2.04D-02  0.00D+00 EMaxC= 1.00D-01 BMatC= 3.08D-02 BMatP= 7.71D-02
 IDIUse=3 WtCom= 7.96D-01 WtEn= 2.04D-01
 Coeff-Com:  0.361D+00 0.639D+00
 Coeff-En:   0.506D+00 0.494D+00
 Coeff:      0.391D+00 0.609D+00
 Gap=     0.262 Goal=   None    Shift=    0.000
 RMSDP=4.30D-03 MaxDP=7.73D-02 DE= 1.21D-03 OVMax= 2.31D-01

 Cycle   3  Pass 0  IDiag  1:
 E= -132.581455322148     Delta-E=       -0.050387693113 Rises=F Damp=F
 DIIS: error= 1.56D-02 at cycle   3 NSaved=   3.
 NSaved= 3 IEnMin= 3 EnMin= -132.581455322148     IErMin= 3 ErrMin= 1.56D-02
 ErrMax= 1.56D-02  0.00D+00 EMaxC= 1.00D-01 BMatC= 3.17D-02 BMatP= 3.08D-02
 IDIUse=3 WtCom= 8.44D-01 WtEn= 1.56D-01
 EnCoef did     1 forward-backward iterations
 Coeff-Com:  0.177D+00 0.467D+00 0.356D+00
 Coeff-En:   0.610D-01 0.159D+00 0.780D+00
 Coeff:      0.159D+00 0.419D+00 0.423D+00
 Gap=     0.279 Goal=   None    Shift=    0.000
 RMSDP=2.69D-03 MaxDP=4.40D-02 DE=-5.04D-02 OVMax= 7.75D-02

 Cycle   4  Pass 0  IDiag  1:
 E= -132.607704322872     Delta-E=       -0.026249000725 Rises=F Damp=F
 DIIS: error= 7.95D-03 at cycle   4 NSaved=   4.
 NSaved= 4 IEnMin= 4 EnMin= -132.607704322872     IErMin= 4 ErrMin= 7.95D-03
 ErrMax= 7.95D-03  0.00D+00 EMaxC= 1.00D-01 BMatC= 5.10D-03 BMatP= 3.08D-02
 IDIUse=3 WtCom= 9.21D-01 WtEn= 7.95D-02
 Coeff-Com:  0.624D-01 0.776D-01 0.278D+00 0.582D+00
 Coeff-En:   0.000D+00 0.000D+00 0.193D+00 0.807D+00
 Coeff:      0.575D-01 0.714D-01 0.271D+00 0.600D+00
 Gap=     0.284 Goal=   None    Shift=    0.000
 RMSDP=8.16D-04 MaxDP=1.34D-02 DE=-2.62D-02 OVMax= 2.35D-02

 Cycle   5  Pass 0  IDiag  1:
 E= -132.612306310212     Delta-E=       -0.004601987340 Rises=F Damp=F
 DIIS: error= 8.85D-04 at cycle   5 NSaved=   5.
 NSaved= 5 IEnMin= 5 EnMin= -132.612306310212     IErMin= 5 ErrMin= 8.85D-04
 ErrMax= 8.85D-04  0.00D+00 EMaxC= 1.00D-01 BMatC= 4.80D-05 BMatP= 5.10D-03
 IDIUse=3 WtCom= 9.91D-01 WtEn= 8.85D-03
 Coeff-Com:  0.118D-01 0.479D-02 0.883D-01 0.262D+00 0.633D+00
 Coeff-En:   0.000D+00 0.000D+00 0.000D+00 0.000D+00 0.100D+01
 Coeff:      0.117D-01 0.474D-02 0.875D-01 0.260D+00 0.636D+00
 Gap=     0.282 Goal=   None    Shift=    0.000
 RMSDP=1.16D-04 MaxDP=2.45D-03 DE=-4.60D-03 OVMax= 2.41D-03

 Cycle   6  Pass 0  IDiag  1:
 E= -132.612348693726     Delta-E=       -0.000042383513 Rises=F Damp=F
 DIIS: error= 1.76D-04 at cycle   6 NSaved=   6.
 NSaved= 6 IEnMin= 6 EnMin= -132.612348693726     IErMin= 6 ErrMin= 1.76D-04
 ErrMax= 1.76D-04  0.00D+00 EMaxC= 1.00D-01 BMatC= 2.21D-06 BMatP= 4.80D-05
 IDIUse=3 WtCom= 9.98D-01 WtEn= 1.76D-03
 Coeff-Com:  0.241D-02-0.163D-02 0.249D-01 0.828D-01 0.304D+00 0.588D+00
 Coeff-En:   0.000D+00 0.000D+00 0.000D+00 0.000D+00 0.000D+00 0.100D+01
 Coeff:      0.241D-02-0.162D-02 0.248D-01 0.827D-01 0.303D+00 0.589D+00
 Gap=     0.283 Goal=   None    Shift=    0.000
 RMSDP=3.47D-05 MaxDP=5.83D-04 DE=-4.24D-05 OVMax= 5.19D-04

 Cycle   7  Pass 0  IDiag  1:
 E= -132.612351372468     Delta-E=       -0.000002678742 Rises=F Damp=F
 DIIS: error= 9.79D-06 at cycle   7 NSaved=   7.
 NSaved= 7 IEnMin= 7 EnMin= -132.612351372468     IErMin= 7 ErrMin= 9.79D-06
 ErrMax= 9.79D-06  0.00D+00 EMaxC= 1.00D-01 BMatC= 8.69D-09 BMatP= 2.21D-06
 IDIUse=1 WtCom= 1.00D+00 WtEn= 0.00D+00
 Coeff-Com:  0.122D-03-0.275D-03 0.159D-02 0.626D-02 0.351D-01 0.111D+00
 Coeff-Com:  0.846D+00
 Coeff:      0.122D-03-0.275D-03 0.159D-02 0.626D-02 0.351D-01 0.111D+00
 Coeff:      0.846D+00
 Gap=     0.283 Goal=   None    Shift=    0.000
 RMSDP=2.77D-06 MaxDP=3.68D-05 DE=-2.68D-06 OVMax= 3.71D-05

 Initial convergence to 1.0D-05 achieved.  Increase integral accuracy.
 Cycle   8  Pass 1  IDiag  1:
 E= -132.612350306438     Delta-E=        0.000001066030 Rises=F Damp=F
 DIIS: error= 1.45D-06 at cycle   1 NSaved=   1.
 NSaved= 1 IEnMin= 1 EnMin= -132.612350306438     IErMin= 1 ErrMin= 1.45D-06
 ErrMax= 1.45D-06  0.00D+00 EMaxC= 1.00D-01 BMatC= 2.19D-10 BMatP= 2.19D-10
 IDIUse=1 WtCom= 1.00D+00 WtEn= 0.00D+00
 Coeff-Com:  0.100D+01
 Coeff:      0.100D+01
 Gap=     0.283 Goal=   None    Shift=    0.000
 RMSDP=2.77D-06 MaxDP=3.68D-05 DE= 1.07D-06 OVMax= 8.88D-06

 Cycle   9  Pass 1  IDiag  1:
 E= -132.612350306405     Delta-E=        0.000000000033 Rises=F Damp=F
 DIIS: error= 2.34D-06 at cycle   2 NSaved=   2.
 NSaved= 2 IEnMin= 1 EnMin= -132.612350306438     IErMin= 1 ErrMin= 1.45D-06
 ErrMax= 2.34D-06  0.00D+00 EMaxC= 1.00D-01 BMatC= 4.35D-10 BMatP= 2.19D-10
 IDIUse=1 WtCom= 1.00D+00 WtEn= 0.00D+00
 Coeff-Com:  0.609D+00 0.391D+00
 Coeff:      0.609D+00 0.391D+00
 Gap=     0.283 Goal=   None    Shift=    0.000
 RMSDP=3.46D-07 MaxDP=6.33D-06 DE= 3.33D-11 OVMax= 1.09D-05

 Cycle  10  Pass 1  IDiag  1:
 E= -132.612350306609     Delta-E=       -0.000000000204 Rises=F Damp=F
 DIIS: error= 1.74D-06 at cycle   3 NSaved=   3.
 NSaved= 3 IEnMin= 3 EnMin= -132.612350306609     IErMin= 1 ErrMin= 1.45D-06
 ErrMax= 1.74D-06  0.00D+00 EMaxC= 1.00D-01 BMatC= 1.87D-10 BMatP= 2.19D-10
 IDIUse=1 WtCom= 1.00D+00 WtEn= 0.00D+00
 Coeff-Com:  0.139D+00 0.368D+00 0.493D+00
 Coeff:      0.139D+00 0.368D+00 0.493D+00
 Gap=     0.283 Goal=   None    Shift=    0.000
 RMSDP=1.75D-07 MaxDP=3.31D-06 DE=-2.04D-10 OVMax= 5.99D-06

 Cycle  11  Pass 1  IDiag  1:
 E= -132.612350306760     Delta-E=       -0.000000000151 Rises=F Damp=F
 DIIS: error= 5.31D-07 at cycle   4 NSaved=   4.
 NSaved= 4 IEnMin= 4 EnMin= -132.612350306760     IErMin= 4 ErrMin= 5.31D-07
 ErrMax= 5.31D-07  0.00D+00 EMaxC= 1.00D-01 BMatC= 1.98D-11 BMatP= 1.87D-10
 IDIUse=1 WtCom= 1.00D+00 WtEn= 0.00D+00
 Coeff-Com:  0.917D-02 0.184D+00 0.342D+00 0.464D+00
 Coeff:      0.917D-02 0.184D+00 0.342D+00 0.464D+00
 Gap=     0.283 Goal=   None    Shift=    0.000
 RMSDP=6.26D-08 MaxDP=1.52D-06 DE=-1.51D-10 OVMax= 1.06D-06

 Cycle  12  Pass 1  IDiag  1:
 E= -132.612350306779     Delta-E=       -0.000000000019 Rises=F Damp=F
 DIIS: error= 5.26D-08 at cycle   5 NSaved=   5.
 NSaved= 5 IEnMin= 5 EnMin= -132.612350306779     IErMin= 5 ErrMin= 5.26D-08
 ErrMax= 5.26D-08  0.00D+00 EMaxC= 1.00D-01 BMatC= 1.22D-13 BMatP= 1.98D-11
 IDIUse=1 WtCom= 1.00D+00 WtEn= 0.00D+00
 Coeff-Com: -0.618D-03 0.414D-01 0.962D-01 0.114D+00 0.749D+00
 Coeff:     -0.618D-03 0.414D-01 0.962D-01 0.114D+00 0.749D+00
 Gap=     0.283 Goal=   None    Shift=    0.000
 RMSDP=7.08D-09 MaxDP=1.21D-07 DE=-1.88D-11 OVMax= 1.91D-07

 SCF Done:  E(RB-LYP) =  -132.612350307     A.U. after   12 cycles
            NFock= 12  Conv=0.71D-08     -V/T= 2.0098
 KE= 1.313241065803D+02 PE=-4.251984837791D+02 EE= 1.025134894104D+02
 Leave Link  502 at Mon Mar 21 19:55:49 2022, MaxMem=  8589934592 cpu:               7.0 elap:               0.9
 (Enter /home/sabyasachi/g16/l801.exe)
 DoSCS=F DFT=T ScalE2(SS,OS)=  1.000000  1.000000
 ExpMin= 6.71D-02 ExpMax= 1.71D+03 ExpMxC= 2.58D+02 IAcc=3 IRadAn=         5 AccDes= 0.00D+00
 HarFok:  IExCor=  205 AccDes= 0.00D+00 IRadAn=         5 IDoV=-2 UseB2=F ITyADJ=14
 ICtDFT= 12500011 ScaDFX=  1.000000  1.000000  1.000000  1.000000
 Largest valence mixing into a core orbital is  6.62D-05
 Largest core mixing into a valence orbital is  1.27D-05
 Range of M.O.s used for correlation:     4    84
 NBasis=    84 NAE=    11 NBE=    11 NFC=     3 NFV=     0
 NROrb=     81 NOA=     8 NOB=     8 NVA=    73 NVB=    73

 **** Warning!!: The largest alpha MO coefficient is  0.40321947D+02

 Leave Link  801 at Mon Mar 21 19:55:49 2022, MaxMem=  8589934592 cpu:               0.5 elap:               0.1
 (Enter /home/sabyasachi/g16/l914.exe)
 RHF ground state
 Keep J ints in memory in symmetry-blocked form, NReq=409355741.
 FoFCou: FMM=F IPFlag=           0 FMFlag=           0 FMFlg1=           0
         NFxFlg=           0 DoJE=F BraDBF=F KetDBF=F FulRan=T
         wScrn=  0.000000 ICntrl=       600 IOpCl=  0 I1Cent=           0 NGrid=           0
         NMat0=    1 NMatS0=   3570 NMatT0=    0 NMatD0=    1 NMtDS0=    0 NMtDT0=    0
 Petite list used in FoFCou.
 MDV=  8589934592 DFT=T DoStab=F Mixed=F DoRPA=T DoScal=T NonHer=F
 Making orbital integer symmetry assigments:
 Orbital symmetries:
       Occupied  (A1) (A1) (A1) (A1) (A1) (A1) (E) (E) (A1) (E)
                 (E)
       Virtual   (A1) (E) (E) (A1) (E) (E) (A1) (E) (E) (E) (E)
                 (A1) (A1) (E) (E) (A1) (E) (E) (A1) (A2) (E) (E)
                 (A1) (A1) (E) (E) (E) (E) (E) (E) (A1) (E) (E)
                 (A1) (E) (E) (A1) (A1) (E) (E) (A1) (E) (E) (A1)
                 (A1) (E) (E) (A1) (E) (E) (A1) (A2) (E) (E) (E)
                 (E) (E) (E) (A1) (E) (E) (A1) (E) (E) (E) (E)
                 (A1) (E) (E) (A1) (E) (E) (A1)
   584 initial guesses have been made.
 Convergence on wavefunction:    0.001000000000000
 Davidson Disk Diagonalization:  ConvIn= 1.00D-03 SkipCon=T Conv= 1.00D-03.
 Max sub-space:  2336 roots to seek:  1168 dimension of matrix:         1168
 *** WARNING: Number of orthogonal guesses is          584
 Iteration     1 Dimension   584 NMult     0 NNew    584
 CISAX will form   584 AO SS matrices at one time.
 NMat=   584 NSing=   584 JSym2X=-1.
 New state      1 was old state      2
 New state      2 was old state      1
 New state      3 was old state      6
 New state      4 was old state      7
 New state      5 was old state      3
 New state      6 was old state      4
 New state      7 was old state      8
 New state      8 was old state      9
 New state      9 was old state     11
 New state     11 was old state     12
 New state     12 was old state     14
 New state     14 was old state     16
 New state     16 was old state     18
 New state     18 was old state     22
 New state     19 was old state     24
 New state     20 was old state     21
 New state     21 was old state     23
 New state     22 was old state     20
 New state     23 was old state     19
 New state     24 was old state     26
 New state     26 was old state     31
 New state     27 was old state     32
 New state     28 was old state     33
 New state     29 was old state     27
 New state     30 was old state     28
 New state     31 was old state     30
 New state     32 was old state     29
 New state     33 was old state     34
 New state     34 was old state     53
 New state     35 was old state     37
 New state     36 was old state     38
 New state     37 was old state     36
 New state     38 was old state     35
 New state     40 was old state     41
 New state     41 was old state     42
 New state     42 was old state     44
 New state     44 was old state     45
 New state     45 was old state     48
 New state     47 was old state     49
 New state     48 was old state     50
 New state     49 was old state     40
 New state     50 was old state     51
 New state     51 was old state     52
 New state     52 was old state     54
 New state     53 was old state     61
 New state     54 was old state     59
 New state     56 was old state     57
 New state     57 was old state     56
 New state     58 was old state     65
 New state     59 was old state     62
 New state     60 was old state     63
 New state     61 was old state     60
 New state     62 was old state     58
 New state     63 was old state     47
 New state     64 was old state     67
 New state     65 was old state     66
 New state     66 was old state     70
 New state     67 was old state     69
 New state     68 was old state     71
 New state     69 was old state     72
 New state     70 was old state     74
 New state     71 was old state     73
 New state     72 was old state     64
 New state     73 was old state     76
 New state     74 was old state     75
 New state     75 was old state     79
 New state     76 was old state     80
 New state     77 was old state     81
 New state     79 was old state     77
 New state     80 was old state     85
 New state     81 was old state     84
 New state     84 was old state     68
 New state     85 was old state     88
 New state     86 was old state     89
 New state     87 was old state     86
 New state     88 was old state     90
 New state     89 was old state     87
 New state     90 was old state     91
 New state     91 was old state     95
 New state     92 was old state     94
 New state     93 was old state     92
 New state     94 was old state     93
 New state     95 was old state     96
 New state     96 was old state     97
 New state     97 was old state     98
 New state     98 was old state     99
 New state     99 was old state    101
 New state    101 was old state    108
 New state    108 was old state    109
 New state    109 was old state    110
 New state    110 was old state    111
 New state    111 was old state    112
 New state    112 was old state    114
 New state    114 was old state    115
 New state    115 was old state    116
 New state    116 was old state    120
 New state    117 was old state    119
 New state    118 was old state    141
 New state    119 was old state    117
 New state    120 was old state    118
 New state    122 was old state    125
 New state    123 was old state    127
 New state    124 was old state    123
 New state    125 was old state    128
 New state    126 was old state    130
 New state    127 was old state    129
 New state    128 was old state    126
 New state    129 was old state    131
 New state    130 was old state    132
 New state    131 was old state    135
 New state    132 was old state    136
 No map to state    135
 No map to state    136
 New state    137 was old state    140
 New state    138 was old state    139
 New state    139 was old state    143
 New state    140 was old state    138
 New state    141 was old state    137
 New state    143 was old state    144
 New state    144 was old state    146
 New state    145 was old state    147
 New state    146 was old state    148
 New state    147 was old state    151
 New state    148 was old state    150
 New state    150 was old state    152
 New state    151 was old state    145
 New state    152 was old state    158
 New state    153 was old state    157
 New state    154 was old state    155
 New state    155 was old state    156
 New state    156 was old state    153
 New state    157 was old state    154
 New state    158 was old state    159
 New state    159 was old state    161
 New state    161 was old state    162
 New state    162 was old state    163
 New state    163 was old state    164
 New state    164 was old state    167
 New state    167 was old state    170
 New state    169 was old state    177
 New state    170 was old state    173
 New state    171 was old state    172
 New state    172 was old state    176
 New state    173 was old state    169
 New state    174 was old state    178
 New state    175 was old state    181
 New state    176 was old state    175
 New state    177 was old state    174
 New state    178 was old state    179
 New state    179 was old state    180
 New state    180 was old state    171
 New state    181 was old state    182
 New state    182 was old state    184
 New state    183 was old state    188
 New state    184 was old state    191
 New state    185 was old state    192
 New state    187 was old state    193
 New state    188 was old state    194
 New state    189 was old state    190
 New state    190 was old state    189
 New state    191 was old state    187
 New state    192 was old state    195
 New state    193 was old state    196
 New state    194 was old state    198
 New state    195 was old state    197
 New state    196 was old state    183
 New state    197 was old state    185
 No map to state    198
 New state    200 was old state    202
 New state    202 was old state    205
 New state    203 was old state    204
 New state    204 was old state    203
 New state    205 was old state    200
 New state    206 was old state    207
 New state    207 was old state    206
 New state    208 was old state    213
 New state    209 was old state    212
 New state    210 was old state    209
 New state    211 was old state    208
 New state    212 was old state    210
 New state    213 was old state    216
 New state    214 was old state    215
 New state    215 was old state    217
 New state    216 was old state    214
 New state    217 was old state    218
 New state    218 was old state    220
 New state    219 was old state    221
 New state    220 was old state    224
 New state    221 was old state    223
 New state    223 was old state    219
 New state    224 was old state    230
 New state    225 was old state    226
 New state    226 was old state    225
 New state    227 was old state    229
 New state    228 was old state    240
 New state    229 was old state    228
 New state    230 was old state    227
 New state    231 was old state    233
 New state    232 was old state    235
 New state    233 was old state    236
 New state    234 was old state    231
 New state    235 was old state    232
 New state    236 was old state    234
 New state    238 was old state    241
 New state    239 was old state    243
 New state    240 was old state    242
 New state    241 was old state    244
 New state    242 was old state    245
 New state    243 was old state    246
 New state    244 was old state    248
 New state    245 was old state    247
 New state    246 was old state    239
 New state    247 was old state    238
 New state    248 was old state    249
 New state    249 was old state    252
 New state    252 was old state    261
 New state    253 was old state    256
 New state    255 was old state    253
 New state    256 was old state    258
 New state    258 was old state    259
 New state    259 was old state    260
 New state    260 was old state    255
 New state    261 was old state    262
 New state    262 was old state    263
 New state    263 was old state    268
 New state    264 was old state    266
 New state    266 was old state    264
 New state    267 was old state    269
 New state    268 was old state    267
 New state    269 was old state    270
 New state    270 was old state    273
 New state    273 was old state    274
 New state    274 was old state    277
 New state    275 was old state    276
 New state    276 was old state    275
 New state    277 was old state    278
 New state    278 was old state    285
 New state    279 was old state    280
 New state    280 was old state    279
 New state    283 was old state    287
 New state    284 was old state    286
 New state    285 was old state    283
 New state    286 was old state    284
 New state    287 was old state    290
 New state    288 was old state    297
 New state    290 was old state    288
 New state    291 was old state    292
 New state    292 was old state    291
 New state    293 was old state    295
 New state    294 was old state    296
 New state    295 was old state    293
 New state    296 was old state    294
 New state    297 was old state    304
 New state    298 was old state    302
 New state    299 was old state    300
 New state    300 was old state    305
 New state    301 was old state    308
 New state    302 was old state    299
 New state    303 was old state    301
 New state    304 was old state    298
 New state    305 was old state    306
 New state    306 was old state    307
 New state    307 was old state    319
 New state    308 was old state    309
 New state    309 was old state    310
 New state    310 was old state    311
 New state    311 was old state    312
 New state    312 was old state    313
 New state    313 was old state    314
 New state    314 was old state    315
 New state    315 was old state    316
 New state    316 was old state    318
 New state    318 was old state    321
 New state    319 was old state    320
 New state    320 was old state    322
 New state    321 was old state    323
 New state    322 was old state    325
 New state    323 was old state    328
 New state    325 was old state    329
 New state    328 was old state    303
 New state    329 was old state    345
 New state    330 was old state    333
 New state    331 was old state    335
 New state    332 was old state    330
 New state    333 was old state    331
 New state    334 was old state    336
 New state    335 was old state    332
 New state    336 was old state    338
 New state    338 was old state    342
 New state    339 was old state    341
 New state    341 was old state    339
 New state    342 was old state    344
 New state    344 was old state    347
 New state    345 was old state    348
 New state    347 was old state    349
 New state    348 was old state    350
 New state    349 was old state    351
 New state    350 was old state    353
 New state    351 was old state    352
 New state    352 was old state    358
 New state    353 was old state    356
 New state    354 was old state    357
 New state    355 was old state    359
 New state    356 was old state    355
 New state    357 was old state    354
 New state    358 was old state    363
 New state    359 was old state    360
 New state    360 was old state    361
 New state    361 was old state    362
 New state    362 was old state    366
 New state    363 was old state    365
 New state    365 was old state    371
 New state    366 was old state    367
 New state    367 was old state    368
 New state    368 was old state    370
 No map to state    370
 New state    371 was old state    372
 New state    372 was old state    373
 New state    373 was old state    375
 New state    375 was old state    376
 New state    376 was old state    377
 New state    377 was old state    379
 New state    379 was old state    380
 New state    380 was old state    395
 New state    383 was old state    385
 New state    385 was old state    383
 New state    386 was old state    389
 New state    387 was old state    386
 New state    388 was old state    387
 New state    389 was old state    392
 New state    391 was old state    388
 New state    392 was old state    394
 New state    394 was old state    391
 New state    395 was old state    396
 New state    396 was old state    399
 New state    397 was old state    400
 New state    398 was old state    404
 New state    399 was old state    403
 New state    400 was old state    402
 New state    401 was old state    397
 New state    402 was old state    398
 New state    403 was old state    407
 New state    404 was old state    405
 New state    405 was old state    406
 New state    406 was old state    401
 New state    407 was old state    412
 New state    408 was old state    411
 New state    409 was old state    408
 New state    410 was old state    409
 New state    411 was old state    410
 New state    412 was old state    424
 New state    413 was old state    417
 New state    414 was old state    418
 New state    415 was old state    416
 New state    416 was old state    415
 New state    417 was old state    419
 New state    418 was old state    413
 New state    419 was old state    414
 New state    420 was old state    421
 New state    421 was old state    422
 New state    422 was old state    420
 No map to state    424
 New state    427 was old state    428
 New state    428 was old state    427
 New state    429 was old state    430
 New state    430 was old state    429
 New state    431 was old state    435
 New state    432 was old state    437
 New state    433 was old state    438
 New state    434 was old state    436
 New state    435 was old state    432
 New state    436 was old state    431
 New state    437 was old state    440
 New state    438 was old state    439
 New state    439 was old state    434
 New state    440 was old state    433
 New state    445 was old state    448
 New state    446 was old state    447
 New state    447 was old state    446
 New state    448 was old state    450
 New state    450 was old state    445
 New state    452 was old state    453
 New state    453 was old state    452
 New state    454 was old state    457
 New state    455 was old state    458
 New state    456 was old state    460
 New state    457 was old state    455
 New state    458 was old state    456
 New state    459 was old state    462
 New state    460 was old state    461
 New state    461 was old state    454
 New state    462 was old state    463
 New state    463 was old state    464
 New state    464 was old state    465
 New state    465 was old state    459
 New state    469 was old state    474
 New state    470 was old state    475
 New state    471 was old state    476
 New state    472 was old state    471
 New state    473 was old state    472
 New state    474 was old state    470
 New state    475 was old state    469
 New state    476 was old state    473
 New state    482 was old state    483
 New state    483 was old state    482
 New state    487 was old state    490
 New state    489 was old state    492
 New state    490 was old state    491
 New state    491 was old state    493
 New state    492 was old state    494
 New state    493 was old state    495
 New state    494 was old state    496
 New state    495 was old state    498
 New state    496 was old state    499
 New state    497 was old state    500
 New state    498 was old state    501
 New state    499 was old state    497
 New state    500 was old state    503
 New state    501 was old state    502
 New state    502 was old state    487
 New state    503 was old state    489
 New state    504 was old state    507
 New state    505 was old state    506
 New state    506 was old state    508
 New state    507 was old state    504
 New state    508 was old state    505
 New state    509 was old state    511
 New state    510 was old state    513
 New state    511 was old state    510
 New state    512 was old state    509
 New state    513 was old state    512
 New state    515 was old state    519
 New state    516 was old state    518
 New state    518 was old state    516
 New state    519 was old state    515
 New state    520 was old state    521
 New state    521 was old state    520
 New state    524 was old state    525
 New state    525 was old state    524
 New state    529 was old state    530
 New state    530 was old state    529
 New state    531 was old state    532
 New state    532 was old state    531
 New state    533 was old state    534
 New state    534 was old state    533
 New state    535 was old state    538
 New state    536 was old state    537
 New state    537 was old state    536
 New state    538 was old state    535
 New state    539 was old state    540
 New state    540 was old state    539
 New state    543 was old state    544
 New state    544 was old state    546
 New state    545 was old state    549
 New state    546 was old state    548
 New state    547 was old state    543
 New state    548 was old state    545
 New state    549 was old state    547
 New state    550 was old state    551
 New state    551 was old state    552
 New state    552 was old state    555
 New state    553 was old state    556
 New state    555 was old state    553
 New state    556 was old state    550
 New state    559 was old state    562
 New state    561 was old state    559
 New state    562 was old state    563
 New state    563 was old state    561
 New state    565 was old state    566
 New state    566 was old state    565
 New state    567 was old state    568
 New state    568 was old state    567
 New state    570 was old state    571
 New state    571 was old state    570
 New state    572 was old state    573
 New state    573 was old state    572
 New state    575 was old state    576
 New state    576 was old state    575
 Excitation Energies [eV] at current iteration:
 Root      1 :     7.732279231940385
 Root      2 :     7.732281690796914
 Root      3 :     7.922697289735185
 Root      4 :     8.020950422874048
 Root      5 :     8.116364223878906
 Root      6 :     8.116364719703720
 Root      7 :     8.882934521677020
 Root      8 :     8.882934544646599
 Root      9 :     9.584742913349032
 Root     10 :     9.584758449668961
 Root     11 :     9.752938933854551
 Root     12 :     9.980839223346843
 Root     13 :    10.194412593899860
 Root     14 :    10.220627010106160
 Root     15 :    10.220627596800150
 Root     16 :    10.632849817207900
 Root     17 :    10.632850099217850
 Root     18 :    10.974170012761400
 Root     19 :    10.996514973274150
 Root     20 :    11.035774858317040
 Root     21 :    11.035775375962880
 Root     22 :    11.110816083898530
 Root     23 :    11.110816987091560
 Root     24 :    11.277675705592190
 Root     25 :    11.277676754128860
 Root     26 :    11.301142405416300
 Root     27 :    11.332736920782790
 Root     28 :    11.332737179382990
 Root     29 :    11.339122901899130
 Root     30 :    11.530266513017080
 Root     31 :    11.530266822405180
 Root     32 :    11.569492854275200
 Root     33 :    12.414890242465350
 Root     34 :    12.599169783030760
 Root     35 :    12.923664016489860
 Root     36 :    12.923667977495690
 Root     37 :    13.028504674088230
 Root     38 :    13.028505757425550
 Root     39 :    13.139584335461390
 Root     40 :    13.139589776755620
 Root     41 :    13.175409658737280
 Root     42 :    13.522736354498750
 Root     43 :    13.522736553415600
 Root     44 :    13.576123981884380
 Root     45 :    13.665957633777570
 Root     46 :    13.665958522743420
 Root     47 :    13.799132296636010
 Root     48 :    13.799132951911630
 Root     49 :    13.832549002742040
 Root     50 :    14.056111439497900
 Root     51 :    14.056115904660920
 Root     52 :    14.147831075318540
 Root     53 :    14.330966689104300
 Root     54 :    14.343942873730430
 Root     55 :    14.367157867205820
 Root     56 :    14.453397117063020
 Root     57 :    14.453397840227970
 Root     58 :    14.760730895764350
 Root     59 :    14.830773066320810
 Root     60 :    14.830773898487790
 Root     61 :    14.973840640468110
 Root     62 :    14.973846386447300
 Root     63 :    15.188629673349890
 Root     64 :    15.250232139271120
 Root     65 :    15.408855713142600
 Root     66 :    15.607406472105330
 Root     67 :    15.607407541798360
 Root     68 :    15.655823183560480
 Root     69 :    15.655824605918930
 Root     70 :    15.748698561919950
 Root     71 :    15.748703986931940
 Root     72 :    15.874273421367580
 Root     73 :    15.874276593545230
 Root     74 :    16.044549412028140
 Root     75 :    16.180237251181800
 Root     76 :    16.227377397444910
 Root     77 :    16.227386536603560
 Root     78 :    16.315830532810340
 Root     79 :    16.315831427821660
 Root     80 :    16.446284534698990
 Root     81 :    16.446285336365100
 Root     82 :    16.459117525612900
 Root     83 :    16.459117893274860
 Root     84 :    16.474615759402710
 Root     85 :    16.523793654842720
 Root     86 :    16.523795787653090
 Root     87 :    16.553699413014330
 Root     88 :    16.654962201531890
 Root     89 :    16.740493508896300
 Root     90 :    16.776874748191940
 Root     91 :    16.783755159152650
 Root     92 :    16.871306102947080
 Root     93 :    16.871308562739880
 Root     94 :    16.923931428369160
 Root     95 :    17.121233791651630
 Root     96 :    17.121234048261340
 Root     97 :    17.131514403266000
 Root     98 :    17.131515552839420
 Root     99 :    17.618978278448050
 Root    100 :    17.618995750185840
 Root    101 :    17.704159430882170
 Root    102 :    17.765455270207510
 Root    103 :    17.765457756784730
 Root    104 :    18.135911809418320
 Root    105 :    18.135913208933610
 Root    106 :    18.454458238185960
 Root    107 :    18.532836259848410
 Root    108 :    18.650854351938150
 Root    109 :    18.650867588036830
 Root    110 :    18.661776977221350
 Root    111 :    18.695051509217130
 Root    112 :    18.821371171166520
 Root    113 :    18.821372725215860
 Root    114 :    18.839467030660380
 Root    115 :    19.121979821078640
 Root    116 :    19.179403138582580
 Root    117 :    19.179405344748080
 Root    118 :    19.226898683007000
 Root    119 :    19.428712078915960
 Root    120 :    19.428715615831540
 Root    121 :    19.432350847287270
 Root    122 :    19.483967695390910
 Root    123 :    19.483968173636940
 Root    124 :    19.489471790873280
 Root    125 :    19.492396112586070
 Root    126 :    19.627515304610420
 Root    127 :    19.627521445416840
 Root    128 :    19.682178438303020
 Root    129 :    19.707627838004850
 Root    130 :    19.707634022640760
 Root    131 :    19.803583736464060
 Root    132 :    19.803587511788180
 Root    133 :    19.862937819388230
 Root    134 :    19.862938414362900
 Root    135 :    19.999155386125970
 Root    136 :    19.999156148998710
 Root    137 :    20.161740313351050
 Root    138 :    20.295584225783340
 Root    139 :    20.463967120566140
 Root    140 :    20.540589389888450
 Root    141 :    20.540592211563680
 Root    142 :    20.558615623398440
 Root    143 :    20.558621379217710
 Root    144 :    20.698940991876360
 Root    145 :    20.772421716686520
 Root    146 :    20.772422864046310
 Root    147 :    20.783884772749300
 Root    148 :    20.829179238331270
 Root    149 :    20.829179780447300
 Root    150 :    21.000464488000880
 Root    151 :    21.336428300894110
 Root    152 :    21.446579341030400
 Root    153 :    21.446584499547490
 Root    154 :    21.493454142850010
 Root    155 :    21.493454595678980
 Root    156 :    21.632594541381690
 Root    157 :    21.632596172086490
 Root    158 :    21.895840783446840
 Root    159 :    21.948617841316890
 Root    160 :    21.948625726142880
 Root    161 :    22.077055100867320
 Root    162 :    22.206228292580750
 Root    163 :    22.206228660154490
 Root    164 :    22.446507285872850
 Root    165 :    22.662665610066870
 Root    166 :    22.662667121297730
 Root    167 :    22.787623957314860
 Root    168 :    22.787627459418880
 Root    169 :    22.844806449814810
 Root    170 :    22.860540234589070
 Root    171 :    22.860568256244060
 Root    172 :    22.876439711024020
 Root    173 :    22.902358153813020
 Root    174 :    23.016843554342870
 Root    175 :    23.155920859295960
 Root    176 :    23.156954427278100
 Root    177 :    23.156958563959750
 Root    178 :    23.306970641969160
 Root    179 :    23.306971698221310
 Root    180 :    23.312681145225040
 Root    181 :    23.470792134057120
 Root    182 :    23.656673083588360
 Root    183 :    23.818921991649430
 Root    184 :    23.883336831051580
 Root    185 :    23.883339837933280
 Root    186 :    23.912433135648860
 Root    187 :    24.059208810329330
 Root    188 :    24.059215146070290
 Root    189 :    24.129655230057040
 Root    190 :    24.161488647745530
 Root    191 :    24.161499339914520
 Root    192 :    24.175201926813200
 Root    193 :    24.175205057162330
 Root    194 :    24.258997424641960
 Root    195 :    24.258998306457990
 Root    196 :    24.286354018230630
 Root    197 :    24.600318471704350
 Root    198 :    24.600322324645440
 Root    199 :    24.937305772111330
 Root    200 :    25.156443044653740
 Root    201 :    25.156443408428030
 Root    202 :    25.251148152879490
 Root    203 :    25.251148169654570
 Root    204 :    25.602933488540410
 Root    205 :    26.169172713843920
 Root    206 :    26.224579559649500
 Root    207 :    26.224590870239560
 Root    208 :    26.239720690919470
 Root    209 :    26.239724598553260
 Root    210 :    26.275041880843070
 Root    211 :    26.275042442675700
 Root    212 :    26.280349219152690
 Root    213 :    26.436115636805960
 Root    214 :    26.436116995549890
 Root    215 :    26.717343768016230
 Root    216 :    26.863441206893310
 Root    217 :    26.952828572601250
 Root    218 :    27.074320061495140
 Root    219 :    27.074322335403690
 Root    220 :    27.115259565119450
 Root    221 :    27.204183089623680
 Root    222 :    27.204185484266170
 Root    223 :    27.230138052976680
 Root    224 :    27.510107243914650
 Root    225 :    27.572123394081450
 Root    226 :    27.572123447728690
 Root    227 :    27.614579689656810
 Root    228 :    27.652458526892870
 Root    229 :    27.653209653958700
 Root    230 :    27.653210302238610
 Root    231 :    28.096311146168830
 Root    232 :    28.216317688094700
 Root    233 :    28.216318569825600
 Root    234 :    28.299367780979030
 Root    235 :    28.299368319173030
 Root    236 :    28.601265788766040
 Root    237 :    29.388955205906880
 Root    238 :    29.418853487819110
 Root    239 :    29.418865805336260
 Root    240 :    29.442210536622430
 Root    241 :    29.643861285016680
 Root    242 :    29.643863124825150
 Root    243 :    29.715730321183730
 Root    244 :    29.775576002366910
 Root    245 :    29.775579412706040
 Root    246 :    29.883046080581990
 Root    247 :    29.883057960897870
 Root    248 :    29.929124948595520
 Root    249 :    30.108287907281310
 Root    250 :    30.393285371860390
 Root    251 :    30.393285767925680
 Root    252 :    30.558365552594590
 Root    253 :    30.676185689274850
 Root    254 :    30.706022918926190
 Root    255 :    30.706023842674060
 Root    256 :    30.900766953568390
 Root    257 :    30.900778799732650
 Root    258 :    31.081561761108730
 Root    259 :    31.081561824018420
 Root    260 :    31.216977352174630
 Root    261 :    31.283586048637180
 Root    262 :    31.283589804481220
 Root    263 :    31.410475511433710
 Root    264 :    31.660572848685350
 Root    265 :    31.660573026384570
 Root    266 :    31.744349903456820
 Root    267 :    31.905333546598580
 Root    268 :    31.905341890499450
 Root    269 :    31.982713750438900
 Root    270 :    32.243600425548430
 Root    271 :    32.304997266406200
 Root    272 :    32.304997377943690
 Root    273 :    32.611890806295830
 Root    274 :    32.798017073815840
 Root    275 :    32.911456010868260
 Root    276 :    32.911456173527040
 Root    277 :    33.006737149434040
 Root    278 :    33.632549655265890
 Root    279 :    33.784623544821640
 Root    280 :    33.784623721316190
 Root    281 :    33.842844393171630
 Root    282 :    33.842844960840530
 Root    283 :    34.032423130104210
 Root    284 :    34.032424227826560
 Root    285 :    34.111422771588830
 Root    286 :    34.111422993443130
 Root    287 :    34.113834882006060
 Root    288 :    34.272769444172990
 Root    289 :    34.424031544337890
 Root    290 :    34.424037032216750
 Root    291 :    34.527447512707500
 Root    292 :    34.527448480445540
 Root    293 :    34.792008804236300
 Root    294 :    34.792009104786230
 Root    295 :    34.806119802234690
 Root    296 :    34.806120195616170
 Root    297 :    35.284635084506370
 Root    298 :    35.284638486387030
 Root    299 :    35.336934666258760
 Root    300 :    35.361491190511480
 Root    301 :    35.404793771084500
 Root    302 :    35.422152125629050
 Root    303 :    35.422156862928680
 Root    304 :    35.580809932704260
 Root    305 :    35.648681719445320
 Root    306 :    35.648682093596830
 Root    307 :    36.202694153990270
 Root    308 :    36.495467037309790
 Root    309 :    36.495471992133330
 Root    310 :    37.022081023429950
 Root    311 :    37.169832074656780
 Root    312 :    37.169833745591620
 Root    313 :    37.201719724997390
 Root    314 :    37.274205421601660
 Root    315 :    37.274207441532890
 Root    316 :    37.498339336690530
 Root    317 :    37.498342886754630
 Root    318 :    37.696517784208690
 Root    319 :    37.696520256815400
 Root    320 :    37.899867662364400
 Root    321 :    37.899868471231310
 Root    322 :    38.325279798116960
 Root    323 :    38.696868899034650
 Root    324 :    38.877562693417720
 Root    325 :    38.942684267872910
 Root    326 :    39.143715980828270
 Root    327 :    39.143718405135860
 Root    328 :    39.387113153352860
 Root    329 :    40.012800863074130
 Root    330 :    40.102888687437340
 Root    331 :    40.102895537385660
 Root    332 :    40.265503900336550
 Root    333 :    40.265505113995070
 Root    334 :    40.361240051105750
 Root    335 :    40.579883411437490
 Root    336 :    40.600490074888160
 Root    337 :    40.600495165760730
 Root    338 :    40.665651828664510
 Root    339 :    40.665652248495060
 Root    340 :    40.751671736791660
 Root    341 :    40.751683563081880
 Root    342 :    41.067777897544040
 Root    343 :    41.067778896917370
 Root    344 :    41.879313603915800
 Root    345 :    41.879321198418370
 Root    346 :    41.905200025489890
 Root    347 :    42.104866644041280
 Root    348 :    42.241566469915120
 Root    349 :    42.418748084574080
 Root    350 :    43.175361807517610
 Root    351 :    43.175364719960790
 Root    352 :    43.302873083709850
 Root    353 :    43.725989316139400
 Root    354 :    43.725993573630670
 Root    355 :    43.735645839276100
 Root    356 :    43.745502696308830
 Root    357 :    43.745503170709640
 Root    358 :    43.786077544237900
 Root    359 :    44.262167707809060
 Root    360 :    44.951894552584730
 Root    361 :    44.951896784434970
 Root    362 :    45.243975839515360
 Root    363 :    45.295192019491740
 Root    364 :    45.295193623799310
 Root    365 :    45.828523684707560
 Root    366 :    46.254008111481530
 Root    367 :    46.254008350478290
 Root    368 :    46.715326386917230
 Root    369 :    46.715327257674910
 Root    370 :    46.734207201466430
 Root    371 :    47.308598063233440
 Root    372 :    47.342667377577510
 Root    373 :    47.420213764901630
 Root    374 :    47.420214986328610
 Root    375 :    47.713500180523210
 Root    376 :    47.713500218753300
 Root    377 :    47.886575925850790
 Root    378 :    48.155876158068760
 Root    379 :    48.485743110517770
 Root    380 :    49.143474880199340
 Root    381 :    49.144813142217690
 Root    382 :    49.144832959418220
 Root    383 :    49.589613368367440
 Root    384 :    49.589613412878740
 Root    385 :    49.863135678571700
 Root    386 :    50.710477593042480
 Root    387 :    50.729176664383440
 Root    388 :    50.729176705120100
 Root    389 :    51.005136459691200
 Root    390 :    51.137738375737480
 Root    391 :    51.137738972721050
 Root    392 :    51.446709416090160
 Root    393 :    51.446710144308790
 Root    394 :    51.570165020437050
 Root    395 :    52.158694995161940
 Root    396 :    52.387571518096930
 Root    397 :    52.387580244036020
 Root    398 :    52.422812808540100
 Root    399 :    52.422814571265450
 Root    400 :    52.545531740196420
 Root    401 :    52.547897114975090
 Root    402 :    52.547905338199850
 Root    403 :    53.104390360391660
 Root    404 :    53.121181600230900
 Root    405 :    53.121181654074310
 Root    406 :    53.161065218943330
 Root    407 :    53.754751535223350
 Root    408 :    53.755038075354040
 Root    409 :    53.897689062505740
 Root    410 :    54.395273902009910
 Root    411 :    54.395274134445970
 Root    412 :    54.489374532895110
 Root    413 :    54.586305334119190
 Root    414 :    54.586305415159740
 Root    415 :    54.728294684498000
 Root    416 :    54.728295933880200
 Root    417 :    55.265363182489680
 Root    418 :    55.669571380571510
 Root    419 :    55.669572060683900
 Root    420 :    55.893296188335210
 Root    421 :    55.952268607476390
 Root    422 :    55.952268848731820
 Root    423 :    56.389917135239460
 Root    424 :    56.490340506390180
 Root    425 :    57.253835496478890
 Root    426 :    57.253835524986680
 Root    427 :    57.506086339797510
 Root    428 :    57.510484300074090
 Root    429 :    58.269106911233120
 Root    430 :    58.269107937613970
 Root    431 :    58.653282547011040
 Root    432 :    58.787537833599590
 Root    433 :    58.787537985520100
 Root    434 :    58.795672119707970
 Root    435 :    58.888788783903610
 Root    436 :    58.888789189341030
 Root    437 :    59.009460942345250
 Root    438 :    59.009461030525250
 Root    439 :    59.654678331423580
 Root    440 :    59.654678680919600
 Root    441 :    60.331728563701470
 Root    442 :    61.643697311496470
 Root    443 :    61.643697573304020
 Root    444 :    61.807063387425750
 Root    445 :    61.985951286057440
 Root    446 :    61.985952049099670
 Root    447 :    62.136145812297480
 Root    448 :    62.138662551043660
 Root    449 :    62.138662644993050
 Root    450 :    62.197204919803360
 Root    451 :    62.505348727565690
 Root    452 :    63.269255157278890
 Root    453 :    63.269255212965160
 Root    454 :    63.804843856180400
 Root    455 :    63.804843907249600
 Root    456 :    63.889231628184580
 Root    457 :    64.033959506961890
 Root    458 :    64.033959569359420
 Root    459 :    64.656338659351260
 Root    460 :    64.656338696346240
 Root    461 :    64.731672273279530
 Root    462 :    64.904031267934870
 Root    463 :    65.328413533375780
 Root    464 :    65.328413613120460
 Root    465 :    65.404815650831270
 Root    466 :    65.544614889783490
 Root    467 :    65.544614956774790
 Root    468 :    66.904796737424720
 Root    469 :    67.097438257112560
 Root    470 :    67.337360285961110
 Root    471 :    67.337360781667840
 Root    472 :    67.403677541102140
 Root    473 :    67.403677599990490
 Root    474 :    67.470807220051710
 Root    475 :    67.470807323955480
 Root    476 :    67.658527506387100
 Root    477 :    67.900742703255350
 Root    478 :    68.598032783091140
 Root    479 :    68.598033088485510
 Root    480 :    68.790715489845060
 Root    481 :    68.790715694853700
 Root    482 :    69.754490286653460
 Root    483 :    69.754490555715780
 Root    484 :    70.706711755076200
 Root    485 :    70.706711905352070
 Root    486 :    72.133294369428800
 Root    487 :    72.147900249587020
 Root    488 :    72.178810964118480
 Root    489 :    72.927898753406480
 Root    490 :    72.927898792217620
 Root    491 :    73.056967446160140
 Root    492 :    73.056967504385650
 Root    493 :    73.364907828863680
 Root    494 :    73.674848524261880
 Root    495 :    73.674848552621430
 Root    496 :    73.936249574804240
 Root    497 :    74.263208758085940
 Root    498 :    74.263209081316250
 Root    499 :    74.352326434294350
 Root    500 :    75.011588813841680
 Root    501 :    75.011588858755450
 Root    502 :    75.517019072520540
 Root    503 :    75.517019593024640
 Root    504 :    76.042343005695630
 Root    505 :    76.104221694045240
 Root    506 :    76.509844286788960
 Root    507 :    76.585552761091960
 Root    508 :    76.585553103693700
 Root    509 :    77.108330609182190
 Root    510 :    77.352915899763600
 Root    511 :    77.355191129312740
 Root    512 :    77.355191361083130
 Root    513 :    77.470486952634800
 Root    514 :    77.470487643567410
 Root    515 :    78.539604115579050
 Root    516 :    78.539604292271160
 Root    517 :    78.571602328891540
 Root    518 :    78.806001476031990
 Root    519 :    78.806001618282180
 Root    520 :    79.448605201005890
 Root    521 :    79.448605515062210
 Root    522 :    79.890592855834030
 Root    523 :    81.750707582351180
 Root    524 :    82.716761011620960
 Root    525 :    82.716761147640060
 Root    526 :    83.861816487795960
 Root    527 :    83.861816516810920
 Root    528 :    84.169415651819630
 Root    529 :    85.042583820360730
 Root    530 :    85.042584130809080
 Root    531 :    86.630261273136770
 Root    532 :    86.630261414055100
 Root    533 :    86.702171524814640
 Root    534 :    86.858140434906990
 Root    535 :    87.167954307625790
 Root    536 :    87.167954547693630
 Root    537 :    87.326953158115670
 Root    538 :    87.326953313197120
 Root    539 :    88.450694744760710
 Root    540 :    88.450694950177760
 Root    541 :    89.550402387431790
 Root    542 :    89.550406727461150
 Root    543 :    89.752592893879410
 Root    544 :    89.922107523403280
 Root    545 :    89.944999089088340
 Root    546 :    89.944999272001610
 Root    547 :    90.071583567495170
 Root    548 :    90.197317281629650
 Root    549 :    90.197318026058070
 Root    550 :    90.429611425483090
 Root    551 :    90.917141764716930
 Root    552 :    91.091449786997300
 Root    553 :    91.091449848982480
 Root    554 :    91.427233195771930
 Root    555 :    91.427233373690260
 Root    556 :    91.584079455115170
 Root    557 :    92.905397490413630
 Root    558 :    92.905397600997120
 Root    559 :    93.545882575436540
 Root    560 :    93.545882920180450
 Root    561 :    93.714687056295830
 Root    562 :    93.766475187092870
 Root    563 :    93.838388811428730
 Root    564 :    94.534903372061440
 Root    565 :    94.911533210460930
 Root    566 :    94.911533815161280
 Root    567 :    97.672306490343130
 Root    568 :    97.672307710316900
 Root    569 :   100.736715133964300
 Root    570 :   100.952450771858000
 Root    571 :   100.952450828069700
 Root    572 :   101.337054821701500
 Root    573 :   101.337055344502300
 Root    574 :   104.403277670437500
 Root    575 :   104.431665518467300
 Root    576 :   104.431668061144800
 Root    577 :   104.815933802464600
 Root    578 :   104.815935663888800
 Root    579 :   106.132789769126200
 Root    580 :   108.135403249286100
 Root    581 :   108.135404131702900
 Root    582 :   109.407271325014000
 Root    583 :   115.888898763317200
 Root    584 :   119.463199768261500
 Convergence achieved for final wavefunctions.
 ***********************************************************************
 Excited states from <AA,BB:AA,BB> singles matrix:
 ***********************************************************************
 
 1PDM for each excited state written to RWF  633
 Ground to excited state transition densities written to RWF  633
 Ground to excited state transition electric dipole moments (Au):
       state          X           Y           Z        Dip. S.      Osc.
         1         0.0299     -0.0000      0.0000      0.0009      0.0002
         2         0.0000      0.0299      0.0000      0.0009      0.0002
         3        -0.0000      0.0000      0.0000      0.0000      0.0000
         4         0.0000      0.0000     -0.2201      0.0485      0.0095
         5        -0.1138      0.0000      0.0000      0.0130      0.0026
         6        -0.0000      0.1138      0.0000      0.0130      0.0026
         7         0.2382      0.0000      0.0000      0.0567      0.0123
         8        -0.0000      0.2382      0.0000      0.0567      0.0123
         9         0.4300     -0.0000     -0.0000      0.1849      0.0434
        10        -0.0000      0.4300     -0.0000      0.1849      0.0434
        11        -0.0000     -0.0000     -1.0245      1.0497      0.2508
        12        -0.0000      0.0000      0.3525      0.1242      0.0304
        13         0.0000     -0.0000      0.0000      0.0000      0.0000
        14         0.1261     -0.0000      0.0000      0.0159      0.0040
        15         0.0000      0.1261     -0.0000      0.0159      0.0040
        16         0.0000      0.1458      0.0000      0.0212      0.0055
        17         0.1458     -0.0000      0.0000      0.0212      0.0055
        18         0.0000      0.0000      0.0000      0.0000      0.0000
        19        -0.0000      0.0000     -0.0339      0.0011      0.0003
        20         0.0000      0.0374     -0.0000      0.0014      0.0004
        21        -0.0374      0.0000      0.0000      0.0014      0.0004
        22         0.0116     -0.0000      0.0000      0.0001      0.0000
        23         0.0000      0.0116     -0.0000      0.0001      0.0000
        24        -0.6920     -0.0000      0.0000      0.4789      0.1323
        25         0.0000     -0.6920      0.0000      0.4789      0.1323
        26         0.0000     -0.0000     -0.0000      0.0000      0.0000
        27        -0.0000     -0.1831     -0.0000      0.0335      0.0093
        28        -0.1831      0.0000     -0.0000      0.0335      0.0093
        29         0.0000      0.0000     -0.2337      0.0546      0.0152
        30        -0.3470      0.0000      0.0000      0.1204      0.0340
        31         0.0000     -0.3470     -0.0000      0.1204      0.0340
        32         0.0000     -0.0000      1.7106      2.9262      0.8294
        33        -0.0000      0.0000     -0.5574      0.3107      0.0945
        34        -0.0000      0.0000      0.7151      0.5114      0.1579
        35         0.0000      0.1052      0.0000      0.0111      0.0035
        36         0.1052      0.0000      0.0000      0.0111      0.0035
        37         0.0000     -0.2477     -0.0000      0.0613      0.0196
        38        -0.2477      0.0000      0.0000      0.0613      0.0196
        39         0.1094     -0.0000     -0.0000      0.0120      0.0039
        40        -0.0000      0.1094     -0.0000      0.0120      0.0039
        41        -0.0000      0.0000      0.0000      0.0000      0.0000
        42        -0.0000     -0.2985      0.0000      0.0891      0.0295
        43         0.2985      0.0000      0.0000      0.0891      0.0295
        44        -0.0000     -0.0000      0.0000      0.0000      0.0000
        45         0.4277     -0.0000      0.0000      0.1829      0.0612
        46         0.0000      0.4277      0.0000      0.1829      0.0612
        47         0.0000     -0.1811      0.0000      0.0328      0.0111
        48        -0.1811      0.0000      0.0000      0.0328      0.0111
        49         0.0000     -0.0000      0.2557      0.0654      0.0222
        50         0.0000      0.0287     -0.0000      0.0008      0.0003
        51         0.0287      0.0000     -0.0000      0.0008      0.0003
        52        -0.0000     -0.0000     -0.0543      0.0029      0.0010
        53        -0.0000      0.0000     -0.5592      0.3127      0.1098
        54        -0.0000      0.0000      0.0000      0.0000      0.0000
        55         0.0000      0.0000      0.7666      0.5876      0.2068
        56         0.1573     -0.0000      0.0000      0.0247      0.0088
        57         0.0000      0.1573     -0.0000      0.0247      0.0088
        58         0.0000     -0.0000      0.0589      0.0035      0.0013
        59         0.4766      0.0000      0.0000      0.2271      0.0825
        60         0.0000      0.4766      0.0000      0.2271      0.0825
        61        -0.5118      0.0000      0.0000      0.2620      0.0961
        62         0.0000      0.5118      0.0000      0.2620      0.0961
        63         0.0000     -0.0000      0.1077      0.0116      0.0043
        64        -0.0000      0.0000      0.0000      0.0000      0.0000
        65        -0.0000     -0.0000      0.0049      0.0000      0.0000
        66        -0.1362     -0.0000     -0.0000      0.0185      0.0071
        67        -0.0000     -0.1362     -0.0000      0.0185      0.0071
        68         0.3700     -0.0000     -0.0000      0.1369      0.0525
        69         0.0000     -0.3700     -0.0000      0.1369      0.0525
        70        -0.4732      0.0000      0.0000      0.2239      0.0864
        71        -0.0000     -0.4732     -0.0000      0.2239      0.0864
        72         0.6410     -0.0000      0.0000      0.4109      0.1598
        73        -0.0000      0.6410      0.0000      0.4109      0.1598
        74        -0.0000     -0.0000      0.0000      0.0000      0.0000
        75         0.0000     -0.0001     -0.4740      0.2246      0.0891
        76        -0.0000     -0.6334      0.0000      0.4011      0.1595
        77        -0.6334     -0.0000     -0.0000      0.4011      0.1595
        78         0.4699     -0.0000      0.0000      0.2209      0.0883
        79         0.0000      0.4700     -0.0000      0.2209      0.0883
        80         0.0000      0.1398      0.0000      0.0196      0.0079
        81        -0.1398      0.0000     -0.0000      0.0196      0.0079
        82        -0.1409      0.0000      0.0000      0.0198      0.0080
        83         0.0000      0.1409     -0.0000      0.0198      0.0080
        84         0.0000     -0.0000      0.5465      0.2987      0.1205
        85        -0.0000     -0.1108     -0.0000      0.0123      0.0050
        86         0.1108     -0.0000     -0.0000      0.0123      0.0050
        87        -0.0000      0.0000      0.0000      0.0000      0.0000
        88         0.0000      0.0000     -0.5489      0.3013      0.1230
        89        -0.0000     -0.0000      0.5362      0.2875      0.1179
        90         0.0000     -0.0000      0.0000      0.0000      0.0000
        91        -0.0000      0.0000     -0.0000      0.0000      0.0000
        92        -0.0000     -0.4106     -0.0000      0.1686      0.0697
        93        -0.4106     -0.0000      0.0000      0.1686      0.0697
        94        -0.0000     -0.0000      0.1821      0.0332      0.0137
        95         0.0000     -0.2016     -0.0000      0.0407      0.0171
        96        -0.2016      0.0000     -0.0000      0.0407      0.0171
        97        -0.3735      0.0000     -0.0000      0.1395      0.0586
        98         0.0000      0.3735     -0.0000      0.1395      0.0586
        99         0.6843      0.0000      0.0000      0.4683      0.2022
       100        -0.0000      0.6843     -0.0000      0.4683      0.2022
       101         0.0000     -0.0000      0.0287      0.0008      0.0004
       102         0.1389      0.0000     -0.0000      0.0193      0.0084
       103         0.0000     -0.1390      0.0000      0.0193      0.0084
       104         0.0000      0.3356     -0.0000      0.1126      0.0500
       105         0.3356     -0.0000      0.0000      0.1126      0.0500
       106        -0.0000     -0.0000      0.4098      0.1680      0.0759
       107        -0.0000      0.0000     -0.0674      0.0045      0.0021
       108         0.0000      0.4095     -0.0000      0.1677      0.0766
       109         0.4095      0.0000     -0.0000      0.1677      0.0766
       110        -0.0001     -0.0000      0.0000      0.0000      0.0000
       111        -0.0000     -0.0001      0.0743      0.0055      0.0025
       112         0.0772      0.0000     -0.0000      0.0060      0.0027
       113        -0.0000      0.0772     -0.0000      0.0060      0.0027
       114         0.0000      0.0000      0.3992      0.1594      0.0736
       115        -0.0000     -0.0000      0.5113      0.2614      0.1225
       116         0.1487     -0.0000      0.0000      0.0221      0.0104
       117        -0.0000      0.1487     -0.0000      0.0221      0.0104
       118        -0.0000     -0.0000     -0.5147      0.2649      0.1248
       119         0.1237      0.0000      0.0000      0.0153      0.0073
       120         0.0000      0.1237      0.0000      0.0153      0.0073
       121        -0.0000      0.0000      0.0000      0.0000      0.0000
       122        -0.0727      0.0000      0.0000      0.0053      0.0025
       123         0.0000     -0.0727     -0.0002      0.0053      0.0025
       124         0.0000      0.0000      0.2598      0.0675      0.0322
       125        -0.0000     -0.0000      0.0000      0.0000      0.0000
       126         0.0384     -0.0000     -0.0000      0.0015      0.0007
       127         0.0000      0.0384      0.0000      0.0015      0.0007
       128        -0.0000      0.0000      0.4518      0.2041      0.0984
       129         0.4145      0.0000      0.0000      0.1718      0.0830
       130        -0.0000     -0.4145      0.0000      0.1718      0.0830
       131        -0.2847      0.0000     -0.0000      0.0811      0.0393
       132         0.0000      0.2848     -0.0000      0.0811      0.0393
       133        -0.1875      0.0000      0.0000      0.0352      0.0171
       134        -0.0000      0.1875      0.0000      0.0352      0.0171
       135        -0.0000     -0.2283      0.0000      0.0521      0.0255
       136         0.2283      0.0000      0.0000      0.0521      0.0255
       137         0.0000      0.0000      0.0000      0.0000      0.0000
       138         0.0000     -0.0000     -0.0200      0.0004      0.0002
       139        -0.0000      0.0000      0.0000      0.0000      0.0000
       140        -0.0000     -0.5817      0.0000      0.3384      0.1703
       141         0.5817     -0.0000      0.0000      0.3383      0.1703
       142         0.0000      0.1770     -0.0000      0.0313      0.0158
       143        -0.1771      0.0000      0.0000      0.0314      0.0158
       144        -0.0000     -0.0000     -0.3192      0.1019      0.0517
       145        -0.3984      0.0000      0.0000      0.1587      0.0808
       146        -0.0000      0.3984     -0.0000      0.1587      0.0808
       147        -0.0000     -0.0000     -0.1698      0.0288      0.0147
       148        -0.1115     -0.0000      0.0000      0.0124      0.0063
       149        -0.0000     -0.1115      0.0000      0.0124      0.0063
       150        -0.0000      0.0000      0.0000      0.0000      0.0000
       151        -0.0000      0.0000     -0.2457      0.0604      0.0316
       152        -0.0002     -0.0000     -0.0000      0.0000      0.0000
       153        -0.0000     -0.0002      0.0000      0.0000      0.0000
       154        -0.3672      0.0000      0.0000      0.1348      0.0710
       155        -0.0000      0.3672     -0.0000      0.1348      0.0710
       156        -0.1517     -0.0000     -0.0000      0.0230      0.0122
       157        -0.0000     -0.1517     -0.0000      0.0230      0.0122
       158        -0.0000     -0.0000      0.1603      0.0257      0.0138
       159        -0.0535      0.0000      0.0000      0.0029      0.0015
       160         0.0000     -0.0535      0.0000      0.0029      0.0015
       161         0.0000      0.0000     -0.0253      0.0006      0.0003
       162        -0.0000     -0.1127     -0.0000      0.0127      0.0069
       163        -0.1128      0.0000      0.0000      0.0127      0.0069
       164        -0.0000      0.0000      0.0334      0.0011      0.0006
       165        -0.0832      0.0000      0.0000      0.0069      0.0038
       166        -0.0000     -0.0832     -0.0000      0.0069      0.0038
       167         0.0082     -0.0000      0.0000      0.0001      0.0000
       168        -0.0000     -0.0082      0.0000      0.0001      0.0000
       169        -0.0000      0.0000      0.0000      0.0000      0.0000
       170        -0.0659     -0.0000      0.0000      0.0043      0.0024
       171        -0.0000     -0.0659      0.0000      0.0043      0.0024
       172         0.0000     -0.0000      0.0777      0.0060      0.0034
       173         0.0000      0.0000     -0.0000      0.0000      0.0000
       174         0.0000     -0.0000     -0.3354      0.1125      0.0634
       175         0.0000      0.0004      0.3525      0.1243      0.0705
       176         0.0000      0.2811     -0.0004      0.0790      0.0448
       177         0.2811     -0.0000      0.0000      0.0790      0.0448
       178         0.0000      0.3820     -0.0001      0.1459      0.0833
       179         0.3820     -0.0000      0.0000      0.1459      0.0833
       180        -0.0000     -0.0001     -0.0906      0.0082      0.0047
       181         0.0000     -0.0000      0.0000      0.0000      0.0000
       182         0.0000      0.0000     -0.3027      0.0916      0.0531
       183         0.0000      0.0000      0.0000      0.0000      0.0000
       184        -0.2404     -0.0000     -0.0000      0.0578      0.0338
       185        -0.0000      0.2404      0.0000      0.0578      0.0338
       186        -0.0000      0.0000      0.1696      0.0288      0.0169
       187         0.3081      0.0000      0.0000      0.0949      0.0559
[...]
     10   0.000000D+00  0.000000D+00  0.000000D+00  0.000000D+00  0.000000D+00
     11  -0.297084D+00  0.000000D+00 -0.253309D+00  0.000000D+00 -0.153160D+00
     12   0.296962D+00  0.000000D+00  0.253310D+00  0.000000D+00  0.153167D+00
     13  -0.146734D-03  0.000000D+00  0.383198D-05  0.000000D+00  0.113852D-04
     14   0.000000D+00 -0.297024D+00  0.000000D+00 -0.253308D+00  0.000000D+00
     15   0.000000D+00 -0.117741D+00  0.000000D+00  0.831348D-01  0.000000D+00
     16  -0.117742D+00  0.000000D+00  0.831336D-01  0.000000D+00  0.130477D+00
               516           517           518           519           520 
      1  -0.129726D+03 -0.129725D+03 -0.129716D+03 -0.129716D+03 -0.129693D+03
      2   0.124232D+00  0.000000D+00  0.000000D+00 -0.203022D+00  0.104314D+00
      3   0.000000D+00  0.000000D+00  0.203022D+00  0.000000D+00  0.000000D+00
      4   0.000000D+00  0.815162D-01  0.000000D+00  0.000000D+00  0.000000D+00
      5  -0.318641D+00  0.000000D+00  0.000000D+00  0.507217D+00 -0.255939D+00
      6   0.000000D+00 -0.219431D-05 -0.507217D+00  0.000000D+00  0.000000D+00
      7   0.000000D+00 -0.200241D+00  0.000000D+00  0.000000D+00  0.000000D+00
      8   0.000000D+00  0.103131D-04  0.121661D+01  0.000000D+00  0.000000D+00
      9  -0.430083D-02  0.000000D+00  0.000000D+00  0.121661D+01 -0.622041D+00
     10   0.000000D+00  0.000000D+00  0.000000D+00  0.000000D+00  0.000000D+00
     11   0.000000D+00  0.128335D-01  0.167880D-01  0.000000D+00  0.000000D+00
     12   0.000000D+00  0.128554D-01 -0.167726D-01  0.000000D+00  0.000000D+00
     13   0.000000D+00  0.615540D+00 -0.103859D-04  0.000000D+00  0.000000D+00
     14   0.153163D+00  0.000000D+00  0.000000D+00 -0.167803D-01 -0.975567D-01
     15  -0.130479D+00  0.000000D+00  0.000000D+00  0.110867D+01 -0.655427D+00
     16   0.000000D+00 -0.822969D-05 -0.110867D+01  0.000000D+00  0.000000D+00
               521           522           523           524           525 
      1  -0.129693D+03 -0.129676D+03 -0.129608D+03 -0.129573D+03 -0.129573D+03
      2   0.000000D+00  0.000000D+00  0.000000D+00 -0.733281D-01  0.000000D+00
      3   0.104314D+00  0.000000D+00  0.000000D+00  0.000000D+00 -0.733280D-01
      4   0.000000D+00  0.359834D-01 -0.480283D-01  0.000000D+00  0.000000D+00
      5   0.000000D+00  0.000000D+00  0.000000D+00  0.137368D+00  0.000000D+00
      6  -0.255940D+00  0.000000D+00  0.000000D+00  0.000000D+00  0.137367D+00
      7   0.000000D+00 -0.100622D+00  0.144312D+00  0.000000D+00  0.000000D+00
      8   0.622043D+00  0.211623D-05  0.321614D-05  0.000000D+00  0.908411D-01
      9   0.000000D+00  0.000000D+00  0.000000D+00 -0.908413D-01  0.000000D+00
     10   0.000000D+00  0.000000D+00  0.000000D+00  0.000000D+00  0.000000D+00
     11  -0.975532D-01  0.239091D-01 -0.940729D-01  0.000000D+00 -0.275557D-01
     12   0.975602D-01  0.239109D-01 -0.940706D-01  0.000000D+00  0.275568D-01
     13  -0.411933D-05 -0.484183D+00  0.112402D+01  0.000000D+00  0.000000D+00
     14   0.000000D+00  0.000000D+00  0.000000D+00 -0.275565D-01  0.000000D+00
     15   0.000000D+00  0.000000D+00  0.000000D+00 -0.189393D+00  0.000000D+00
     16  -0.655430D+00 -0.343058D-05 -0.277359D-05  0.000000D+00 -0.189393D+00
               526           527           528           529           530 
      1  -0.129530D+03 -0.129530D+03 -0.129519D+03 -0.129487D+03 -0.129487D+03
      2  -0.440789D-02  0.000000D+00  0.000000D+00  0.000000D+00  0.207910D-01
      3   0.000000D+00 -0.440781D-02  0.000000D+00 -0.207910D-01  0.000000D+00
      4   0.000000D+00  0.000000D+00  0.589604D-01  0.000000D+00  0.000000D+00
      5   0.749580D-02  0.000000D+00  0.000000D+00  0.000000D+00 -0.419049D-01
      6   0.000000D+00  0.749551D-02  0.000000D+00  0.419047D-01  0.000000D+00
      7   0.000000D+00  0.000000D+00 -0.194418D+00  0.000000D+00  0.000000D+00
      8   0.000000D+00  0.117216D+00  0.000000D+00  0.324875D+00  0.000000D+00
      9  -0.117215D+00  0.000000D+00  0.000000D+00  0.000000D+00  0.324875D+00
     10   0.000000D+00  0.000000D+00  0.000000D+00  0.000000D+00  0.000000D+00
     11   0.000000D+00 -0.162674D+00 -0.657510D-01  0.212900D+00  0.000000D+00
     12   0.000000D+00  0.162674D+00 -0.657465D-01 -0.212898D+00  0.000000D+00
     13   0.000000D+00 -0.155326D-05  0.580053D+00 -0.151385D-05  0.000000D+00
     14  -0.162674D+00  0.000000D+00  0.000000D+00  0.000000D+00 -0.212899D+00
     15  -0.189714D+00  0.000000D+00  0.000000D+00  0.000000D+00  0.465431D+00
     16   0.000000D+00 -0.189715D+00 -0.116570D-05 -0.465432D+00  0.000000D+00
               531           532           533           534           535 
      1  -0.129429D+03 -0.129429D+03 -0.129426D+03 -0.129420D+03 -0.129409D+03
      2   0.000000D+00  0.542736D-01  0.000000D+00  0.000000D+00  0.000000D+00
      3   0.542735D-01  0.000000D+00  0.000000D+00  0.000000D+00  0.423395D-01
      4   0.000000D+00  0.000000D+00  0.000000D+00 -0.107667D+00  0.000000D+00
      5   0.000000D+00 -0.147990D+00  0.000000D+00  0.000000D+00  0.000000D+00
      6  -0.147990D+00  0.000000D+00  0.000000D+00 -0.191946D-05 -0.131570D+00
      7   0.000000D+00  0.000000D+00  0.000000D+00  0.320793D+00  0.000000D+00
      8  -0.279768D+00  0.000000D+00  0.000000D+00  0.303077D-05  0.671812D+00
      9   0.000000D+00  0.279768D+00  0.000000D+00  0.000000D+00  0.000000D+00
     10   0.000000D+00  0.000000D+00  0.133795D-02  0.000000D+00  0.000000D+00
     11   0.103295D+00  0.000000D+00  0.000000D+00 -0.775002D-02 -0.348942D-02
     12  -0.103296D+00  0.000000D+00  0.000000D+00 -0.774949D-02  0.348856D-02
     13  -0.100390D-05  0.000000D+00  0.000000D+00  0.661677D+00  0.000000D+00
     14   0.000000D+00  0.103295D+00  0.000000D+00  0.000000D+00  0.000000D+00
     15   0.000000D+00  0.255322D+00  0.000000D+00  0.000000D+00  0.000000D+00
     16   0.255322D+00  0.000000D+00  0.000000D+00 -0.374037D-05 -0.963600D+00
               536           537           538           539           540 
      1  -0.129409D+03 -0.129403D+03 -0.129403D+03 -0.129362D+03 -0.129362D+03
      2  -0.423396D-01  0.000000D+00 -0.377243D-01  0.000000D+00  0.805430D-01
      3   0.000000D+00 -0.377242D-01  0.000000D+00 -0.805428D-01  0.000000D+00
      4   0.000000D+00  0.000000D+00  0.000000D+00  0.000000D+00  0.000000D+00
      5   0.131570D+00  0.000000D+00  0.996673D-01  0.000000D+00 -0.225305D+00
      6   0.000000D+00  0.996672D-01  0.000000D+00  0.225304D+00  0.000000D+00
      7   0.000000D+00  0.000000D+00  0.000000D+00  0.000000D+00  0.000000D+00
      8   0.000000D+00 -0.674860D-02  0.000000D+00 -0.401572D+00  0.000000D+00
      9   0.671811D+00  0.000000D+00  0.674913D-02  0.000000D+00 -0.401573D+00
     10   0.000000D+00  0.000000D+00  0.000000D+00  0.000000D+00  0.000000D+00
     11   0.000000D+00  0.415318D+00  0.000000D+00 -0.921963D-01  0.000000D+00
     12   0.000000D+00 -0.415320D+00  0.000000D+00  0.921906D-01  0.000000D+00
     13   0.000000D+00  0.259318D-05  0.000000D+00  0.271748D-05  0.000000D+00
     14   0.348890D-02  0.000000D+00  0.415319D+00  0.000000D+00  0.921934D-01
     15   0.963601D+00  0.000000D+00 -0.570801D-01  0.000000D+00 -0.403251D+00
     16   0.000000D+00 -0.570807D-01  0.000000D+00  0.403250D+00  0.000000D+00
               541           542           543           544           545 
      1  -0.129321D+03 -0.129321D+03 -0.129314D+03 -0.129308D+03 -0.129307D+03
      2   0.000000D+00 -0.120876D+00  0.000000D+00  0.000000D+00  0.000000D+00
      3  -0.120876D+00  0.000000D+00  0.000000D+00  0.254813D-05 -0.690476D-01
      4   0.000000D+00  0.000000D+00  0.000000D+00 -0.393142D-01  0.000000D+00
      5   0.000000D+00  0.311971D+00  0.000000D+00  0.000000D+00  0.000000D+00
      6   0.311972D+00  0.000000D+00  0.000000D+00 -0.804079D-05  0.196215D+00
      7   0.000000D+00  0.000000D+00  0.000000D+00  0.630584D-01  0.000000D+00
      8  -0.338626D+00  0.000000D+00  0.000000D+00 -0.544710D-05  0.452072D+00
      9   0.000000D+00  0.338625D+00  0.000000D+00  0.000000D+00  0.000000D+00
     10   0.000000D+00  0.000000D+00  0.312338D-02  0.000000D+00  0.000000D+00
     11  -0.241517D-01  0.000000D+00  0.000000D+00  0.178423D-01 -0.420088D-01
     12   0.241457D-01  0.000000D+00  0.000000D+00  0.178412D-01  0.420072D-01
     13   0.499026D-05  0.000000D+00  0.000000D+00 -0.131041D+01 -0.413143D-04
     14   0.000000D+00 -0.241487D-01  0.000000D+00  0.000000D+00  0.000000D+00
     15   0.000000D+00  0.276447D+00  0.000000D+00  0.000000D+00  0.000000D+00
     16   0.276449D+00  0.000000D+00  0.000000D+00  0.225045D-05 -0.362939D+00
               546           547           548           549           550 
      1  -0.129307D+03 -0.129302D+03 -0.129298D+03 -0.129298D+03 -0.129289D+03
      2  -0.690475D-01  0.000000D+00  0.000000D+00  0.101403D+00  0.000000D+00
      3   0.000000D+00  0.000000D+00  0.101402D+00  0.000000D+00  0.000000D+00
      4   0.000000D+00  0.774670D-01  0.000000D+00  0.000000D+00  0.000000D+00
      5   0.196214D+00  0.000000D+00  0.000000D+00 -0.277546D+00  0.000000D+00
      6   0.000000D+00  0.309058D-05 -0.277546D+00  0.000000D+00  0.000000D+00
      7   0.000000D+00 -0.232286D+00  0.000000D+00  0.000000D+00  0.000000D+00
      8   0.000000D+00 -0.171587D-05 -0.664137D+00  0.000000D+00  0.000000D+00
      9  -0.452070D+00  0.000000D+00  0.000000D+00  0.664139D+00  0.000000D+00
     10   0.000000D+00  0.000000D+00  0.000000D+00  0.000000D+00 -0.783940D-02
     11   0.000000D+00  0.268975D-01  0.105546D+00  0.000000D+00  0.000000D+00
     12   0.000000D+00  0.268980D-01 -0.105546D+00  0.000000D+00  0.000000D+00
     13   0.000000D+00 -0.288735D-01  0.105224D-05  0.000000D+00  0.000000D+00
     14  -0.420078D-01  0.000000D+00  0.000000D+00  0.105546D+00  0.000000D+00
     15  -0.362937D+00  0.000000D+00  0.000000D+00  0.700915D+00  0.000000D+00
     16   0.000000D+00  0.418252D-05  0.700915D+00  0.000000D+00  0.000000D+00
               551           552           553           554           555 
      1  -0.129271D+03 -0.129265D+03 -0.129265D+03 -0.129252D+03 -0.129252D+03
      2   0.000000D+00  0.389926D-01  0.000000D+00  0.000000D+00 -0.192457D+00
      3   0.000000D+00  0.000000D+00 -0.389927D-01 -0.192456D+00  0.000000D+00
      4   0.944611D-02  0.000000D+00  0.000000D+00  0.000000D+00  0.000000D+00
      5   0.000000D+00 -0.104123D+00  0.000000D+00  0.000000D+00  0.553632D+00
      6   0.134444D-05  0.000000D+00  0.104123D+00  0.553631D+00  0.000000D+00
      7  -0.136306D-01  0.000000D+00  0.000000D+00  0.000000D+00  0.000000D+00
      8   0.516022D-05  0.000000D+00  0.107125D+00 -0.119737D+01  0.000000D+00
      9   0.000000D+00  0.107126D+00  0.000000D+00  0.000000D+00  0.119737D+01
     10   0.000000D+00  0.000000D+00  0.000000D+00  0.000000D+00  0.000000D+00
     11   0.166946D+00  0.000000D+00  0.684738D-01  0.194002D-01  0.000000D+00
     12   0.166947D+00  0.000000D+00 -0.684734D-01 -0.193982D-01  0.000000D+00
     13  -0.317571D+00  0.000000D+00  0.178467D-05  0.341948D-05  0.000000D+00
     14   0.000000D+00 -0.684734D-01  0.000000D+00  0.000000D+00  0.193993D-01
     15   0.000000D+00  0.334414D+00  0.000000D+00  0.000000D+00  0.173876D+01
     16  -0.639860D-05  0.000000D+00 -0.334413D+00  0.173875D+01  0.000000D+00
               556           557           558           559           560 
      1  -0.129247D+03 -0.129198D+03 -0.129198D+03 -0.129175D+03 -0.129175D+03
      2   0.000000D+00  0.000000D+00 -0.150943D-02  0.000000D+00 -0.358760D-01
      3   0.000000D+00 -0.150961D-02  0.000000D+00 -0.358760D-01  0.000000D+00
      4  -0.155304D+00  0.000000D+00  0.000000D+00  0.000000D+00  0.000000D+00
      5   0.000000D+00  0.000000D+00  0.899857D-02  0.000000D+00  0.104396D+00
      6   0.000000D+00  0.899920D-02  0.000000D+00  0.104396D+00  0.000000D+00
      7   0.515287D+00  0.000000D+00  0.000000D+00  0.000000D+00  0.000000D+00
      8   0.000000D+00  0.335167D+00  0.000000D+00  0.277414D+00  0.000000D+00
      9   0.000000D+00  0.000000D+00 -0.335167D+00  0.000000D+00 -0.277414D+00
     10   0.000000D+00  0.000000D+00  0.000000D+00  0.000000D+00  0.000000D+00
     11  -0.317303D-01  0.721411D-01  0.000000D+00 -0.487066D-02  0.000000D+00
     12  -0.317294D-01 -0.721405D-01  0.000000D+00  0.487059D-02  0.000000D+00
     13   0.392419D+01  0.104220D-05  0.000000D+00  0.122774D-05  0.000000D+00
     14   0.000000D+00  0.000000D+00  0.721408D-01  0.000000D+00 -0.487060D-02
     15   0.000000D+00  0.000000D+00 -0.478898D+00  0.000000D+00 -0.836995D-01
     16   0.000000D+00 -0.478896D+00  0.000000D+00 -0.837003D-01  0.000000D+00
               561           562           563           564           565 
      1  -0.129168D+03 -0.129166D+03 -0.129164D+03 -0.129138D+03 -0.129124D+03
      2   0.000000D+00  0.000000D+00  0.000000D+00  0.000000D+00  0.000000D+00
      3   0.000000D+00  0.000000D+00  0.000000D+00  0.000000D+00  0.290035D-01
      4  -0.961672D-01  0.000000D+00  0.111509D-01  0.113637D+00  0.000000D+00
      5   0.000000D+00  0.000000D+00  0.000000D+00  0.000000D+00  0.000000D+00
      6   0.125896D-05  0.000000D+00  0.000000D+00  0.000000D+00 -0.725733D-01
      7   0.348724D+00  0.000000D+00 -0.584190D-01 -0.373852D+00  0.000000D+00
      8  -0.119179D-05  0.000000D+00  0.337052D-05 -0.266828D-05  0.521667D+00
      9   0.000000D+00  0.000000D+00  0.000000D+00  0.000000D+00  0.000000D+00
     10   0.000000D+00 -0.166222D-01  0.000000D+00  0.000000D+00  0.000000D+00
     11  -0.296470D-01  0.000000D+00 -0.629226D-02 -0.790769D-01  0.177425D-01
     12  -0.296465D-01  0.000000D+00 -0.629210D-02 -0.790765D-01 -0.177382D-01
     13   0.661887D+00  0.000000D+00  0.700651D+00  0.134501D+01 -0.163130D-05
     14   0.000000D+00  0.000000D+00  0.000000D+00  0.000000D+00  0.000000D+00
     15   0.000000D+00  0.000000D+00  0.000000D+00  0.000000D+00  0.000000D+00
     16   0.110619D-05  0.000000D+00 -0.318403D-05  0.525801D-05 -0.611959D+00
               566           567           568           569           570 
      1  -0.129124D+03 -0.129023D+03 -0.129023D+03 -0.128910D+03 -0.128902D+03
      2   0.290033D-01  0.000000D+00  0.117337D+00  0.000000D+00  0.000000D+00
      3   0.000000D+00 -0.117337D+00  0.000000D+00  0.000000D+00 -0.360125D-01
      4   0.000000D+00  0.000000D+00  0.000000D+00 -0.635171D-01  0.000000D+00
      5  -0.725726D-01  0.000000D+00 -0.323589D+00  0.000000D+00  0.000000D+00
      6   0.000000D+00  0.323589D+00  0.000000D+00  0.000000D+00  0.112197D+00
      7   0.000000D+00  0.000000D+00  0.000000D+00  0.161542D+00  0.000000D+00
      8   0.000000D+00  0.646539D+00  0.000000D+00 -0.204608D-05 -0.199949D-01
      9  -0.521667D+00  0.000000D+00  0.646539D+00  0.000000D+00  0.000000D+00
     10   0.000000D+00  0.000000D+00  0.000000D+00  0.000000D+00  0.000000D+00
     11   0.000000D+00  0.148752D+00  0.000000D+00  0.247174D-01  0.705205D-02
     12   0.000000D+00 -0.148758D+00  0.000000D+00  0.247165D-01 -0.705273D-02
     13   0.000000D+00  0.319589D-05  0.000000D+00 -0.366065D+00  0.000000D+00
     14   0.177404D-01  0.000000D+00 -0.148755D+00  0.000000D+00  0.000000D+00
     15  -0.611958D+00  0.000000D+00  0.566110D+00  0.000000D+00  0.000000D+00
     16   0.000000D+00 -0.566109D+00  0.000000D+00  0.316444D-05  0.108412D+00
               571           572           573           574           575 
      1  -0.128902D+03 -0.128888D+03 -0.128888D+03 -0.128776D+03 -0.128775D+03
      2   0.360125D-01  0.000000D+00 -0.240016D-02  0.000000D+00  0.000000D+00
      3   0.000000D+00 -0.239976D-02  0.000000D+00  0.000000D+00 -0.639692D-02
      4   0.000000D+00  0.000000D+00  0.000000D+00  0.312811D-01  0.000000D+00
      5  -0.112197D+00  0.000000D+00  0.201779D-01  0.000000D+00  0.000000D+00
      6   0.000000D+00  0.201764D-01  0.000000D+00 -0.156202D-05  0.174072D-01
      7   0.000000D+00  0.000000D+00  0.000000D+00 -0.152237D+00  0.000000D+00
      8   0.000000D+00  0.258195D+00  0.000000D+00  0.130490D-05 -0.172181D+00
      9  -0.199946D-01  0.000000D+00 -0.258194D+00  0.000000D+00  0.000000D+00
     10   0.000000D+00  0.000000D+00  0.000000D+00  0.000000D+00  0.000000D+00
     11   0.000000D+00  0.953802D-01  0.000000D+00  0.134317D-01 -0.346109D-02
     12   0.000000D+00 -0.953784D-01  0.000000D+00  0.134317D-01  0.346080D-02
     13   0.000000D+00 -0.238474D-05  0.000000D+00 -0.188765D+01  0.156534D-05
     14  -0.705232D-02  0.000000D+00  0.953795D-01  0.000000D+00  0.000000D+00
     15  -0.108412D+00  0.000000D+00 -0.209197D+00  0.000000D+00  0.000000D+00
     16   0.000000D+00 -0.209200D+00  0.000000D+00 -0.260066D-05  0.234857D+00
               576           577           578           579           580 
      1  -0.128775D+03 -0.128760D+03 -0.128760D+03 -0.128712D+03 -0.128638D+03
      2  -0.639616D-02  0.000000D+00 -0.358198D-01  0.000000D+00  0.000000D+00
      3   0.000000D+00 -0.358199D-01  0.000000D+00  0.000000D+00  0.141813D-01
      4   0.000000D+00  0.000000D+00  0.000000D+00 -0.169736D+00  0.000000D+00
      5   0.174044D-01  0.000000D+00  0.114935D+00  0.000000D+00  0.000000D+00
      6   0.000000D+00  0.114936D+00  0.000000D+00 -0.143470D-05 -0.418002D-01
      7   0.000000D+00  0.000000D+00  0.000000D+00  0.570147D+00  0.000000D+00
      8   0.000000D+00 -0.645680D+00  0.000000D+00 -0.309465D-05 -0.590551D-01
      9   0.172177D+00  0.000000D+00  0.645681D+00  0.000000D+00  0.000000D+00
     10   0.000000D+00  0.000000D+00  0.000000D+00  0.000000D+00  0.000000D+00
     11   0.000000D+00 -0.270564D-01  0.000000D+00 -0.144295D+00 -0.581421D-01
     12   0.000000D+00  0.270583D-01  0.000000D+00 -0.144295D+00  0.581420D-01
     13   0.000000D+00 -0.111685D-05  0.000000D+00  0.359005D+01  0.000000D+00
     14  -0.346101D-02  0.000000D+00 -0.270574D-01  0.000000D+00  0.000000D+00
     15   0.234847D+00  0.000000D+00  0.911811D+00  0.000000D+00  0.000000D+00
     16   0.000000D+00  0.911811D+00  0.000000D+00  0.240892D-05  0.869635D-01
               581           582           583           584 
      1  -0.128638D+03 -0.128592D+03 -0.128354D+03 -0.128222D+03
      2   0.141571D-01  0.000000D+00  0.000000D+00  0.000000D+00
      3   0.000000D+00  0.000000D+00  0.000000D+00  0.000000D+00
      4   0.000000D+00 -0.625518D-01  0.285128D-01 -0.660896D-01
      5  -0.417028D-01  0.000000D+00  0.000000D+00  0.000000D+00
      6   0.000000D+00  0.000000D+00  0.000000D+00  0.000000D+00
      7   0.000000D+00  0.206051D+00 -0.611908D-01  0.263492D+00
      8   0.000000D+00  0.168775D-05  0.000000D+00  0.496646D-05
      9   0.590773D-01  0.000000D+00  0.000000D+00  0.000000D+00
     10   0.000000D+00  0.000000D+00  0.000000D+00  0.000000D+00
     11   0.000000D+00  0.165911D+00  0.367646D-01  0.449201D-02
     12   0.000000D+00  0.165912D+00  0.367655D-01  0.449286D-02
     13   0.000000D+00 -0.102230D+01  0.435657D+00  0.897463D+00
     14  -0.581375D-01  0.000000D+00  0.000000D+00  0.000000D+00
     15   0.871523D-01  0.000000D+00  0.000000D+00  0.000000D+00
     16   0.000000D+00 -0.293529D-05 -0.119750D-05 -0.528504D-05
 Unable to Open any file for archive entry.
 1\1\GINC-HEL12\SP\RBLYP TD-FC\Gen\C2H3N1\SABYASACHI\21-Mar-2022\0\\#P 
 TD(Nstates=10000) blyp/Gen SCF(maxcycles=100) Int(Grid=ultrafine)\\xGD
 B7_00001_tier4.com\\0,1\C,0,0.,0.,-1.173653\C,0,0.,0.,0.280989\N,0,0.,
 0.,1.427442\H,0,0.,1.024088,-1.545371\H,0,-0.886886,-0.512044,-1.54537
 1\H,0,0.886886,-0.512044,-1.545371\\Version=EM64L-G16RevC.01\State=1-A
 1\HF=-132.6123503\RMSD=7.078e-09\PG=C03V [C3(C1C1N1),3SGV(H1)]\\@
 The archive entry for this job was punched.


 JUST WHEN YOU THINK YOU'VE GOT THE WORLD ON A STRING,
 YOU FIND OUT IT'S YOUR LEASH.
 Job cpu time:       0 days  0 hours  3 minutes  9.8 seconds.
 Elapsed time:       0 days  0 hours  0 minutes 24.0 seconds.
 File lengths (MBytes):  RWF=    173 Int=      0 D2E=      0 Chk=    101 Scr=      1
 Normal termination of Gaussian 16 at Mon Mar 21 19:56:11 2022.
