 Entering Gaussian System, Link 0=g16
 Input=000028.com
 Output=000028.log
 Initial command:
 /home/sabyasachi/g16/l1.exe "/scratch/sabyasachi/PBS_7975931.helios/Gau-104253.inp" -scrdir="/scratch/sabyasachi/PBS_7975931.helios/"
 Entering Link 1 = /home/sabyasachi/g16/l1.exe PID=    104254.
  
 Copyright (c) 1988-2019, Gaussian, Inc.  All Rights Reserved.
  
 This is part of the Gaussian(R) 16 program.  It is based on
 the Gaussian(R) 09 system (copyright 2009, Gaussian, Inc.),
 the Gaussian(R) 03 system (copyright 2003, Gaussian, Inc.),
 the Gaussian(R) 98 system (copyright 1998, Gaussian, Inc.),
 the Gaussian(R) 94 system (copyright 1995, Gaussian, Inc.),
 the Gaussian 92(TM) system (copyright 1992, Gaussian, Inc.),
 the Gaussian 90(TM) system (copyright 1990, Gaussian, Inc.),
 the Gaussian 88(TM) system (copyright 1988, Gaussian, Inc.),
 the Gaussian 86(TM) system (copyright 1986, Carnegie Mellon
 University), and the Gaussian 82(TM) system (copyright 1983,
 Carnegie Mellon University). Gaussian is a federally registered
 trademark of Gaussian, Inc.
  
 This software contains proprietary and confidential information,
 including trade secrets, belonging to Gaussian, Inc.
  
 This software is provided under written license and may be
 used, copied, transmitted, or stored only in accord with that
 written license.
  
 The following legend is applicable only to US Government
 contracts under FAR:
  
                    RESTRICTED RIGHTS LEGEND
  
 Use, reproduction and disclosure by the US Government is
 subject to restrictions as set forth in subparagraphs (a)
 and (c) of the Commercial Computer Software - Restricted
 Rights clause in FAR 52.227-19.
  
 Gaussian, Inc.
 340 Quinnipiac St., Bldg. 40, Wallingford CT 06492
  
  
 ---------------------------------------------------------------
 Warning -- This program may not be used in any manner that
 competes with the business of Gaussian, Inc. or will provide
 assistance to any competitor of Gaussian, Inc.  The licensee
 of this program is prohibited from giving any competitor of
 Gaussian, Inc. access to this program.  By using this program,
 the user acknowledges that Gaussian, Inc. is engaged in the
 business of creating and licensing software in the field of
 computational chemistry and represents and warrants to the
 licensee that it is not a competitor of Gaussian, Inc. and that
 it will not use this program in any manner prohibited above.
 ---------------------------------------------------------------
  

 Cite this work as:
 Gaussian 16, Revision C.01,
 M. J. Frisch, G. W. Trucks, H. B. Schlegel, G. E. Scuseria, 
 M. A. Robb, J. R. Cheeseman, G. Scalmani, V. Barone, 
 G. A. Petersson, H. Nakatsuji, X. Li, M. Caricato, A. V. Marenich, 
 J. Bloino, B. G. Janesko, R. Gomperts, B. Mennucci, H. P. Hratchian, 
 J. V. Ortiz, A. F. Izmaylov, J. L. Sonnenberg, D. Williams-Young, 
 F. Ding, F. Lipparini, F. Egidi, J. Goings, B. Peng, A. Petrone, 
 T. Henderson, D. Ranasinghe, V. G. Zakrzewski, J. Gao, N. Rega, 
 G. Zheng, W. Liang, M. Hada, M. Ehara, K. Toyota, R. Fukuda, 
 J. Hasegawa, M. Ishida, T. Nakajima, Y. Honda, O. Kitao, H. Nakai, 
 T. Vreven, K. Throssell, J. A. Montgomery, Jr., J. E. Peralta, 
 F. Ogliaro, M. J. Bearpark, J. J. Heyd, E. N. Brothers, K. N. Kudin, 
 V. N. Staroverov, T. A. Keith, R. Kobayashi, J. Normand, 
 K. Raghavachari, A. P. Rendell, J. C. Burant, S. S. Iyengar, 
 J. Tomasi, M. Cossi, J. M. Millam, M. Klene, C. Adamo, R. Cammi, 
 J. W. Ochterski, R. L. Martin, K. Morokuma, O. Farkas, 
 J. B. Foresman, and D. J. Fox, Gaussian, Inc., Wallingford CT, 2019.
 
 ******************************************
 Gaussian 16:  EM64L-G16RevC.01  3-Jul-2019
                21-Mar-2022 
 ******************************************
 %mem=64gb
 %nproc=8
 Will use up to    8 processors via shared memory.
 --------------------------------------------------------------------
 #P TD(Nstates=10000) blyp/Gen SCF(maxcycles=100) Int(Grid=ultrafine)
 --------------------------------------------------------------------
 1/38=1,172=1/1;
 2/12=2,17=6,18=5,40=1/2;
 3/5=7,11=9,25=1,30=1,74=402,75=-5/1,2,3,8;
 4//1;
 5/5=2,7=100,38=5/2;
 8/6=1,10=1,108=10000/1;
 9/41=10000,42=1,70=2/14;
 6/7=2,8=2,9=2,10=2/1;
 99/5=1,9=1/99;
 Leave Link    1 at Mon Mar 21 04:00:41 2022, MaxMem=  8589934592 cpu:               0.4 elap:               0.1
 (Enter /home/sabyasachi/g16/l101.exe)
 ---------------------
 xGDB7_00001_tier4.com
 ---------------------
 Symbolic Z-matrix:
 Charge =  0 Multiplicity = 1
 7                     1.10644   0.14251  -0.09098 
 7                    -0.08075  -0.51252   0.00607 
 6                    -1.1487    0.16746   0.00817 
 1                     1.85475  -0.40992   0.29153 
 1                     1.10968   1.10045   0.24271 
 1                    -2.08985  -0.3662    0.03525 
 1                    -1.16221   1.26097  -0.02408 
 
 ITRead=  0  0  0  0  0  0  0
 MicOpt= -1 -1 -1 -1 -1 -1 -1
 NAtoms=      7 NQM=        7 NQMF=       0 NMMI=      0 NMMIF=      0
                NMic=       0 NMicF=      0.
                    Isotopes and Nuclear Properties:
 (Nuclear quadrupole moments (NQMom) in fm**2, nuclear magnetic moments (NMagM)
  in nuclear magnetons)

  Atom         1           2           3           4           5           6           7
 IAtWgt=          14          14          12           1           1           1           1
 AtmWgt=  14.0030740  14.0030740  12.0000000   1.0078250   1.0078250   1.0078250   1.0078250
 NucSpn=           2           2           0           1           1           1           1
 AtZEff=  -0.0000000  -0.0000000  -0.0000000  -0.0000000  -0.0000000  -0.0000000  -0.0000000
 NQMom=    2.0440000   2.0440000   0.0000000   0.0000000   0.0000000   0.0000000   0.0000000
 NMagM=    0.4037610   0.4037610   0.0000000   2.7928460   2.7928460   2.7928460   2.7928460
 AtZNuc=   7.0000000   7.0000000   6.0000000   1.0000000   1.0000000   1.0000000   1.0000000
 Leave Link  101 at Mon Mar 21 04:00:41 2022, MaxMem=  8589934592 cpu:               0.7 elap:               0.1
 (Enter /home/sabyasachi/g16/l202.exe)
                          Input orientation:                          
 ---------------------------------------------------------------------
 Center     Atomic      Atomic             Coordinates (Angstroms)
 Number     Number       Type             X           Y           Z
 ---------------------------------------------------------------------
      1          7           0        1.106441    0.142513   -0.090982
      2          7           0       -0.080753   -0.512520    0.006066
      3          6           0       -1.148696    0.167456    0.008166
      4          1           0        1.854749   -0.409916    0.291533
      5          1           0        1.109677    1.100453    0.242713
      6          1           0       -2.089851   -0.366199    0.035249
      7          1           0       -1.162208    1.260974   -0.024080
 ---------------------------------------------------------------------
                    Distance matrix (angstroms):
                    1          2          3          4          5
     1  N    0.000000
     2  N    1.359381   0.000000
     3  C    2.257453   1.266047   0.000000
     4  H    1.005714   1.959129   3.071537   0.000000
     5  H    1.014402   2.018615   2.454739   1.684853   0.000000
     6  H    3.238982   2.014631   1.082263   3.953158   3.525775
     7  H    2.530257   2.077435   1.094077   3.463165   2.293122
                    6          7
     6  H    0.000000
     7  H    1.873962   0.000000
 Stoichiometry    CH4N2
 Framework group  C1[X(CH4N2)]
 Deg. of freedom    15
 Full point group                 C1      NOp   1
 Largest Abelian subgroup         C1      NOp   1
 Largest concise Abelian subgroup C1      NOp   1
                         Standard orientation:                         
 ---------------------------------------------------------------------
 Center     Atomic      Atomic             Coordinates (Angstroms)
 Number     Number       Type             X           Y           Z
 ---------------------------------------------------------------------
      1          7           0        1.106441    0.142513   -0.090982
      2          7           0       -0.080753   -0.512520    0.006066
      3          6           0       -1.148696    0.167456    0.008166
      4          1           0        1.854749   -0.409916    0.291533
      5          1           0        1.109676    1.100453    0.242713
      6          1           0       -2.089851   -0.366199    0.035249
      7          1           0       -1.162209    1.260974   -0.024080
 ---------------------------------------------------------------------
 Rotational constants (GHZ):          66.3844039          11.5398193           9.9244358
 Leave Link  202 at Mon Mar 21 04:00:41 2022, MaxMem=  8589934592 cpu:               0.1 elap:               0.0
 (Enter /home/sabyasachi/g16/l301.exe)
 General basis read from cards:  (5D, 7F)
 Centers:       4      5      6      7
 S 3 1.00
     Exponent=  1.3010701000D+01 Coefficients=  1.9682158000D-02
     Exponent=  1.9622572000D+00 Coefficients=  1.3796524000D-01
     Exponent=  4.4453796000D-01 Coefficients=  4.7831935000D-01
 S 1 1.00
     Exponent=  1.2194962000D-01 Coefficients=  1.0000000000D+00
 P 1 1.00
     Exponent=  8.0000000000D-01 Coefficients=  1.0000000000D+00
 P 1 1.00
     Exponent=  1.1704099050D-01 Coefficients=  1.0000000000D+00
 ****
 Centers:       3
 S 5 1.00
     Exponent=  1.2384016938D+03 Coefficients=  5.4568832082D-03
     Exponent=  1.8629004992D+02 Coefficients=  4.0638409211D-02
     Exponent=  4.2251176346D+01 Coefficients=  1.8025593888D-01
     Exponent=  1.1676557932D+01 Coefficients=  4.6315121755D-01
     Exponent=  3.5930506482D+00 Coefficients=  4.4087173314D-01
 S 1 1.00
     Exponent=  4.0245147363D-01 Coefficients=  1.0000000000D+00
 S 1 1.00
     Exponent=  1.3090182668D-01 Coefficients=  1.0000000000D+00
 S 1 1.00
     Exponent=  6.7053540256D-02 Coefficients=  1.0000000000D+00
 P 3 1.00
     Exponent=  9.4680970621D+00 Coefficients=  3.8387871728D-02
     Exponent=  2.0103545142D+00 Coefficients=  2.1117025112D-01
     Exponent=  5.4771004707D-01 Coefficients=  5.1328172114D-01
 P 1 1.00
     Exponent=  1.5268613795D-01 Coefficients=  1.0000000000D+00
 D 1 1.00
     Exponent=  8.0000000000D-01 Coefficients=  1.0000000000D+00
 D 1 1.00
     Exponent=  1.1713185140D-01 Coefficients=  1.0000000000D+00
 ****
 Centers:       1      2
 S 5 1.00
     Exponent=  1.7128415853D+03 Coefficients= -5.3934125305D-03
     Exponent=  2.5764812677D+02 Coefficients= -4.0221581118D-02
     Exponent=  5.8458245853D+01 Coefficients= -1.7931144990D-01
     Exponent=  1.6198367905D+01 Coefficients= -4.6376317823D-01
     Exponent=  5.0052600809D+00 Coefficients= -4.4171422662D-01
 S 1 1.00
     Exponent=  5.8731856571D-01 Coefficients=  1.0000000000D+00
 S 1 1.00
     Exponent=  1.8764592253D-01 Coefficients=  1.0000000000D+00
 S 1 1.00
     Exponent=  9.6171241529D-02 Coefficients=  1.0000000000D+00
 P 3 1.00
     Exponent=  1.3571470233D+01 Coefficients= -4.0072398852D-02
     Exponent=  2.9257372874D+00 Coefficients= -2.1807045028D-01
     Exponent=  7.9927750754D-01 Coefficients= -5.1294466049D-01
 P 1 1.00
     Exponent=  2.1954348034D-01 Coefficients=  1.0000000000D+00
 D 1 1.00
     Exponent=  1.0000000000D+00 Coefficients=  1.0000000000D+00
 D 1 1.00
     Exponent=  1.6697708112D-01 Coefficients=  1.0000000000D+00
 ****
 Ernie: Thresh=  0.10000D-02 Tol=  0.10000D-05 Strict=F.
 There are    98 symmetry adapted cartesian basis functions of A   symmetry.
 There are    92 symmetry adapted basis functions of A   symmetry.
    92 basis functions,   136 primitive gaussians,    98 cartesian basis functions
    12 alpha electrons       12 beta electrons
       nuclear repulsion energy        73.1919062595 Hartrees.
 IExCor=  402 DFT=T Ex=B Corr=LYP ExCW=0 ScaHFX=  0.000000
 ScaDFX=  1.000000  1.000000  1.000000  1.000000 ScalE2=  1.000000  1.000000
 IRadAn=      5 IRanWt=     -1 IRanGd=            0 ICorTp=0 IEmpDi=  4
 NAtoms=    7 NActive=    7 NUniq=    7 SFac= 1.00D+00 NAtFMM=   60 NAOKFM=F Big=F
 Integral buffers will be    131072 words long.
 Regular integral format.
 Two-electron integral symmetry is turned on.
 Leave Link  301 at Mon Mar 21 04:00:41 2022, MaxMem=  8589934592 cpu:               0.5 elap:               0.1
 (Enter /home/sabyasachi/g16/l302.exe)
 NPDir=0 NMtPBC=     1 NCelOv=     1 NCel=       1 NClECP=     1 NCelD=      1
         NCelK=      1 NCelE2=     1 NClLst=     1 CellRange=     0.0.
 One-electron integrals computed using PRISM.
 One-electron integral symmetry used in STVInt
 NBasis=    92 RedAO= T EigKep=  3.91D-04  NBF=    92
 NBsUse=    92 1.00D-06 EigRej= -1.00D+00 NBFU=    92
 Precomputing XC quadrature grid using
 IXCGrd= 4 IRadAn=           5 IRanWt=          -1 IRanGd=           0 AccXCQ= 0.00D+00.
 Generated NRdTot=       0 NPtTot=           0 NUsed=           0 NTot=          32
 NSgBfM=    98    98    98    98    98 MxSgAt=     7 MxSgA2=     7.
 Leave Link  302 at Mon Mar 21 04:00:41 2022, MaxMem=  8589934592 cpu:               0.9 elap:               0.1
 (Enter /home/sabyasachi/g16/l303.exe)
 DipDrv:  MaxL=1.
 Leave Link  303 at Mon Mar 21 04:00:41 2022, MaxMem=  8589934592 cpu:               0.2 elap:               0.0
 (Enter /home/sabyasachi/g16/l308.exe)
 Leave Link  308 at Mon Mar 21 04:00:42 2022, MaxMem=  8589934592 cpu:               0.2 elap:               0.1
 (Enter /home/sabyasachi/g16/l401.exe)
 ExpMin= 6.71D-02 ExpMax= 1.71D+03 ExpMxC= 2.58D+02 IAcc=3 IRadAn=         5 AccDes= 0.00D+00
 Harris functional with IExCor=  402 and IRadAn=       5 diagonalized for initial guess.
 HarFok:  IExCor=  402 AccDes= 0.00D+00 IRadAn=         5 IDoV= 1 UseB2=F ITyADJ=14
 ICtDFT=  3500011 ScaDFX=  1.000000  1.000000  1.000000  1.000000
 FoFCou: FMM=F IPFlag=           0 FMFlag=      100000 FMFlg1=           0
         NFxFlg=           0 DoJE=T BraDBF=F KetDBF=T FulRan=T
         wScrn=  0.000000 ICntrl=       500 IOpCl=  0 I1Cent=   200000004 NGrid=           0
         NMat0=    1 NMatS0=      1 NMatT0=    0 NMatD0=    1 NMtDS0=    0 NMtDT0=    0
 Petite list used in FoFCou.
 Harris En= -149.856162869440    
 JPrj=0 DoOrth=F DoCkMO=F.
 Leave Link  401 at Mon Mar 21 04:00:42 2022, MaxMem=  8589934592 cpu:               2.6 elap:               0.3
 (Enter /home/sabyasachi/g16/l502.exe)
 Keep J ints in memory in canonical form, NReq=16534063.
 FoFCou: FMM=F IPFlag=           0 FMFlag=           0 FMFlg1=           0
         NFxFlg=           0 DoJE=F BraDBF=F KetDBF=F FulRan=T
         wScrn=  0.000000 ICntrl=       600 IOpCl=  0 I1Cent=           0 NGrid=           0
         NMat0=    1 NMatS0=   4278 NMatT0=    0 NMatD0=    1 NMtDS0=    0 NMtDT0=    0
 Symmetry not used in FoFCou.
 Two-electron integral symmetry not used.
 Closed shell SCF:
 Using DIIS extrapolation, IDIIS=  1040.
 NGot=  8589934592 LenX=  8580760569 LenY=  8580750524
 Requested convergence on RMS density matrix=1.00D-08 within 100 cycles.
 Requested convergence on MAX density matrix=1.00D-06.
 Requested convergence on             energy=1.00D-06.
 No special actions if energy rises.
 Integral accuracy reduced to 1.0D-05 until final iterations.

 Cycle   1  Pass 0  IDiag  1:
 E= -149.753599855713    
 DIIS: error= 2.13D-02 at cycle   1 NSaved=   1.
 NSaved= 1 IEnMin= 1 EnMin= -149.753599855713     IErMin= 1 ErrMin= 2.13D-02
 ErrMax= 2.13D-02  0.00D+00 EMaxC= 1.00D-01 BMatC= 5.58D-02 BMatP= 5.58D-02
 IDIUse=3 WtCom= 7.87D-01 WtEn= 2.13D-01
 Coeff-Com:  0.100D+01
 Coeff-En:   0.100D+01
 Coeff:      0.100D+01
 Gap=     0.158 Goal=   None    Shift=    0.000
 GapD=    0.158 DampG=1.000 DampE=0.500 DampFc=0.5000 IDamp=-1.
 Damping current iteration by 5.00D-01
 RMSDP=1.20D-02 MaxDP=4.47D-01              OVMax= 1.70D-01

 Cycle   2  Pass 0  IDiag  1:
 E= -149.774117267920     Delta-E=       -0.020517412207 Rises=F Damp=T
 DIIS: error= 5.98D-03 at cycle   2 NSaved=   2.
 NSaved= 2 IEnMin= 2 EnMin= -149.774117267920     IErMin= 2 ErrMin= 5.98D-03
 ErrMax= 5.98D-03  0.00D+00 EMaxC= 1.00D-01 BMatC= 4.41D-03 BMatP= 5.58D-02
 IDIUse=3 WtCom= 9.40D-01 WtEn= 5.98D-02
 Coeff-Com:  0.179D+00 0.821D+00
 Coeff-En:   0.296D+00 0.704D+00
 Coeff:      0.186D+00 0.814D+00
 Gap=     0.191 Goal=   None    Shift=    0.000
 RMSDP=1.97D-03 MaxDP=7.53D-02 DE=-2.05D-02 OVMax= 1.17D-01

 Cycle   3  Pass 0  IDiag  1:
 E= -149.813670589731     Delta-E=       -0.039553321811 Rises=F Damp=F
 DIIS: error= 3.13D-03 at cycle   3 NSaved=   3.
 NSaved= 3 IEnMin= 3 EnMin= -149.813670589731     IErMin= 3 ErrMin= 3.13D-03
 ErrMax= 3.13D-03  0.00D+00 EMaxC= 1.00D-01 BMatC= 1.18D-03 BMatP= 4.41D-03
 IDIUse=3 WtCom= 9.69D-01 WtEn= 3.13D-02
 Coeff-Com:  0.575D-01 0.365D+00 0.577D+00
 Coeff-En:   0.000D+00 0.000D+00 0.100D+01
 Coeff:      0.557D-01 0.354D+00 0.590D+00
 Gap=     0.166 Goal=   None    Shift=    0.000
 RMSDP=7.95D-04 MaxDP=2.16D-02 DE=-3.96D-02 OVMax= 2.39D-02

 Cycle   4  Pass 0  IDiag  1:
 E= -149.813865940532     Delta-E=       -0.000195350801 Rises=F Damp=F
 DIIS: error= 3.34D-03 at cycle   4 NSaved=   4.
 NSaved= 4 IEnMin= 4 EnMin= -149.813865940532     IErMin= 3 ErrMin= 3.13D-03
 ErrMax= 3.34D-03  0.00D+00 EMaxC= 1.00D-01 BMatC= 9.47D-04 BMatP= 1.18D-03
 IDIUse=3 WtCom= 9.67D-01 WtEn= 3.34D-02
 Coeff-Com:  0.247D-01 0.181D+00 0.448D+00 0.346D+00
 Coeff-En:   0.000D+00 0.000D+00 0.459D+00 0.541D+00
 Coeff:      0.239D-01 0.175D+00 0.449D+00 0.353D+00
 Gap=     0.167 Goal=   None    Shift=    0.000
 RMSDP=4.22D-04 MaxDP=1.04D-02 DE=-1.95D-04 OVMax= 1.51D-02

 Cycle   5  Pass 0  IDiag  1:
 E= -149.814692648875     Delta-E=       -0.000826708343 Rises=F Damp=F
 DIIS: error= 8.58D-04 at cycle   5 NSaved=   5.
 NSaved= 5 IEnMin= 5 EnMin= -149.814692648875     IErMin= 5 ErrMin= 8.58D-04
 ErrMax= 8.58D-04  0.00D+00 EMaxC= 1.00D-01 BMatC= 5.20D-05 BMatP= 9.47D-04
 IDIUse=3 WtCom= 9.91D-01 WtEn= 8.58D-03
 Coeff-Com:  0.546D-02 0.493D-01 0.191D+00 0.223D+00 0.531D+00
 Coeff-En:   0.000D+00 0.000D+00 0.000D+00 0.388D-01 0.961D+00
 Coeff:      0.542D-02 0.489D-01 0.190D+00 0.221D+00 0.535D+00
 Gap=     0.168 Goal=   None    Shift=    0.000
 RMSDP=1.28D-04 MaxDP=2.76D-03 DE=-8.27D-04 OVMax= 6.17D-03

 Cycle   6  Pass 0  IDiag  1:
 E= -149.814725346962     Delta-E=       -0.000032698086 Rises=F Damp=F
 DIIS: error= 3.27D-04 at cycle   6 NSaved=   6.
 NSaved= 6 IEnMin= 6 EnMin= -149.814725346962     IErMin= 6 ErrMin= 3.27D-04
 ErrMax= 3.27D-04  0.00D+00 EMaxC= 1.00D-01 BMatC= 1.81D-05 BMatP= 5.20D-05
 IDIUse=3 WtCom= 9.97D-01 WtEn= 3.27D-03
 Coeff-Com:  0.408D-03 0.107D-01 0.755D-01 0.111D+00 0.411D+00 0.391D+00
 Coeff-En:   0.000D+00 0.000D+00 0.000D+00 0.000D+00 0.304D+00 0.696D+00
 Coeff:      0.407D-03 0.106D-01 0.752D-01 0.111D+00 0.410D+00 0.392D+00
 Gap=     0.167 Goal=   None    Shift=    0.000
 RMSDP=5.81D-05 MaxDP=1.66D-03 DE=-3.27D-05 OVMax= 2.44D-03

 Cycle   7  Pass 0  IDiag  1:
 E= -149.814743671558     Delta-E=       -0.000018324597 Rises=F Damp=F
 DIIS: error= 1.80D-05 at cycle   7 NSaved=   7.
 NSaved= 7 IEnMin= 7 EnMin= -149.814743671558     IErMin= 7 ErrMin= 1.80D-05
 ErrMax= 1.80D-05  0.00D+00 EMaxC= 1.00D-01 BMatC= 5.64D-08 BMatP= 1.81D-05
 IDIUse=1 WtCom= 1.00D+00 WtEn= 0.00D+00
 Coeff-Com: -0.162D-04 0.132D-02 0.181D-01 0.285D-01 0.122D+00 0.129D+00
 Coeff-Com:  0.701D+00
 Coeff:     -0.162D-04 0.132D-02 0.181D-01 0.285D-01 0.122D+00 0.129D+00
 Coeff:      0.701D+00
 Gap=     0.167 Goal=   None    Shift=    0.000
 RMSDP=5.54D-06 MaxDP=1.19D-04 DE=-1.83D-05 OVMax= 9.27D-05

 Initial convergence to 1.0D-05 achieved.  Increase integral accuracy.
 Cycle   8  Pass 1  IDiag  1:
 E= -149.814745373049     Delta-E=       -0.000001701491 Rises=F Damp=F
 DIIS: error= 4.56D-06 at cycle   1 NSaved=   1.
 NSaved= 1 IEnMin= 1 EnMin= -149.814745373049     IErMin= 1 ErrMin= 4.56D-06
 ErrMax= 4.56D-06  0.00D+00 EMaxC= 1.00D-01 BMatC= 3.46D-09 BMatP= 3.46D-09
 IDIUse=1 WtCom= 1.00D+00 WtEn= 0.00D+00
 Coeff-Com:  0.100D+01
 Coeff:      0.100D+01
 Gap=     0.167 Goal=   None    Shift=    0.000
 RMSDP=5.54D-06 MaxDP=1.19D-04 DE=-1.70D-06 OVMax= 7.51D-05

 Cycle   9  Pass 1  IDiag  1:
 E= -149.814745365505     Delta-E=        0.000000007544 Rises=F Damp=F
 DIIS: error= 8.74D-06 at cycle   2 NSaved=   2.
 NSaved= 2 IEnMin= 1 EnMin= -149.814745373049     IErMin= 1 ErrMin= 4.56D-06
 ErrMax= 8.74D-06  0.00D+00 EMaxC= 1.00D-01 BMatC= 1.23D-08 BMatP= 3.46D-09
 IDIUse=1 WtCom= 1.00D+00 WtEn= 0.00D+00
 Coeff-Com:  0.675D+00 0.325D+00
 Coeff:      0.675D+00 0.325D+00
 Gap=     0.167 Goal=   None    Shift=    0.000
 RMSDP=1.58D-06 MaxDP=4.13D-05 DE= 7.54D-09 OVMax= 7.51D-05

 Cycle  10  Pass 1  IDiag  1:
 E= -149.814745376458     Delta-E=       -0.000000010953 Rises=F Damp=F
 DIIS: error= 3.35D-06 at cycle   3 NSaved=   3.
 NSaved= 3 IEnMin= 3 EnMin= -149.814745376458     IErMin= 3 ErrMin= 3.35D-06
 ErrMax= 3.35D-06  0.00D+00 EMaxC= 1.00D-01 BMatC= 1.39D-09 BMatP= 3.46D-09
 IDIUse=1 WtCom= 1.00D+00 WtEn= 0.00D+00
 Coeff-Com:  0.261D+00 0.239D+00 0.500D+00
 Coeff:      0.261D+00 0.239D+00 0.500D+00
 Gap=     0.167 Goal=   None    Shift=    0.000
 RMSDP=6.27D-07 MaxDP=1.42D-05 DE=-1.10D-08 OVMax= 2.44D-05

 Cycle  11  Pass 1  IDiag  1:
 E= -149.814745377792     Delta-E=       -0.000000001334 Rises=F Damp=F
 DIIS: error= 8.34D-07 at cycle   4 NSaved=   4.
 NSaved= 4 IEnMin= 4 EnMin= -149.814745377792     IErMin= 4 ErrMin= 8.34D-07
 ErrMax= 8.34D-07  0.00D+00 EMaxC= 1.00D-01 BMatC= 7.57D-11 BMatP= 1.39D-09
 IDIUse=1 WtCom= 1.00D+00 WtEn= 0.00D+00
 Coeff-Com:  0.613D-01 0.827D-01 0.258D+00 0.598D+00
 Coeff:      0.613D-01 0.827D-01 0.258D+00 0.598D+00
 Gap=     0.167 Goal=   None    Shift=    0.000
 RMSDP=1.78D-07 MaxDP=6.78D-06 DE=-1.33D-09 OVMax= 4.76D-06

 Cycle  12  Pass 1  IDiag  1:
 E= -149.814745377845     Delta-E=       -0.000000000053 Rises=F Damp=F
 DIIS: error= 3.82D-07 at cycle   5 NSaved=   5.
 NSaved= 5 IEnMin= 5 EnMin= -149.814745377845     IErMin= 5 ErrMin= 3.82D-07
 ErrMax= 3.82D-07  0.00D+00 EMaxC= 1.00D-01 BMatC= 2.31D-11 BMatP= 7.57D-11
 IDIUse=1 WtCom= 1.00D+00 WtEn= 0.00D+00
 Coeff-Com:  0.506D-02 0.234D-01 0.108D+00 0.404D+00 0.459D+00
 Coeff:      0.506D-02 0.234D-01 0.108D+00 0.404D+00 0.459D+00
 Gap=     0.167 Goal=   None    Shift=    0.000
 RMSDP=7.15D-08 MaxDP=2.39D-06 DE=-5.31D-11 OVMax= 1.41D-06

 Cycle  13  Pass 1  IDiag  1:
 E= -149.814745377863     Delta-E=       -0.000000000018 Rises=F Damp=F
 DIIS: error= 8.77D-08 at cycle   6 NSaved=   6.
 NSaved= 6 IEnMin= 6 EnMin= -149.814745377863     IErMin= 6 ErrMin= 8.77D-08
 ErrMax= 8.77D-08  0.00D+00 EMaxC= 1.00D-01 BMatC= 9.56D-13 BMatP= 2.31D-11
 IDIUse=1 WtCom= 1.00D+00 WtEn= 0.00D+00
 Coeff-Com: -0.358D-03 0.917D-02 0.487D-01 0.202D+00 0.269D+00 0.471D+00
 Coeff:     -0.358D-03 0.917D-02 0.487D-01 0.202D+00 0.269D+00 0.471D+00
 Gap=     0.167 Goal=   None    Shift=    0.000
 RMSDP=1.50D-08 MaxDP=2.79D-07 DE=-1.80D-11 OVMax= 4.54D-07

 Cycle  14  Pass 1  IDiag  1:
 E= -149.814745377865     Delta-E=       -0.000000000002 Rises=F Damp=F
 DIIS: error= 1.79D-08 at cycle   7 NSaved=   7.
 NSaved= 7 IEnMin= 7 EnMin= -149.814745377865     IErMin= 7 ErrMin= 1.79D-08
 ErrMax= 1.79D-08  0.00D+00 EMaxC= 1.00D-01 BMatC= 3.82D-14 BMatP= 9.56D-13
 IDIUse=1 WtCom= 1.00D+00 WtEn= 0.00D+00
 Coeff-Com: -0.589D-03 0.258D-02 0.134D-01 0.599D-01 0.836D-01 0.226D+00
 Coeff-Com:  0.615D+00
 Coeff:     -0.589D-03 0.258D-02 0.134D-01 0.599D-01 0.836D-01 0.226D+00
 Coeff:      0.615D+00
 Gap=     0.167 Goal=   None    Shift=    0.000
 RMSDP=3.54D-09 MaxDP=8.11D-08 DE=-1.93D-12 OVMax= 9.53D-08

 SCF Done:  E(RB-LYP) =  -149.814745378     A.U. after   14 cycles
            NFock= 14  Conv=0.35D-08     -V/T= 2.0091
 KE= 1.484604356683D+02 PE=-4.950352758991D+02 EE= 1.235681885934D+02
 Leave Link  502 at Mon Mar 21 04:00:44 2022, MaxMem=  8589934592 cpu:              17.4 elap:               2.3
 (Enter /home/sabyasachi/g16/l801.exe)
 DoSCS=F DFT=T ScalE2(SS,OS)=  1.000000  1.000000
 ExpMin= 6.71D-02 ExpMax= 1.71D+03 ExpMxC= 2.58D+02 IAcc=3 IRadAn=         5 AccDes= 0.00D+00
 HarFok:  IExCor=  205 AccDes= 0.00D+00 IRadAn=         5 IDoV=-2 UseB2=F ITyADJ=14
 ICtDFT= 12500011 ScaDFX=  1.000000  1.000000  1.000000  1.000000
 Largest valence mixing into a core orbital is  6.61D-05
 Largest core mixing into a valence orbital is  1.29D-05
 Range of M.O.s used for correlation:     4    92
 NBasis=    92 NAE=    12 NBE=    12 NFC=     3 NFV=     0
 NROrb=     89 NOA=     9 NOB=     9 NVA=    80 NVB=    80

 **** Warning!!: The largest alpha MO coefficient is  0.13306003D+02

 Leave Link  801 at Mon Mar 21 04:00:44 2022, MaxMem=  8589934592 cpu:               0.5 elap:               0.1
 (Enter /home/sabyasachi/g16/l914.exe)
 RHF ground state
 Keep J ints in memory in canonical form, NReq=583180155.
 FoFCou: FMM=F IPFlag=           0 FMFlag=           0 FMFlg1=           0
         NFxFlg=           0 DoJE=F BraDBF=F KetDBF=F FulRan=T
         wScrn=  0.000000 ICntrl=       600 IOpCl=  0 I1Cent=           0 NGrid=           0
         NMat0=    1 NMatS0=   4278 NMatT0=    0 NMatD0=    1 NMtDS0=    0 NMtDT0=    0
 Symmetry not used in FoFCou.
 Two-electron integral symmetry not used.
 MDV=  8589934592 DFT=T DoStab=F Mixed=F DoRPA=T DoScal=T NonHer=F
 Making orbital integer symmetry assigments:
 Orbital symmetries:
       Occupied  (A) (A) (A) (A) (A) (A) (A) (A) (A) (A) (A) (A)
       Virtual   (A) (A) (A) (A) (A) (A) (A) (A) (A) (A) (A) (A)
                 (A) (A) (A) (A) (A) (A) (A) (A) (A) (A) (A) (A)
                 (A) (A) (A) (A) (A) (A) (A) (A) (A) (A) (A) (A)
                 (A) (A) (A) (A) (A) (A) (A) (A) (A) (A) (A) (A)
                 (A) (A) (A) (A) (A) (A) (A) (A) (A) (A) (A) (A)
                 (A) (A) (A) (A) (A) (A) (A) (A) (A) (A) (A) (A)
                 (A) (A) (A) (A) (A) (A) (A) (A)
   720 initial guesses have been made.
 Convergence on wavefunction:    0.001000000000000
 Davidson Disk Diagonalization:  ConvIn= 1.00D-03 SkipCon=T Conv= 1.00D-03.
 Max sub-space:  2880 roots to seek:  1440 dimension of matrix:         1440
 *** WARNING: Number of orthogonal guesses is          720
 Iteration     1 Dimension   720 NMult     0 NNew    720
 CISAX will form   720 AO SS matrices at one time.
 NMat=   720 NSing=   720 JSym2X= 0.
 New state     11 was old state     13
 New state     13 was old state     14
 New state     14 was old state     15
 New state     15 was old state     16
 New state     16 was old state     17
 New state     17 was old state     11
 New state     18 was old state     19
 New state     19 was old state     18
 New state     20 was old state     21
 New state     21 was old state     22
 New state     22 was old state     23
 New state     23 was old state     20
 New state     30 was old state     31
 New state     31 was old state     30
 New state     33 was old state     34
 New state     34 was old state     33
 New state     35 was old state     36
 New state     36 was old state     35
 New state     41 was old state     42
 New state     42 was old state     41
 New state     43 was old state     44
 New state     44 was old state     43
 New state     45 was old state     46
 New state     46 was old state     45
 New state     50 was old state     51
 New state     51 was old state     52
 New state     52 was old state     53
 New state     53 was old state     50
 New state     54 was old state     55
 New state     55 was old state     57
 New state     57 was old state     59
 New state     59 was old state     60
 New state     60 was old state     61
 New state     61 was old state     54
 New state     64 was old state     66
 New state     65 was old state     64
 New state     66 was old state     68
 New state     67 was old state     70
 New state     68 was old state     69
 New state     69 was old state     65
 New state     70 was old state     73
 New state     71 was old state     67
 New state     72 was old state     74
 New state     73 was old state     72
 New state     74 was old state     75
 New state     75 was old state     77
 New state     76 was old state     80
 New state     77 was old state     78
 New state     78 was old state     81
 New state     80 was old state     76
 New state     81 was old state     85
 New state     84 was old state     87
 New state     85 was old state     84
 New state     87 was old state     89
 New state     89 was old state     92
 New state     91 was old state     96
 New state     92 was old state     91
 New state     95 was old state     97
 New state     96 was old state     95
 New state     97 was old state     98
 New state     98 was old state     99
 New state     99 was old state    100
 New state    100 was old state    103
 New state    101 was old state    102
 New state    102 was old state    104
 New state    103 was old state    105
 New state    104 was old state    107
 New state    105 was old state    101
 New state    106 was old state    108
 New state    107 was old state    106
 New state    108 was old state    109
 New state    109 was old state    111
 New state    111 was old state    112
 New state    112 was old state    114
 New state    113 was old state    115
 New state    114 was old state    116
 New state    115 was old state    113
 New state    116 was old state    117
 New state    117 was old state    118
 New state    118 was old state    120
 New state    120 was old state    121
 New state    121 was old state    122
 New state    122 was old state    126
 New state    123 was old state    124
 New state    124 was old state    123
 New state    125 was old state    127
 New state    126 was old state    128
 New state    127 was old state    130
 New state    128 was old state    129
 New state    129 was old state    131
 New state    130 was old state    132
 New state    131 was old state    125
 New state    132 was old state    133
 New state    133 was old state    134
 New state    134 was old state    135
 New state    135 was old state    136
 New state    136 was old state    139
 New state    139 was old state    141
 New state    140 was old state    142
 New state    141 was old state    140
 New state    142 was old state    149
 New state    148 was old state    150
 New state    149 was old state    151
 New state    150 was old state    152
 New state    151 was old state    153
 New state    152 was old state    156
 New state    153 was old state    157
 New state    154 was old state    155
 New state    155 was old state    154
 New state    156 was old state    159
 New state    157 was old state    158
 New state    158 was old state    160
 New state    159 was old state    162
 New state    160 was old state    164
 New state    161 was old state    163
 New state    162 was old state    161
 New state    163 was old state    166
 New state    164 was old state    168
 New state    166 was old state    169
 New state    168 was old state    171
 New state    169 was old state    172
 New state    171 was old state    176
 New state    172 was old state    174
 New state    174 was old state    175
 New state    175 was old state    180
 New state    176 was old state    179
 New state    177 was old state    178
 New state    178 was old state    184
 New state    179 was old state    182
 New state    180 was old state    177
 New state    181 was old state    185
 New state    182 was old state    186
 New state    183 was old state    187
 New state    184 was old state    183
 New state    185 was old state    181
 New state    186 was old state    188
 New state    187 was old state    189
 New state    188 was old state    191
 New state    189 was old state    192
 New state    190 was old state    193
 New state    191 was old state    195
 New state    192 was old state    190
 New state    193 was old state    196
 New state    194 was old state    197
 New state    195 was old state    206
 New state    196 was old state    194
 New state    197 was old state    199
 New state    198 was old state    204
 New state    199 was old state    200
 New state    200 was old state    201
 New state    201 was old state    205
 New state    204 was old state    198
 New state    205 was old state    207
 New state    206 was old state    211
 New state    207 was old state    208
 New state    208 was old state    209
 New state    209 was old state    212
 New state    211 was old state    213
 New state    212 was old state    217
 New state    213 was old state    214
 New state    214 was old state    215
 New state    215 was old state    219
 New state    216 was old state    221
 New state    217 was old state    218
 New state    218 was old state    216
 New state    219 was old state    226
 New state    221 was old state    225
 New state    222 was old state    223
 New state    223 was old state    224
 New state    224 was old state    228
 New state    225 was old state    227
 New state    226 was old state    232
 New state    227 was old state    231
 New state    228 was old state    229
 New state    229 was old state    230
 New state    230 was old state    233
 New state    231 was old state    234
 New state    232 was old state    239
 New state    233 was old state    236
 New state    234 was old state    235
 New state    235 was old state    237
 New state    236 was old state    241
 New state    237 was old state    240
 New state    239 was old state    242
 New state    240 was old state    251
 New state    241 was old state    244
 New state    242 was old state    243
 New state    243 was old state    245
 New state    244 was old state    246
 New state    245 was old state    247
 New state    246 was old state    249
 New state    247 was old state    248
 New state    248 was old state    250
 New state    249 was old state    253
 New state    250 was old state    252
 New state    251 was old state    254
 New state    252 was old state    257
 New state    253 was old state    255
 New state    254 was old state    258
 New state    255 was old state    256
 New state    256 was old state    260
 New state    257 was old state    259
 New state    258 was old state    262
 New state    259 was old state    267
 New state    260 was old state    265
 New state    262 was old state    263
 New state    263 was old state    266
 New state    265 was old state    270
 New state    266 was old state    268
 New state    267 was old state    276
 New state    268 was old state    272
 New state    269 was old state    271
 New state    270 was old state    275
 New state    271 was old state    274
 New state    272 was old state    277
 New state    274 was old state    280
 New state    275 was old state    279
 New state    276 was old state    284
 New state    277 was old state    278
 New state    278 was old state    282
 New state    279 was old state    269
 New state    280 was old state    283
 No map to state    282
 New state    283 was old state    285
 New state    284 was old state    288
 New state    285 was old state    286
 New state    286 was old state    287
 New state    287 was old state    290
 New state    288 was old state    289
 New state    289 was old state    291
 New state    290 was old state    294
 No map to state    291
 New state    293 was old state    295
 New state    294 was old state    293
 New state    295 was old state    296
 New state    296 was old state    297
 New state    297 was old state    298
 New state    298 was old state    299
 New state    299 was old state    303
 New state    300 was old state    301
 New state    301 was old state    300
 New state    303 was old state    306
 New state    306 was old state    307
 New state    307 was old state    309
 New state    308 was old state    311
 New state    309 was old state    310
 New state    310 was old state    312
 New state    311 was old state    318
 New state    312 was old state    308
 New state    318 was old state    320
 New state    320 was old state    321
 New state    321 was old state    323
 New state    322 was old state    326
 New state    323 was old state    325
 New state    325 was old state    328
 New state    326 was old state    333
 New state    327 was old state    329
 New state    328 was old state    330
 New state    329 was old state    331
 New state    330 was old state    332
 New state    331 was old state    327
 New state    332 was old state    337
 New state    333 was old state    335
 New state    334 was old state    336
 New state    335 was old state    334
 New state    336 was old state    339
 New state    337 was old state    338
 New state    338 was old state    341
 New state    339 was old state    340
 New state    340 was old state    342
 New state    341 was old state    343
 New state    342 was old state    322
 New state    343 was old state    344
 New state    344 was old state    346
 New state    345 was old state    347
 New state    346 was old state    348
 New state    347 was old state    345
 New state    348 was old state    349
 New state    349 was old state    350
 New state    350 was old state    351
 New state    351 was old state    356
 New state    353 was old state    354
 New state    354 was old state    353
 New state    355 was old state    357
 New state    356 was old state    355
 New state    357 was old state    358
 New state    358 was old state    363
 New state    360 was old state    362
 New state    361 was old state    364
 New state    362 was old state    361
 New state    363 was old state    366
 New state    364 was old state    365
 New state    365 was old state    368
 New state    366 was old state    367
 New state    367 was old state    370
 New state    368 was old state    369
 New state    369 was old state    371
 New state    370 was old state    372
 New state    371 was old state    373
 New state    372 was old state    360
 New state    373 was old state    374
 New state    374 was old state    377
 New state    377 was old state    378
 New state    378 was old state    379
 New state    379 was old state    382
 New state    381 was old state    383
 New state    382 was old state    384
 New state    383 was old state    389
 New state    384 was old state    381
 New state    385 was old state    386
 New state    386 was old state    387
 New state    387 was old state    388
 New state    388 was old state    391
 New state    389 was old state    390
 New state    390 was old state    392
 New state    391 was old state    394
 New state    392 was old state    393
 New state    393 was old state    397
 New state    394 was old state    396
 New state    395 was old state    398
 New state    396 was old state    395
 New state    397 was old state    400
 New state    398 was old state    399
 New state    399 was old state    403
 New state    400 was old state    401
 New state    401 was old state    406
 New state    402 was old state    404
 New state    403 was old state    402
 New state    404 was old state    409
 New state    405 was old state    407
 New state    406 was old state    410
 New state    407 was old state    408
 New state    408 was old state    411
 New state    409 was old state    416
 New state    410 was old state    414
 New state    411 was old state    412
 New state    412 was old state    413
 New state    413 was old state    415
 New state    414 was old state    405
 New state    415 was old state    417
 New state    416 was old state    423
 New state    417 was old state    418
 New state    418 was old state    420
 New state    420 was old state    421
 New state    421 was old state    422
 New state    422 was old state    424
 New state    423 was old state    425
 New state    424 was old state    427
 New state    425 was old state    428
 New state    427 was old state    429
 New state    428 was old state    430
 New state    429 was old state    431
 New state    430 was old state    432
 New state    431 was old state    433
 New state    432 was old state    434
 New state    433 was old state    436
 New state    434 was old state    438
 New state    436 was old state    439
 New state    437 was old state    442
 New state    438 was old state    437
 New state    439 was old state    440
 New state    440 was old state    443
 New state    441 was old state    444
 New state    442 was old state    441
 New state    443 was old state    445
 New state    444 was old state    446
 New state    445 was old state    448
 New state    446 was old state    447
 New state    447 was old state    449
 New state    448 was old state    451
 New state    449 was old state    452
 New state    451 was old state    453
 New state    452 was old state    458
 No map to state    453
 New state    454 was old state    455
 New state    455 was old state    454
 New state    456 was old state    457
 New state    457 was old state    456
 New state    458 was old state    459
 New state    459 was old state    460
 New state    460 was old state    464
 New state    461 was old state    462
 New state    462 was old state    461
 New state    464 was old state    472
 New state    468 was old state    469
 New state    469 was old state    470
 New state    470 was old state    473
 New state    472 was old state    474
 New state    473 was old state    478
 New state    474 was old state    476
 New state    476 was old state    477
 New state    477 was old state    479
 New state    478 was old state    480
 New state    479 was old state    482
 New state    480 was old state    481
 New state    481 was old state    484
 New state    482 was old state    485
 New state    484 was old state    486
 New state    485 was old state    488
 New state    486 was old state    487
 New state    487 was old state    489
 New state    488 was old state    493
 New state    489 was old state    492
 New state    492 was old state    497
 New state    493 was old state    494
 New state    494 was old state    495
 New state    495 was old state    496
 New state    496 was old state    498
 No map to state    497
 New state    498 was old state    499
 New state    499 was old state    500
 New state    500 was old state    501
 New state    501 was old state    502
 New state    502 was old state    503
 New state    503 was old state    505
 New state    505 was old state    510
 New state    509 was old state    511
 New state    510 was old state    509
 New state    511 was old state    514
 New state    512 was old state    513
 New state    513 was old state    515
 New state    514 was old state    512
 New state    515 was old state    517
 New state    517 was old state    518
 New state    518 was old state    520
 New state    520 was old state    522
 New state    521 was old state    523
 New state    522 was old state    521
 New state    523 was old state    525
 New state    525 was old state    526
 New state    526 was old state    527
 New state    527 was old state    535
 New state    529 was old state    530
 New state    530 was old state    532
 New state    531 was old state    533
 New state    532 was old state    531
 New state    533 was old state    536
 New state    535 was old state    539
 New state    536 was old state    529
 New state    538 was old state    540
 New state    539 was old state    538
 New state    540 was old state    541
 New state    541 was old state    542
 New state    542 was old state    543
 New state    543 was old state    545
 New state    544 was old state    547
 New state    545 was old state    544
 New state    547 was old state    549
 New state    549 was old state    551
 New state    550 was old state    553
 New state    551 was old state    552
 New state    552 was old state    554
 New state    553 was old state    550
 New state    554 was old state    555
 New state    555 was old state    556
 New state    556 was old state    557
 New state    557 was old state    561
 New state    561 was old state    570
 New state    562 was old state    563
 New state    563 was old state    562
 New state    565 was old state    566
 New state    566 was old state    567
 New state    567 was old state    565
 New state    570 was old state    571
 New state    571 was old state    573
 New state    573 was old state    574
 New state    574 was old state    576
 New state    575 was old state    577
 New state    576 was old state    575
 New state    577 was old state    578
 New state    578 was old state    579
 New state    579 was old state    580
 New state    580 was old state    582
 New state    581 was old state    583
 New state    582 was old state    584
 New state    583 was old state    581
 New state    584 was old state    588
 New state    586 was old state    587
 New state    587 was old state    586
 New state    588 was old state    589
 New state    589 was old state    590
 New state    590 was old state    591
 New state    591 was old state    592
 New state    592 was old state    593
 New state    593 was old state    595
 New state    595 was old state    597
 New state    597 was old state    598
 New state    598 was old state    601
 New state    601 was old state    606
 New state    602 was old state    603
 New state    603 was old state    602
 New state    606 was old state    608
 New state    608 was old state    612
 New state    609 was old state    610
 New state    610 was old state    609
 New state    612 was old state    614
 New state    614 was old state    615
 New state    615 was old state    616
 New state    616 was old state    618
 New state    618 was old state    619
 New state    619 was old state    621
 New state    621 was old state    630
 New state    630 was old state    632
 New state    632 was old state    636
 No map to state    636
 New state    642 was old state    643
 New state    643 was old state    642
 New state    644 was old state    645
 New state    645 was old state    644
 New state    656 was old state    658
 New state    658 was old state    656
 New state    659 was old state    661
 New state    660 was old state    659
 New state    661 was old state    660
 New state    666 was old state    667
 New state    667 was old state    666
 New state    668 was old state    669
 New state    669 was old state    668
 New state    676 was old state    677
 New state    677 was old state    676
 New state    711 was old state    712
 New state    712 was old state    711
 Excitation Energies [eV] at current iteration:
 Root      1 :     5.593770986252004
 Root      2 :     5.675501747851563
 Root      3 :     5.960956558363241
 Root      4 :     6.561688722543112
 Root      5 :     6.589765056173647
 Root      6 :     7.256002588428552
 Root      7 :     7.296834428952742
 Root      8 :     8.044085874044656
 Root      9 :     8.109649715762078
 Root     10 :     8.380582414870101
 Root     11 :     8.854903072056143
 Root     12 :     8.890105195798823
 Root     13 :     9.100980592806673
 Root     14 :     9.206000572461535
 Root     15 :     9.528085428275070
 Root     16 :     9.601625299305773
 Root     17 :     9.903559851630821
 Root     18 :     9.994106690942774
 Root     19 :    10.139060404291240
 Root     20 :    10.336604062740680
 Root     21 :    10.383657794468460
 Root     22 :    10.446236098820830
 Root     23 :    10.497424223410400
 Root     24 :    10.702077028037260
 Root     25 :    10.979814755668950
 Root     26 :    11.053109629676290
 Root     27 :    11.098066792740180
 Root     28 :    11.161660450384330
 Root     29 :    11.244915238866850
 Root     30 :    11.458260971216710
 Root     31 :    11.558715498264940
 Root     32 :    11.717545969301150
 Root     33 :    11.911424455868460
 Root     34 :    11.939484234616640
 Root     35 :    11.999356889025070
 Root     36 :    12.054570563142550
 Root     37 :    12.148438512953850
 Root     38 :    12.309050394618660
 Root     39 :    12.333542578727850
 Root     40 :    12.520097358816510
 Root     41 :    12.651508440634240
 Root     42 :    12.722223879978820
 Root     43 :    12.797917493759630
 Root     44 :    12.844609273453880
 Root     45 :    13.056592015693940
 Root     46 :    13.123722160639660
 Root     47 :    13.347808776223640
 Root     48 :    13.510941616539490
 Root     49 :    13.638203521873950
 Root     50 :    13.669865155518670
 Root     51 :    13.792034097261690
 Root     52 :    13.860695980126050
 Root     53 :    13.903550647266460
 Root     54 :    14.054026526081720
 Root     55 :    14.078902077869670
 Root     56 :    14.131424647126230
 Root     57 :    14.274632958434500
 Root     58 :    14.309297895860350
 Root     59 :    14.391848577883570
 Root     60 :    14.479030806914290
 Root     61 :    14.540757380751650
 Root     62 :    14.637199611107260
 Root     63 :    14.669790074556600
 Root     64 :    14.782172156816660
 Root     65 :    14.859956354503430
 Root     66 :    14.940228748235240
 Root     67 :    15.007728476629700
 Root     68 :    15.041927835918610
 Root     69 :    15.075481942981420
 Root     70 :    15.185276405406300
 Root     71 :    15.191515977920130
 Root     72 :    15.290894619159230
 Root     73 :    15.305840610623220
 Root     74 :    15.372422393674470
 Root     75 :    15.550766146301840
 Root     76 :    15.577206837473730
 Root     77 :    15.607027006277530
 Root     78 :    15.679693985697620
 Root     79 :    15.707765905668010
 Root     80 :    15.757531292359860
 Root     81 :    15.807641883576230
 Root     82 :    15.826538870724870
 Root     83 :    15.874675151860980
 Root     84 :    15.984072518563440
 Root     85 :    16.074983915759700
 Root     86 :    16.113469485183680
 Root     87 :    16.200452951375660
 Root     88 :    16.264163629886350
 Root     89 :    16.351212865019910
 Root     90 :    16.408896998480240
 Root     91 :    16.464449532297860
 Root     92 :    16.515433745387900
 Root     93 :    16.598697037696330
 Root     94 :    16.663557781837880
 Root     95 :    16.831004713283920
 Root     96 :    16.858835416260800
 Root     97 :    16.911461427893510
 Root     98 :    17.120023690665250
 Root     99 :    17.139713784092690
 Root    100 :    17.235536726434000
 Root    101 :    17.411649440267450
 Root    102 :    17.531321909541560
 Root    103 :    17.577681148585900
 Root    104 :    17.609906580886160
 Root    105 :    17.648846260584470
 Root    106 :    17.697469434739820
 Root    107 :    17.784967667402000
 Root    108 :    17.878383370688470
 Root    109 :    17.897969528167320
 Root    110 :    17.951429284346090
 Root    111 :    18.030153439382430
 Root    112 :    18.130219120062400
 Root    113 :    18.192413402669300
 Root    114 :    18.238332313209730
 Root    115 :    18.267022379860690
 Root    116 :    18.336858170581860
 Root    117 :    18.423319690002540
 Root    118 :    18.441437243318820
 Root    119 :    18.502194031484060
 Root    120 :    18.536019250846490
 Root    121 :    18.581391495060920
 Root    122 :    18.626438412006390
 Root    123 :    18.744077274055590
 Root    124 :    18.847928167787810
 Root    125 :    18.907482484239030
 Root    126 :    18.973954099549230
 Root    127 :    19.024981628207800
 Root    128 :    19.074415732309180
 Root    129 :    19.127268525528140
 Root    130 :    19.167074720589920
 Root    131 :    19.248980179494700
 Root    132 :    19.310149739345340
 Root    133 :    19.387215299076070
 Root    134 :    19.396081809988980
 Root    135 :    19.509525961305780
 Root    136 :    19.609062913816170
 Root    137 :    19.671993730178770
 Root    138 :    19.704737982171330
 Root    139 :    19.754005956511270
 Root    140 :    19.813930005777740
 Root    141 :    19.818106683349290
 Root    142 :    19.947813995433940
 Root    143 :    20.068021978169590
 Root    144 :    20.076741752876130
 Root    145 :    20.143450573936060
 Root    146 :    20.228025986397470
 Root    147 :    20.282598508514910
 Root    148 :    20.458314327076110
 Root    149 :    20.500806848321460
 Root    150 :    20.505137584631180
 Root    151 :    20.644001751881040
 Root    152 :    20.736176867894810
 Root    153 :    20.772782575891420
 Root    154 :    20.820437833835420
 Root    155 :    20.919527614164860
 Root    156 :    20.940649695958230
 Root    157 :    21.045057405885680
 Root    158 :    21.106213655504280
 Root    159 :    21.140448097548330
 Root    160 :    21.260657185911730
 Root    161 :    21.348188283889510
 Root    162 :    21.371901746107020
 Root    163 :    21.439819844347370
 Root    164 :    21.476300118805840
 Root    165 :    21.506874356676570
 Root    166 :    21.556502544851290
 Root    167 :    21.638975397707320
 Root    168 :    21.689250734995270
 Root    169 :    21.760285875255490
 Root    170 :    21.833275934017090
 Root    171 :    21.936291528911380
 Root    172 :    21.976747380423590
 Root    173 :    22.030596855682110
 Root    174 :    22.065333656215130
 Root    175 :    22.193473186162870
 Root    176 :    22.294043702346570
 Root    177 :    22.361332099030990
 Root    178 :    22.454287937284120
 Root    179 :    22.479762462404050
 Root    180 :    22.518314505413620
 Root    181 :    22.586798446079860
 Root    182 :    22.594374253363740
 Root    183 :    22.614775544674200
 Root    184 :    22.702560023855790
 Root    185 :    22.892381454812180
 Root    186 :    22.945776214691890
 Root    187 :    22.966623562691780
 Root    188 :    23.079815432072210
 Root    189 :    23.087309036244140
 Root    190 :    23.123108891579850
 Root    191 :    23.240131513532600
 Root    192 :    23.277094018330660
 Root    193 :    23.349953097841870
 Root    194 :    23.406811732553560
 Root    195 :    23.529167978386280
 Root    196 :    23.624019648741180
 Root    197 :    23.701955945576010
 Root    198 :    23.847843363010180
 Root    199 :    23.905073636973960
 Root    200 :    23.989279511290240
 Root    201 :    24.055115657728960
 Root    202 :    24.095643304321280
 Root    203 :    24.158937986279980
 Root    204 :    24.215403195937870
 Root    205 :    24.339658476267320
 Root    206 :    24.421447479643370
 Root    207 :    24.431553927516860
 Root    208 :    24.526339475319970
 Root    209 :    24.561772694929400
 Root    210 :    24.615041641403640
 Root    211 :    24.702276898864200
 Root    212 :    24.745085115847060
 Root    213 :    24.855197063505120
 Root    214 :    24.937676912448900
 Root    215 :    25.007557545133320
 Root    216 :    25.023958887778540
 Root    217 :    25.056434344640260
 Root    218 :    25.073800115432620
 Root    219 :    25.134478986976230
 Root    220 :    25.189659904887520
 Root    221 :    25.262791321795000
 Root    222 :    25.314186802699500
 Root    223 :    25.340051931420120
 Root    224 :    25.450736727825690
 Root    225 :    25.543079664598620
 Root    226 :    25.607568571495200
 Root    227 :    25.623820964356320
 Root    228 :    25.683452238276010
 Root    229 :    25.771508878831540
 Root    230 :    25.823194775367540
 Root    231 :    25.857943287147940
 Root    232 :    25.952391087265930
 Root    233 :    25.989033704139210
 Root    234 :    26.162924560064860
 Root    235 :    26.217303865039660
 Root    236 :    26.265874071826980
 Root    237 :    26.328969166163250
 Root    238 :    26.362550890326790
 Root    239 :    26.418709960426930
 Root    240 :    26.514865844660070
 Root    241 :    26.705157337982950
 Root    242 :    26.846249038664740
 Root    243 :    26.959803117741790
 Root    244 :    26.984982725959810
 Root    245 :    27.043240371935060
 Root    246 :    27.148832448656340
 Root    247 :    27.244938221053250
 Root    248 :    27.295852133172510
 Root    249 :    27.437219686928230
 Root    250 :    27.542445390747830
 Root    251 :    27.614888707616660
 Root    252 :    27.663289797471910
 Root    253 :    27.750758303415330
 Root    254 :    27.843695553549100
 Root    255 :    27.891504012671540
 Root    256 :    27.964043589857070
 Root    257 :    27.987535474920940
 Root    258 :    28.013626446495190
 Root    259 :    28.063507110408980
 Root    260 :    28.157547337817770
 Root    261 :    28.306893420504960
 Root    262 :    28.386734058023210
 Root    263 :    28.566608356744460
 Root    264 :    28.651248057739370
 Root    265 :    28.707266444650930
 Root    266 :    28.764062720458580
 Root    267 :    28.922127287647360
 Root    268 :    28.953204289456560
 Root    269 :    29.034027903814640
 Root    270 :    29.073529773168480
 Root    271 :    29.142810421046970
 Root    272 :    29.183250430327880
 Root    273 :    29.202306761240560
 Root    274 :    29.280552556325080
 Root    275 :    29.400623005224460
 Root    276 :    29.442629221198360
 Root    277 :    29.468045993226390
 Root    278 :    29.554092232223350
 Root    279 :    29.579825076913040
 Root    280 :    29.676152880437960
 Root    281 :    29.881219345025940
 Root    282 :    29.932255058860420
 Root    283 :    29.987761106334700
 Root    284 :    30.107274630992600
 Root    285 :    30.157627757589060
 Root    286 :    30.221787084724990
 Root    287 :    30.254836120169830
 Root    288 :    30.409682171471050
 Root    289 :    30.473448946544010
 Root    290 :    30.566246220553860
 Root    291 :    30.599362005475310
 Root    292 :    30.770236518300760
 Root    293 :    30.906023912557390
 Root    294 :    31.076715445100100
 Root    295 :    31.131532122610280
 Root    296 :    31.178914681466280
 Root    297 :    31.199522019769380
 Root    298 :    31.217128804412470
 Root    299 :    31.573097742462090
 Root    300 :    31.616541437336290
 Root    301 :    31.650754800372980
 Root    302 :    31.792690400782110
 Root    303 :    31.851079585007660
 Root    304 :    31.914265630155500
 Root    305 :    32.006127890244410
 Root    306 :    32.089694481285340
 Root    307 :    32.346830184435110
 Root    308 :    32.433200176340570
 Root    309 :    32.496322992532100
 Root    310 :    32.721386164007750
 Root    311 :    32.828581759488610
 Root    312 :    32.892849590721760
 Root    313 :    32.999183793868010
 Root    314 :    33.066770822095440
 Root    315 :    33.089952300470990
 Root    316 :    33.153240962898620
 Root    317 :    33.258360085439860
 Root    318 :    33.300402476890710
 Root    319 :    33.457318807233550
 Root    320 :    33.644175494321020
 Root    321 :    33.711243028873340
 Root    322 :    33.767998728357690
 Root    323 :    33.827712925287610
 Root    324 :    33.879393806599820
 Root    325 :    34.034639082506420
 Root    326 :    34.154902587550880
 Root    327 :    34.175570323449790
 Root    328 :    34.189995908195390
 Root    329 :    34.285397240160040
 Root    330 :    34.306708823931920
 Root    331 :    34.392343199789260
 Root    332 :    34.587355678145470
 Root    333 :    34.760432662365420
 Root    334 :    34.808700635639530
 Root    335 :    34.849859061850780
 Root    336 :    35.007739131220730
 Root    337 :    35.059060070687380
 Root    338 :    35.144190715484090
 Root    339 :    35.289316757725080
 Root    340 :    35.362674260145110
 Root    341 :    35.487739351309180
 Root    342 :    35.714496492403130
 Root    343 :    35.978226040727170
 Root    344 :    36.029953470627930
 Root    345 :    36.183287359204470
 Root    346 :    36.319021359077060
 Root    347 :    36.388103480296860
 Root    348 :    36.482816425789950
 Root    349 :    36.617350212395910
 Root    350 :    36.672707329491170
 Root    351 :    36.820249895432240
 Root    352 :    36.900073134706640
 Root    353 :    36.988135232607680
 Root    354 :    37.017188920955210
 Root    355 :    37.110430139484560
 Root    356 :    37.205141698368670
 Root    357 :    37.282602577563460
 Root    358 :    37.409646041206010
 Root    359 :    37.596561336268590
 Root    360 :    37.683685735679890
 Root    361 :    37.870747307141930
 Root    362 :    37.936617005402920
 Root    363 :    38.034425317043710
 Root    364 :    38.190903548270230
 Root    365 :    38.468447366689620
 Root    366 :    38.559966335579440
 Root    367 :    38.639357061590200
 Root    368 :    38.651343250491670
 Root    369 :    38.757329929983170
 Root    370 :    38.801710420799840
 Root    371 :    39.044310494208750
 Root    372 :    39.238467658769320
 Root    373 :    39.411523330231790
 Root    374 :    39.653409148522790
 Root    375 :    39.816260268257460
 Root    376 :    39.925943352156510
 Root    377 :    39.955126479344450
 Root    378 :    40.129113946995770
 Root    379 :    40.168787050579080
 Root    380 :    40.322507004926760
 Root    381 :    40.429912030968550
 Root    382 :    40.540113741224000
 Root    383 :    40.591279313665090
 Root    384 :    40.636734320264610
 Root    385 :    40.839921160275440
 Root    386 :    40.889247271932180
 Root    387 :    40.966844034682680
 Root    388 :    41.003738769406110
 Root    389 :    41.052482702469690
 Root    390 :    41.126937176750570
 Root    391 :    41.377103543062550
 Root    392 :    41.554682318718150
 Root    393 :    41.778473284411800
 Root    394 :    41.886307962019720
 Root    395 :    41.967198252159330
 Root    396 :    42.055030050298020
 Root    397 :    42.317814193334120
 Root    398 :    42.490089333152890
 Root    399 :    42.862169401660790
 Root    400 :    42.953190615574360
 Root    401 :    43.192367149932020
 Root    402 :    43.220843370586150
 Root    403 :    43.305785173131700
 Root    404 :    43.433592716410930
 Root    405 :    43.537180363987810
 Root    406 :    43.662066149637080
 Root    407 :    43.823359151548700
 Root    408 :    43.930304044041290
 Root    409 :    43.962876469897610
 Root    410 :    44.119327742056860
 Root    411 :    44.327575688575740
 Root    412 :    44.471917099493010
 Root    413 :    44.565064557396060
 Root    414 :    44.669109591003240
 Root    415 :    44.782529833072150
 Root    416 :    45.328540924607710
 Root    417 :    45.504984203449090
 Root    418 :    45.619293292966080
 Root    419 :    45.771137098635850
 Root    420 :    45.918824458470210
 Root    421 :    46.059980479399370
 Root    422 :    46.306295243764640
 Root    423 :    46.486527042655080
 Root    424 :    46.555216160697610
 Root    425 :    46.631610787695160
 Root    426 :    46.770214324753820
 Root    427 :    46.873627141009360
 Root    428 :    46.966299144378700
 Root    429 :    47.106898460236290
 Root    430 :    47.475982327902630
 Root    431 :    47.593859303372420
 Root    432 :    47.696638356508270
 Root    433 :    47.787301589612970
 Root    434 :    48.074314369369790
 Root    435 :    48.263301903691010
 Root    436 :    48.344718501186340
 Root    437 :    48.486967061337330
 Root    438 :    48.660565732297340
 Root    439 :    48.721478913450950
 Root    440 :    48.782991913696100
 Root    441 :    48.884326135974010
 Root    442 :    49.100702904399750
 Root    443 :    49.329605908332400
 Root    444 :    49.489556205709260
 Root    445 :    49.570566303945820
 Root    446 :    49.603640220587970
 Root    447 :    50.090636290544990
 Root    448 :    50.154597300891970
 Root    449 :    50.219192150652220
 Root    450 :    50.463306965754640
 Root    451 :    50.515268708376380
 Root    452 :    50.647779268517110
 Root    453 :    50.708851853778690
 Root    454 :    51.226740058375450
 Root    455 :    51.253038143901030
 Root    456 :    51.343402839929860
 Root    457 :    51.409388870738130
 Root    458 :    51.753428799578560
 Root    459 :    51.947082644295970
 Root    460 :    52.106564946054630
 Root    461 :    52.249331922161510
 Root    462 :    52.473188750893750
 Root    463 :    52.491522528713200
 Root    464 :    52.608752966372560
 Root    465 :    52.770374628487770
 Root    466 :    52.866897243295130
 Root    467 :    53.097708375854490
 Root    468 :    53.148843618975330
 Root    469 :    53.185942391551340
 Root    470 :    53.297084336482510
 Root    471 :    53.534487855463620
 Root    472 :    53.676918302268620
 Root    473 :    53.699908512377360
 Root    474 :    53.871064841572560
 Root    475 :    54.176463086364780
 Root    476 :    54.452200446192690
 Root    477 :    54.541010767842400
 Root    478 :    54.936599591969860
 Root    479 :    55.004002602802700
 Root    480 :    55.250707661279830
 Root    481 :    55.375795396539400
 Root    482 :    55.509774729199890
 Root    483 :    55.612573594052630
 Root    484 :    55.648419781543160
 Root    485 :    55.702550132646340
 Root    486 :    55.907636697856370
 Root    487 :    56.036607828117550
 Root    488 :    56.063908029203200
 Root    489 :    56.124563600210020
 Root    490 :    56.178027115150660
 Root    491 :    56.345051666560660
 Root    492 :    56.513280046874960
 Root    493 :    56.783208133218590
 Root    494 :    57.176995994830140
 Root    495 :    57.415729888143680
 Root    496 :    57.576170421325780
 Root    497 :    57.594980242708190
 Root    498 :    57.808076301454730
 Root    499 :    57.932764988632440
 Root    500 :    57.935999017120330
 Root    501 :    58.099416750704620
 Root    502 :    58.141770292724530
 Root    503 :    58.407594383618870
 Root    504 :    58.782561392899030
 Root    505 :    58.863556854808280
 Root    506 :    59.198238138108910
 Root    507 :    59.340159820135200
 Root    508 :    59.467457832229080
 Root    509 :    59.654920344748240
 Root    510 :    59.709197099818060
 Root    511 :    59.892357097361380
 Root    512 :    59.973157998954820
 Root    513 :    60.032596058067860
 Root    514 :    60.049382439992320
 Root    515 :    60.233117928176910
 Root    516 :    60.474163403660770
 Root    517 :    60.539579455369290
 Root    518 :    60.785460101021150
 Root    519 :    61.111760471945810
 Root    520 :    61.172475506933710
 Root    521 :    61.349137031492600
 Root    522 :    61.375204621374590
 Root    523 :    61.564785834672890
 Root    524 :    61.721919328004670
 Root    525 :    61.803008617423740
 Root    526 :    61.871738113567600
 Root    527 :    62.064798613539710
 Root    528 :    62.137941783571580
 Root    529 :    62.422115618051210
 Root    530 :    62.535190528933970
 Root    531 :    62.671940572775950
 Root    532 :    62.705870615428930
 Root    533 :    62.786828413405270
 Root    534 :    62.915098696642000
 Root    535 :    63.035392694176580
 Root    536 :    63.079337882275870
 Root    537 :    63.116325361330300
 Root    538 :    63.285273678528060
 Root    539 :    63.554623553904150
 Root    540 :    63.683598265390120
 Root    541 :    63.953821473081640
 Root    542 :    64.055273452286900
 Root    543 :    64.482471178492740
 Root    544 :    64.608761570388760
 Root    545 :    64.763931634593040
 Root    546 :    64.765941738109120
 Root    547 :    64.842300449755310
 Root    548 :    65.216563413584850
 Root    549 :    65.363913559398840
 Root    550 :    65.425418787791500
 Root    551 :    65.774345854271150
 Root    552 :    65.810059075053720
 Root    553 :    66.007134127529030
 Root    554 :    66.173615269591930
 Root    555 :    66.200757523393110
 Root    556 :    66.348272270266860
 Root    557 :    66.442149602850120
 Root    558 :    66.503446745258710
 Root    559 :    66.679658190486210
 Root    560 :    66.820911432606540
 Root    561 :    66.962265561835980
 Root    562 :    67.386758288203610
 Root    563 :    67.525803963781230
 Root    564 :    67.606083387425330
 Root    565 :    67.933398923085750
 Root    566 :    67.990520533507900
 Root    567 :    68.101414545791460
 Root    568 :    68.171375512120900
 Root    569 :    68.455652455821410
 Root    570 :    68.881958523213900
 Root    571 :    69.079687989052630
 Root    572 :    69.226000379177830
 Root    573 :    69.426525792037860
 Root    574 :    69.586080696284130
 Root    575 :    69.665023001668520
 Root    576 :    69.778872088486760
 Root    577 :    69.789012948353450
 Root    578 :    69.972154793004020
 Root    579 :    70.165574238285070
 Root    580 :    70.301654067092870
 Root    581 :    70.678405141202970
 Root    582 :    70.686820865087110
 Root    583 :    70.887383787810080
 Root    584 :    71.169904270644150
 Root    585 :    71.516623685686620
 Root    586 :    71.575595034090070
 Root    587 :    71.751043614740200
 Root    588 :    72.114439723470430
 Root    589 :    72.354134389468290
 Root    590 :    72.576517986818940
 Root    591 :    72.657528905374680
 Root    592 :    72.776458223773020
 Root    593 :    72.850075194772020
 Root    594 :    73.006912745357570
 Root    595 :    73.156918741617590
 Root    596 :    73.314874097556030
 Root    597 :    73.631079749042900
 Root    598 :    73.891211482038050
 Root    599 :    74.176254786964040
 Root    600 :    74.585355684609080
 Root    601 :    74.687709688015030
 Root    602 :    75.006151908204400
 Root    603 :    75.037618618566550
 Root    604 :    75.163365855857520
 Root    605 :    75.532868547407940
 Root    606 :    75.785452384023420
 Root    607 :    75.884175199768530
 Root    608 :    76.249472158073930
 Root    609 :    76.413208989734310
 Root    610 :    76.443257773267040
 Root    611 :    76.515700468534330
 Root    612 :    76.815123103239390
 Root    613 :    77.116814861319870
 Root    614 :    77.215389745543830
 Root    615 :    77.289723566110890
 Root    616 :    77.403656718153670
 Root    617 :    77.882549784491220
 Root    618 :    78.088868299034420
 Root    619 :    78.365742258120430
 Root    620 :    78.586274581173900
 Root    621 :    78.937580695783280
 Root    622 :    79.196562350562260
 Root    623 :    79.384887243757730
 Root    624 :    79.524916138574210
 Root    625 :    79.863916349820130
 Root    626 :    79.973739607936960
 Root    627 :    80.089627124215340
 Root    628 :    80.182805305843600
 Root    629 :    80.428005410535480
 Root    630 :    80.559677117258840
 Root    631 :    80.978412097201670
 Root    632 :    81.290304455038180
 Root    633 :    81.606899620068430
 Root    634 :    81.761098825424950
 Root    635 :    82.146016055607010
 Root    636 :    82.184605161915470
 Root    637 :    83.211375921630790
 Root    638 :    83.716777419829270
 Root    639 :    83.968585962365780
 Root    640 :    84.236792988200510
 Root    641 :    84.499866673953460
 Root    642 :    84.639462178556870
 Root    643 :    84.690672107783670
 Root    644 :    84.793216431986520
 Root    645 :    84.911970552845150
 Root    646 :    85.115034946444580
 Root    647 :    85.761523922199880
 Root    648 :    86.228321316252920
 Root    649 :    86.440210739883410
 Root    650 :    86.622934629675710
 Root    651 :    87.072723951793170
 Root    652 :    87.270051174466500
 Root    653 :    87.934389676169120
 Root    654 :    88.434475274759820
 Root    655 :    88.501865757970320
 Root    656 :    88.958918032786240
 Root    657 :    88.991428552535550
 Root    658 :    89.116185844894720
 Root    659 :    89.540275644333550
 Root    660 :    89.830184652915310
 Root    661 :    90.005267816655890
 Root    662 :    90.540292116844170
 Root    663 :    90.910915308907360
 Root    664 :    91.031122179328180
 Root    665 :    91.207351268661680
 Root    666 :    91.282891273714970
 Root    667 :    91.437570665406920
 Root    668 :    91.856794920280610
 Root    669 :    92.044318057217140
 Root    670 :    92.560231919436180
 Root    671 :    92.936431071286930
 Root    672 :    93.347042813618780
 Root    673 :    93.465408278355600
 Root    674 :    93.817868607224110
 Root    675 :    94.008288577506820
 Root    676 :    94.456197813854030
 Root    677 :    94.526247646838930
 Root    678 :    94.716891426778500
 Root    679 :    94.862034838885250
 Root    680 :    95.758250846929780
 Root    681 :    96.321789504661680
 Root    682 :    96.479398051304910
 Root    683 :    97.009982521519210
 Root    684 :    97.530685389486550
 Root    685 :    97.889942419393800
 Root    686 :    98.235861430677090
 Root    687 :    98.388468134470160
 Root    688 :    98.477302418283930
 Root    689 :    98.884053336657870
 Root    690 :    99.285718573911400
 Root    691 :    99.589174719705470
 Root    692 :    99.685860991702950
 Root    693 :   100.479098962662500
 Root    694 :   100.729261437866300
 Root    695 :   101.414029332241000
 Root    696 :   102.052079296894900
 Root    697 :   102.882918239362200
 Root    698 :   103.035395383942000
 Root    699 :   103.140467745170300
 Root    700 :   103.471212875074600
 Root    701 :   103.560594187998900
 Root    702 :   104.213646589747900
 Root    703 :   104.374956639481500
 Root    704 :   104.533791183702600
 Root    705 :   105.884834495025600
 Root    706 :   106.553843453078000
 Root    707 :   106.715589161487400
 Root    708 :   107.393849550335900
 Root    709 :   107.951517300202800
 Root    710 :   108.223294156716100
 Root    711 :   109.025287137356100
 Root    712 :   109.115624400548900
 Root    713 :   109.384662562305300
 Root    714 :   109.782049244520900
 Root    715 :   111.645755805424600
 Root    716 :   112.917753769324700
 Root    717 :   113.931574479538100
 Root    718 :   116.337223414349700
 Root    719 :   118.744409908618200
 Root    720 :   121.126947362729400
 Convergence achieved for final wavefunctions.
 ***********************************************************************
 Excited states from <AA,BB:AA,BB> singles matrix:
 ***********************************************************************
 
 1PDM for each excited state written to RWF  633
 Ground to excited state transition densities written to RWF  633
 Ground to excited state transition electric dipole moments (Au):
       state          X           Y           Z        Dip. S.      Osc.
         1         0.6335     -0.1091      0.0479      0.4155      0.0569
         2        -0.3622     -0.0563     -0.0112      0.1345      0.0187
         3        -0.8977      0.0062      0.0965      0.8152      0.1191
         4        -0.3006     -0.4172     -0.0548      0.2675      0.0430
         5         0.0502     -0.0263     -0.3896      0.1550      0.0250
         6         0.0457      0.0793     -0.1575      0.0332      0.0059
         7         0.3727     -0.2423     -0.0357      0.1989      0.0356
         8         0.1553      0.6813      0.0904      0.4965      0.0978
         9         0.2140     -0.0977      0.0019      0.0553      0.0110
        10        -0.0772      0.0865     -0.1179      0.0273      0.0056
        11         0.1016      0.0453     -0.1252      0.0281      0.0061
        12         0.5303     -0.0681      0.0917      0.2942      0.0641
        13        -0.2731      0.3866     -0.0496      0.2265      0.0505
        14         0.2330     -0.1853     -0.0609      0.0923      0.0208
        15         0.1006      0.2777      0.0359      0.0885      0.0207
        16        -0.2734      0.1139      0.3175      0.1885      0.0443
        17         0.1036      0.3585     -0.1453      0.1604      0.0389
        18         0.2497     -0.1722      0.0276      0.0928      0.0227
        19         0.1007     -0.2773      0.0088      0.0871      0.0216
        20        -0.1460     -0.0822      0.0716      0.0332      0.0084
        21        -0.0647      0.0416      0.3297      0.1146      0.0292
        22         0.5667     -0.0023      0.0343      0.3223      0.0825
        23        -0.5217      0.0825     -0.0637      0.2830      0.0728
        24         0.3850     -0.1882      0.0081      0.1838      0.0482
        25        -0.0954      0.0758     -0.1266      0.0309      0.0083
        26         0.4140     -0.0996      0.1777      0.2129      0.0576
        27        -0.2029     -0.0438      0.2229      0.0928      0.0252
        28        -0.3151     -0.0299      0.1911      0.1367      0.0374
        29        -0.1496      0.4146     -0.0446      0.1962      0.0541
        30         0.1303     -0.0631     -0.0240      0.0215      0.0060
        31        -0.0810      0.0949      0.0926      0.0242      0.0068
        32        -0.0718     -0.0400      0.5323      0.2901      0.0833
        33         0.4539      0.3336      0.0702      0.3223      0.0940
        34         0.0205     -0.0090     -0.0426      0.0023      0.0007
        35         0.2628     -0.1717     -0.0416      0.1003      0.0295
        36        -0.0009      0.2994     -0.0495      0.0921      0.0272
        37         0.0124      0.1869     -0.0072      0.0351      0.0105
        38        -0.0056      0.2462     -0.0761      0.0665      0.0200
        39         0.1428     -0.0722      0.2374      0.0820      0.0248
        40         0.1525      0.0578      0.0576      0.0299      0.0092
        41        -0.1761      0.0692     -0.0206      0.0362      0.0112
        42        -0.0219     -0.0842     -0.0675      0.0121      0.0038
        43         0.3457     -0.0190      0.4668      0.3378      0.1059
        44        -0.1246      0.0653      0.3448      0.1387      0.0436
        45        -0.0045      0.1533      0.1425      0.0438      0.0140
        46        -0.2998      0.0339     -0.0226      0.0915      0.0294
        47        -0.2410      0.5204      0.0135      0.3291      0.1076
        48        -0.1849     -0.1841     -0.0175      0.0684      0.0226
        49        -0.4013     -0.2412      0.2124      0.2643      0.0883
        50        -0.2360     -0.0571      0.1005      0.0691      0.0231
        51         0.2924      0.1044      0.1482      0.1184      0.0400
        52         0.0256     -0.2463      0.0633      0.0653      0.0222
        53         0.0074     -0.1351      0.0704      0.0233      0.0079
        54         0.2944     -0.0622     -0.0250      0.0912      0.0314
        55        -0.2331      0.0738     -0.1295      0.0766      0.0264
        56         0.3216     -0.1048      0.0010      0.1144      0.0396
        57        -0.2227     -0.0623     -0.0227      0.0540      0.0189
        58        -0.1451      0.1954     -0.0436      0.0612      0.0214
        59         0.0403     -0.3905     -0.3295      0.2627      0.0926
        60        -0.0340     -0.0673     -0.1188      0.0198      0.0070
        61        -0.1389      0.0198      0.2449      0.0796      0.0284
        62        -0.1602      0.1894     -0.0591      0.0650      0.0233
        63         0.0367     -0.1237      0.2869      0.0990      0.0356
        64         0.0500      0.0049      0.0402      0.0041      0.0015
        65        -0.1035     -0.3429      0.1998      0.1682      0.0612
        66        -0.1496      0.1907      0.1684      0.0871      0.0319
        67        -0.0599     -0.2308      0.0155      0.0571      0.0210
        68        -0.1280     -0.2002      0.4139      0.2278      0.0839
        69        -0.0839     -0.0335     -0.0320      0.0092      0.0034
        70         0.4218      0.2825      0.2350      0.3129      0.1164
        71        -0.4421     -0.4585     -0.0144      0.4059      0.1511
        72         0.3693     -0.0947     -0.0194      0.1457      0.0546
        73        -0.2145      0.1068     -0.0722      0.0626      0.0235
        74         0.2442     -0.1837     -0.4427      0.2894      0.1090
        75        -0.1017      0.1973      0.1435      0.0699      0.0266
        76         0.1822     -0.3442      0.1272      0.1679      0.0641
        77        -0.0673      0.1146      0.0656      0.0220      0.0084
        78        -0.0439      0.0018     -0.1445      0.0228      0.0088
        79         0.3272      0.0553      0.1104      0.1223      0.0471
        80        -0.0051      0.1301     -0.0818      0.0236      0.0091
        81        -0.1507      0.2018     -0.0127      0.0636      0.0246
        82        -0.3041      0.1536     -0.0917      0.1245      0.0483
        83         0.3598     -0.1604     -0.0564      0.1584      0.0616
[...]
               651           652           653           654           655 
      1  -0.146615D+03 -0.146608D+03 -0.146583D+03 -0.146565D+03 -0.146562D+03
      2   0.493505D-02 -0.243942D-01 -0.120870D+00 -0.874568D-02 -0.543689D-01
      3   0.259903D-01 -0.606632D-01 -0.342963D-01 -0.535035D-01 -0.304036D-01
      4   0.578874D-01  0.367629D-01 -0.406198D-02  0.693558D-01 -0.178973D-01
      5   0.866537D-02  0.806879D-01  0.384455D+00  0.394884D-01  0.167520D+00
      6  -0.723902D-01  0.180420D+00  0.101051D+00  0.161205D+00  0.947992D-01
      7  -0.161567D+00 -0.107233D+00  0.197601D-01 -0.204215D+00  0.466365D-01
      8   0.117037D-01 -0.989456D-02 -0.770990D-01  0.201662D-01  0.931573D-01
      9   0.125374D+00  0.138567D+00 -0.480641D-01  0.111275D+00 -0.141135D+00
     10   0.196966D+00 -0.102052D+00  0.213790D+00  0.236104D+00  0.132779D+00
     11   0.507298D+00 -0.609611D-02  0.677422D+00 -0.297647D+00  0.277536D+00
     12   0.159326D+00 -0.200431D+00 -0.230896D+00 -0.525309D-01  0.105134D+00
     13   0.106897D+00  0.115796D+00  0.165887D-01 -0.236299D+00 -0.457453D-01
     14  -0.328705D+00  0.929389D-01 -0.163842D+00 -0.741388D-01  0.122944D+00
     15  -0.172585D+00 -0.248577D+00 -0.162807D-01 -0.111809D+00  0.922919D-01
     16   0.449348D-01 -0.707988D-01 -0.187593D+00 -0.221904D-01  0.139456D+00
               656           657           658           659           660 
      1  -0.146546D+03 -0.146544D+03 -0.146540D+03 -0.146524D+03 -0.146514D+03
      2  -0.138116D-01 -0.159213D-01 -0.731875D-01 -0.338348D-01  0.431497D-01
      3   0.473461D-01 -0.137084D-02 -0.381667D-01  0.679656D-01  0.622420D-01
      4   0.330046D-01  0.169558D-02  0.144854D-01 -0.119709D-01  0.121041D-01
      5   0.367643D-01  0.457058D-01  0.216542D+00  0.119709D+00 -0.129190D+00
      6  -0.137083D+00  0.492150D-02  0.114621D+00 -0.185358D+00 -0.186830D+00
      7  -0.100057D+00 -0.257633D-02 -0.565542D-01  0.351141D-01 -0.305453D-01
      8  -0.102141D+00 -0.103204D+00 -0.138018D+00 -0.171966D-01 -0.217243D-01
      9  -0.144061D+00  0.432416D+00 -0.569147D-01  0.267598D-01  0.598952D-01
     10  -0.156965D+00 -0.119061D+00  0.131913D+00  0.449163D+00 -0.116760D+00
     11   0.112954D+01  0.327428D+00  0.776780D+00  0.449081D+00  0.203706D+00
     12   0.157185D+00  0.551975D-01  0.122324D+00 -0.136173D+00 -0.211464D+00
     13  -0.474895D-01  0.802753D-01  0.207611D+00  0.388059D-01  0.129207D+00
     14   0.647993D-01 -0.145332D+00  0.385115D+00  0.438159D+00  0.339409D+00
     15   0.199256D+00 -0.509160D+00  0.636570D-01 -0.491911D-01 -0.147719D+00
     16  -0.114407D+00 -0.192192D+00 -0.253570D+00 -0.615816D-01 -0.136710D+00
               661           662           663           664           665 
      1  -0.146507D+03 -0.146487D+03 -0.146474D+03 -0.146469D+03 -0.146463D+03
      2  -0.300081D-01 -0.499843D-02 -0.211136D-01  0.248024D-01  0.165425D-01
      3   0.635297D-01 -0.686961D-02  0.258657D-01  0.578767D-01 -0.285822D-01
      4   0.363741D-01  0.137070D+00 -0.466279D-01  0.354254D-01  0.174593D-01
      5   0.865106D-01  0.124204D-01  0.765673D-01 -0.712091D-01 -0.482297D-01
      6  -0.192553D+00  0.281521D-01 -0.726375D-01 -0.183569D+00  0.755555D-01
      7  -0.100436D+00 -0.417723D+00  0.147238D+00 -0.105110D+00 -0.581539D-01
      8   0.607302D-01  0.107691D+00  0.183864D+00 -0.309741D-01 -0.124363D+00
      9   0.378541D-01  0.784035D+00 -0.577763D+00  0.212848D+00  0.277538D+00
     10  -0.558089D-01  0.235086D+00  0.603578D-01 -0.163982D+00  0.924805D-01
     11  -0.257490D+00  0.662616D+00  0.181140D+00  0.111764D+00  0.286501D+00
     12   0.230706D+00  0.965185D-01  0.202398D+00  0.599786D+00 -0.211869D+00
     13   0.510800D-01  0.157705D+00 -0.164128D+00 -0.145092D+00  0.253910D+00
     14  -0.536410D+00  0.480639D+00 -0.579966D-01 -0.232571D+00  0.182026D+00
     15   0.543787D-01 -0.777798D+00  0.548150D+00 -0.262037D+00 -0.267629D+00
     16   0.552969D-02  0.231804D+00  0.294515D+00 -0.708082D-01 -0.162619D+00
               666           667           668           669           670 
      1  -0.146460D+03 -0.146454D+03 -0.146439D+03 -0.146432D+03 -0.146413D+03
      2  -0.229791D-01  0.113576D-01 -0.753377D-01 -0.202795D-01 -0.799570D-02
      3   0.371418D-01 -0.641393D-01 -0.301281D-01 -0.725713D-01  0.498646D-01
      4   0.393165D-01  0.794197D-01 -0.271118D-01  0.267742D-01  0.313170D-02
      5   0.728429D-01 -0.330679D-01  0.228960D+00  0.506810D-01  0.228940D-01
      6  -0.123244D+00  0.194174D+00  0.715420D-01  0.220190D+00 -0.136849D+00
      7  -0.120936D+00 -0.227607D+00  0.805758D-01 -0.788504D-01 -0.103261D-01
      8  -0.408275D-01  0.171194D+00 -0.223811D-01  0.281340D-01 -0.165421D-02
      9   0.134328D+00  0.186325D+00 -0.943681D-01  0.651445D-01  0.276501D-01
     10  -0.259457D+00  0.166316D+00 -0.264369D-01 -0.205280D+00  0.709826D-01
     11   0.970075D-01 -0.409520D-01  0.131298D-01 -0.323473D+00 -0.627440D-01
     12  -0.184456D+00 -0.163911D-01  0.955880D-01 -0.178226D-01 -0.153063D+00
     13   0.597453D-01  0.143005D+00  0.487949D-01  0.631372D-01 -0.152864D-01
     14  -0.469999D+00  0.212746D+00 -0.213512D+00  0.181341D+00  0.671088D-01
     15  -0.218956D+00 -0.212613D+00  0.114225D+00 -0.106578D+00 -0.460581D-01
     16   0.466194D-01  0.121208D+00  0.330551D-01 -0.350730D-01  0.535162D-01
               671           672           673           674           675 
      1  -0.146399D+03 -0.146384D+03 -0.146380D+03 -0.146367D+03 -0.146360D+03
      2  -0.820030D-01  0.413962D-01  0.576152D-01 -0.471336D-01 -0.450925D-01
      3  -0.418233D-01  0.621109D-02 -0.113012D-01  0.619068D-01 -0.684168D-01
      4   0.143666D+00 -0.952040D-03 -0.276422D-02  0.453413D-01 -0.380360D-01
      5   0.254667D+00 -0.141587D+00 -0.182572D+00  0.145217D+00  0.131267D+00
      6   0.131110D+00 -0.256373D-01  0.529788D-01 -0.192258D+00  0.211883D+00
      7  -0.432492D+00 -0.848862D-02  0.188786D-02 -0.137094D+00  0.112338D+00
      8   0.183697D+00 -0.101628D+00 -0.384581D-02  0.252861D-01 -0.306442D-01
      9   0.611025D+00  0.400791D+00 -0.388443D-01  0.413076D+00 -0.182471D+00
     10   0.200405D+00 -0.123997D+00 -0.179491D+00 -0.461948D+00 -0.227476D+00
     11   0.329422D+00 -0.537450D+00  0.442279D+00  0.655956D+00 -0.734458D+00
     12   0.624268D-01 -0.161138D+00 -0.231656D+00 -0.196578D+00  0.117191D-01
     13   0.217870D+00  0.106997D+00  0.129224D+00  0.176593D+00 -0.665083D-01
     14   0.198587D+00 -0.372009D-01 -0.628918D-02 -0.328346D+00 -0.246223D+00
     15  -0.740285D+00 -0.373970D+00  0.244371D-01 -0.599058D+00  0.224696D+00
     16   0.269716D+00 -0.960674D-01  0.864630D-01  0.696866D-01  0.117547D-01
               676           677           678           679           680 
      1  -0.146344D+03 -0.146341D+03 -0.146334D+03 -0.146329D+03 -0.146296D+03
      2   0.684528D-01  0.132933D-01 -0.506487D-01 -0.828418D-01  0.470845D-01
      3   0.326255D-01 -0.550870D-01 -0.480485D-01 -0.137096D-01 -0.205924D-01
      4  -0.166335D-02  0.148367D-01 -0.361672D-01  0.298240D-01 -0.139829D-01
      5  -0.231509D+00 -0.329630D-01  0.164159D+00  0.256168D+00 -0.149813D+00
      6  -0.104752D+00  0.171260D+00  0.153103D+00  0.283771D-01  0.491372D-01
      7  -0.127638D-02 -0.451176D-01  0.116302D+00 -0.963341D-01  0.396129D-01
      8  -0.182307D+00 -0.268016D+00 -0.256550D+00 -0.121123D+00  0.137238D+00
      9   0.285993D+00  0.454077D+00  0.155463D+00  0.308126D+00 -0.231913D+00
     10   0.372967D-01  0.197594D+00  0.370831D+00 -0.119827D+00  0.583693D-01
     11  -0.709983D+00  0.567959D+00 -0.517192D+00 -0.225583D+00  0.155375D+00
     12   0.461463D-01 -0.594730D-01 -0.501915D+00  0.449918D-01 -0.522318D+00
     13   0.160963D+00  0.291118D+00  0.384298D-01  0.834748D-01 -0.100885D+00
     14   0.341743D+00  0.216858D+00 -0.125928D+00 -0.669384D-01  0.460626D-01
     15  -0.279749D+00 -0.514657D+00 -0.104564D+00 -0.351017D+00  0.304316D+00
     16  -0.267788D+00 -0.456112D+00 -0.475859D+00 -0.163934D+00  0.275960D+00
               681           682           683           684           685 
      1  -0.146275D+03 -0.146269D+03 -0.146250D+03 -0.146231D+03 -0.146217D+03
      2   0.938668D-02  0.793485D-01 -0.420314D-01  0.942622D-03  0.190872D-01
      3   0.164583D-01 -0.990063D-01 -0.546038D-01  0.102072D-01 -0.418200D-01
      4   0.232274D-01  0.404630D-02  0.730502D-02 -0.197428D-01 -0.328368D-01
      5  -0.269441D-01 -0.235008D+00  0.125277D+00 -0.105483D-01 -0.590779D-01
      6  -0.488482D-01  0.292071D+00  0.168090D+00 -0.478655D-01  0.117520D+00
      7  -0.623877D-01 -0.135439D-01 -0.294388D-01  0.533494D-01  0.115043D+00
      8  -0.745778D-01 -0.493099D-01  0.399503D-01 -0.110395D+00  0.124768D+00
      9   0.156606D+00  0.132249D+00 -0.712121D-02  0.111003D-01 -0.250362D+00
     10  -0.223303D-01  0.290540D+00 -0.818780D-01 -0.210449D+00  0.489894D+00
     11  -0.254995D-01 -0.505936D-01  0.164158D+00 -0.969029D-01 -0.521386D+00
     12   0.336711D-01 -0.245517D-01 -0.672695D-01 -0.348608D-01  0.320492D+00
     13   0.719102D-01  0.504722D-01  0.110163D+00  0.142780D-02 -0.216886D+00
     14   0.329527D-01  0.339127D+00 -0.156844D+00 -0.348041D-01  0.202801D+00
     15  -0.203379D+00 -0.615990D-01  0.460155D-01  0.604357D-01  0.210122D+00
     16   0.877812D-01 -0.187225D+00  0.634906D-01 -0.109175D+00  0.245029D-01
               686           687           688           689           690 
      1  -0.146205D+03 -0.146199D+03 -0.146196D+03 -0.146181D+03 -0.146166D+03
      2   0.336924D-02 -0.268204D-01 -0.194120D-01  0.577046D-01  0.196485D-01
      3   0.177585D-01  0.330402D-01  0.400738D-01  0.150896D-01 -0.525888D-01
      4   0.624888D-01  0.170015D-01 -0.647340D-01 -0.485866D-02  0.472459D-02
      5  -0.225358D-01  0.876125D-01  0.546537D-01 -0.182905D+00 -0.511883D-01
      6  -0.622533D-01 -0.925031D-01 -0.129842D+00 -0.456704D-01  0.156720D+00
      7  -0.188695D+00 -0.518161D-01  0.206668D+00  0.163130D-01 -0.142655D-01
      8   0.152607D+00 -0.984636D-01 -0.636339D-01  0.466008D-01  0.319343D-01
      9   0.306178D-01  0.230305D+00 -0.279532D+00 -0.453474D-01 -0.529907D-01
     10  -0.238458D-01 -0.180441D+00 -0.270289D-01  0.303527D+00 -0.258703D+00
     11  -0.107023D+00  0.103057D+01  0.778902D+00 -0.126190D-01 -0.233982D+00
     12   0.225204D-01  0.447808D+00 -0.248831D+00 -0.167874D-02 -0.131645D+00
     13  -0.212378D-01 -0.803625D-01  0.413916D-01  0.918891D-01  0.213844D+00
     14  -0.528389D-01 -0.258052D+00 -0.197234D+00  0.383269D+00 -0.326200D+00
     15  -0.410351D-01 -0.369155D+00  0.265710D+00  0.680809D-01  0.715686D-01
     16   0.281598D+00 -0.144169D+00 -0.386489D-01  0.296776D-01  0.716465D-01
               691           692           693           694           695 
      1  -0.146155D+03 -0.146151D+03 -0.146122D+03 -0.146113D+03 -0.146088D+03
      2   0.281851D-01 -0.127426D-02  0.207623D-01 -0.103849D+00  0.156507D-01
      3  -0.174778D-01  0.940249D-01  0.478827D-01  0.889651D-01 -0.382065D-01
      4  -0.106687D-01  0.582106D-02 -0.226321D-01  0.449805D-02  0.822277D-01
      5  -0.930718D-01  0.357464D-02 -0.758399D-01  0.346501D+00 -0.426937D-01
      6   0.550730D-01 -0.297051D+00 -0.160566D+00 -0.286063D+00  0.135210D+00
      7   0.306547D-01 -0.107532D-01  0.782285D-01 -0.233556D-01 -0.269057D+00
      8  -0.170601D-01 -0.391994D-01 -0.398209D-01 -0.277324D-01 -0.525850D-01
      9   0.137134D-01  0.798245D-01 -0.448554D-01  0.225775D-01  0.552067D+00
     10   0.150071D+00 -0.465451D+00  0.309634D+00 -0.500010D-02  0.287471D+00
     11  -0.207203D+00 -0.133813D+00 -0.287003D+00 -0.130279D+00 -0.424586D+00
     12  -0.116873D+00  0.137146D+00  0.371070D+00 -0.270417D+00 -0.147081D+00
     13   0.130598D+00  0.436994D-01 -0.163401D-01  0.454426D-01  0.196283D+00
     14   0.147915D+00 -0.344267D+00  0.562592D+00 -0.506771D+00  0.172089D+00
     15  -0.694765D-01 -0.886951D-01  0.501273D-01 -0.351884D-02 -0.488716D+00
     16   0.820544D-02 -0.358274D-01 -0.145811D+00  0.150276D+00 -0.148203D+00
               696           697           698           699           700 
      1  -0.146064D+03 -0.146034D+03 -0.146028D+03 -0.146024D+03 -0.146012D+03
      2  -0.550144D-01 -0.855667D-01 -0.541413D-02 -0.155826D-01  0.798339D-01
      3  -0.144801D-01  0.110485D-01  0.256049D-01  0.262248D-01 -0.181580D-01
      4  -0.621931D-01  0.855868D-02 -0.977813D-03  0.764725D-02 -0.924576D-02
      5   0.171574D+00  0.296465D+00  0.260065D-02  0.537518D-01 -0.293969D+00
      6   0.474446D-01 -0.258610D-01 -0.890230D-01 -0.814039D-01  0.660460D-01
      7   0.197723D+00 -0.218684D-01  0.123329D-02 -0.235216D-01  0.330987D-01
      8  -0.489057D-01  0.153999D-01  0.579833D-01  0.613792D-02  0.503665D-01
      9  -0.324193D+00 -0.162370D-01 -0.115895D+00  0.594436D-01 -0.137846D+00
     10   0.802669D-01  0.179363D+00 -0.306000D-01  0.224231D+00 -0.414925D-01
     11   0.635256D+00  0.560022D-01  0.104672D-01  0.273115D+00 -0.287688D+00
     12  -0.139798D-01  0.349212D+00  0.117093D+00 -0.697721D-01 -0.620013D+00
     13  -0.300080D-01  0.910488D-01 -0.195283D-01  0.466450D-01  0.931204D-01
     14   0.198594D+00  0.456883D-02 -0.602082D-01  0.315911D-01  0.621654D+00
     15   0.374463D+00 -0.307630D-01  0.180594D-01 -0.103706D+00  0.107961D+00
     16  -0.360401D-01 -0.227175D-01  0.290018D-01  0.179020D-01  0.331776D-02
               701           702           703           704           705 
      1  -0.146009D+03 -0.145985D+03 -0.145979D+03 -0.145973D+03 -0.145924D+03
      2  -0.384206D-01 -0.120891D-01 -0.434667D-01 -0.973424D-02 -0.260038D-01
      3   0.758241D-01  0.404476D-01 -0.240739D-01 -0.172196D-01 -0.270252D-01
      4   0.160960D-01 -0.687815D-03 -0.341806D-01 -0.354504D-02  0.292755D-01
      5   0.138401D+00  0.532592D-01  0.165210D+00  0.429602D-01  0.800475D-01
      6  -0.244026D+00 -0.122873D+00  0.950146D-01  0.388030D-01  0.948319D-01
      7  -0.582629D-01  0.261992D-03  0.124872D+00  0.100404D-01 -0.948922D-01
      8  -0.235349D-01  0.858197D-02  0.330121D-01  0.571867D-01  0.159793D+00
      9   0.104042D+00 -0.575836D-02 -0.302840D+00 -0.111719D+00 -0.879563D-01
     10  -0.306413D+00  0.183335D+00 -0.247264D+00  0.107367D-01  0.103257D+00
     11   0.114607D+00  0.120235D+00  0.235928D+00 -0.371186D+00  0.437190D+00
     12   0.264228D+00  0.180465D+00  0.363305D-01  0.109788D+00 -0.859945D-01
     13  -0.429867D-01 -0.811766D-01 -0.792493D-02  0.537205D-01 -0.186405D-01
     14  -0.683666D+00  0.137015D+00  0.414264D-01 -0.356395D+00  0.200694D+00
     15  -0.147672D+00 -0.343405D-02  0.140192D+00  0.143314D+00  0.238373D+00
     16  -0.204710D-01  0.609550D-02 -0.380004D-01  0.753775D-01  0.205203D+00
               706           707           708           709           710 
      1  -0.145899D+03 -0.145893D+03 -0.145868D+03 -0.145848D+03 -0.145838D+03
      2  -0.206197D-01 -0.417479D-01  0.787921D-01 -0.604596D-02 -0.120053D-01
      3  -0.207119D-02  0.764509D-01  0.524157D-01  0.554418D-01 -0.421331D-03
      4   0.140646D-02 -0.136993D-01  0.680936D-01  0.365298D-02 -0.347101D-01
      5   0.673286D-01  0.144151D+00 -0.276150D+00  0.394200D-01  0.587297D-01
      6  -0.210486D-02 -0.284704D+00 -0.194048D+00 -0.171647D+00 -0.758586D-02
      7  -0.324192D-02  0.469959D-01 -0.232076D+00 -0.122011D-01  0.116704D+00
      8  -0.321828D-01  0.227932D-01 -0.117128D+00 -0.364215D-01  0.161240D-01
      9  -0.479567D-01 -0.142083D+00  0.528744D+00  0.955871D-01 -0.219562D+00
     10  -0.559608D+00 -0.109614D+00 -0.389169D+00  0.111886D+00 -0.937875D-01
     11   0.858260D+00 -0.244248D+00 -0.940547D+00  0.494920D+00  0.322675D+00
     12  -0.383336D+00  0.210050D+00 -0.155252D-01  0.237459D+00 -0.414078D-01
     13   0.131541D-01 -0.333018D-01  0.607675D-01 -0.724686D-01  0.846695D-01
     14  -0.383443D+00 -0.691945D-01 -0.542449D+00 -0.657202D-01 -0.229556D+00
     15  -0.488053D-01  0.137267D+00 -0.353778D+00 -0.121322D+00  0.147090D+00
     16   0.788242D-01  0.888315D-01  0.609314D-02 -0.514757D-02  0.414686D-01
               711           712           713           714           715 
      1  -0.145808D+03 -0.145805D+03 -0.145795D+03 -0.145780D+03 -0.145712D+03
      2   0.365131D-01  0.943905D-01 -0.328968D-02  0.184255D-01 -0.998923D-01
      3  -0.169607D-01  0.717046D-01 -0.781698D-02 -0.482900D-01 -0.588373D-01
      4  -0.322594D-01 -0.100023D-01 -0.312782D-01  0.797702D-02  0.170296D-01
      5  -0.127491D+00 -0.350408D+00  0.381100D-01 -0.679348D-01  0.395411D+00
      6   0.597325D-01 -0.246834D+00  0.534316D-01  0.164829D+00  0.231418D+00
      7   0.111434D+00  0.358760D-01  0.103478D+00 -0.280067D-01 -0.638974D-01
      8   0.525184D-01 -0.192425D-01  0.391246D-01  0.316910D-01  0.113510D-01
      9  -0.267505D+00 -0.347713D-01 -0.221995D+00  0.825290D-01  0.927503D-01
     10   0.147332D+00 -0.594522D+00  0.225187D+00  0.759852D+00  0.380477D+00
     11   0.166056D-01 -0.887825D+00  0.250947D+00 -0.993298D+00  0.107851D+01
     12   0.256166D+00  0.366531D+00 -0.205971D+00  0.443949D+00 -0.227197D+00
     13  -0.817554D-01 -0.266613D-01  0.114014D+00 -0.678639D-02 -0.260483D-01
     14   0.923381D-01 -0.162680D+00  0.234473D+00  0.397284D+00  0.372817D+00
     15   0.293213D+00  0.127535D+00  0.176772D+00  0.726376D-01 -0.246369D+00
     16  -0.141902D-01  0.473271D-01 -0.153925D-01 -0.150398D+00 -0.567191D-01
               716           717           718           719           720 
      1  -0.145665D+03 -0.145628D+03 -0.145539D+03 -0.145451D+03 -0.145363D+03
      2  -0.573134D-01  0.166640D-02 -0.893870D-02 -0.391013D-02 -0.190839D-01
      3   0.555128D-01  0.164574D-01  0.173643D-02  0.368844D-01  0.448528D-02
      4  -0.126825D-01 -0.345301D-02  0.441130D-02  0.360353D-02 -0.654002D-02
      5   0.177531D+00 -0.229837D-01  0.151023D-01  0.432738D-01  0.806254D-03
      6  -0.186767D+00 -0.462451D-01 -0.223800D-01 -0.118551D+00 -0.421118D-01
      7   0.428831D-01  0.962146D-02 -0.122608D-01 -0.166163D-01  0.279788D-01
      8   0.949261D-02 -0.327219D-01 -0.100891D-01 -0.123985D-01 -0.511659D-02
      9  -0.113948D+00  0.308214D-01  0.230687D-01 -0.477681D-02 -0.421597D-01
     10  -0.165502D+00 -0.282883D+00 -0.137388D+00 -0.373442D+00 -0.600103D-01
     11  -0.146675D-01 -0.552232D+00  0.609297D+00  0.504338D+00  0.294226D+00
     12   0.219801D+00 -0.150090D+00  0.494987D+00 -0.164799D+00 -0.143903D+00
     13  -0.467497D-01  0.186571D-01 -0.877278D-01  0.279678D-01  0.224682D-01
     14  -0.262596D+00 -0.160375D+00  0.261306D+00 -0.299739D+00  0.514773D-01
     15   0.491758D-01 -0.192280D-01 -0.112835D+00 -0.611744D-01 -0.758949D-02
     16   0.950746D-01  0.611386D-01 -0.504842D-01  0.143220D+00  0.210081D-01
 Unable to Open any file for archive entry.
 1\1\GINC-HEL13\SP\RBLYP TD-FC\Gen\C1H4N2\SABYASACHI\21-Mar-2022\0\\#P 
 TD(Nstates=10000) blyp/Gen SCF(maxcycles=100) Int(Grid=ultrafine)\\xGD
 B7_00001_tier4.com\\0,1\N,0,1.106441,0.142513,-0.090982\N,0,-0.080753,
 -0.51252,0.006066\C,0,-1.148696,0.167456,0.008166\H,0,1.854749,-0.4099
 16,0.291533\H,0,1.109677,1.100453,0.242713\H,0,-2.089851,-0.366199,0.0
 35249\H,0,-1.162208,1.260974,-0.02408\\Version=EM64L-G16RevC.01\State=
 1-A\HF=-149.8147454\RMSD=3.544e-09\PG=C01 [X(C1H4N2)]\\@
 The archive entry for this job was punched.


 CHARLIE BROWN -- WHICH DO YOU THINK LASTS LONGER IN LIFE, THE GOOD THINGS 
                  OR THE BAD THINGS?
 LINUS --         GOOD THINGS LAST EIGHT SECONDS ..
                  BAD THINGS LAST THREE WEEKS
 CHARLIE BROWN -- WHAT ABOUT IN BETWEEN?
 SNOOPY --        IN BETWEEN YOU SHOULD TAKE A NAP ...
 Job cpu time:       0 days  0 hours 10 minutes 24.1 seconds.
 Elapsed time:       0 days  0 hours  1 minutes 18.4 seconds.
 File lengths (MBytes):  RWF=    259 Int=      0 D2E=      0 Chk=    150 Scr=      1
 Normal termination of Gaussian 16 at Mon Mar 21 04:02:00 2022.
