 Entering Gaussian System, Link 0=g16
 Input=000029.com
 Output=000029.log
 Initial command:
 /home/sabyasachi/g16/l1.exe "/scratch/sabyasachi/PBS_7975932.helios/Gau-153469.inp" -scrdir="/scratch/sabyasachi/PBS_7975932.helios/"
 Entering Link 1 = /home/sabyasachi/g16/l1.exe PID=    153470.
  
 Copyright (c) 1988-2019, Gaussian, Inc.  All Rights Reserved.
  
 This is part of the Gaussian(R) 16 program.  It is based on
 the Gaussian(R) 09 system (copyright 2009, Gaussian, Inc.),
 the Gaussian(R) 03 system (copyright 2003, Gaussian, Inc.),
 the Gaussian(R) 98 system (copyright 1998, Gaussian, Inc.),
 the Gaussian(R) 94 system (copyright 1995, Gaussian, Inc.),
 the Gaussian 92(TM) system (copyright 1992, Gaussian, Inc.),
 the Gaussian 90(TM) system (copyright 1990, Gaussian, Inc.),
 the Gaussian 88(TM) system (copyright 1988, Gaussian, Inc.),
 the Gaussian 86(TM) system (copyright 1986, Carnegie Mellon
 University), and the Gaussian 82(TM) system (copyright 1983,
 Carnegie Mellon University). Gaussian is a federally registered
 trademark of Gaussian, Inc.
  
 This software contains proprietary and confidential information,
 including trade secrets, belonging to Gaussian, Inc.
  
 This software is provided under written license and may be
 used, copied, transmitted, or stored only in accord with that
 written license.
  
 The following legend is applicable only to US Government
 contracts under FAR:
  
                    RESTRICTED RIGHTS LEGEND
  
 Use, reproduction and disclosure by the US Government is
 subject to restrictions as set forth in subparagraphs (a)
 and (c) of the Commercial Computer Software - Restricted
 Rights clause in FAR 52.227-19.
  
 Gaussian, Inc.
 340 Quinnipiac St., Bldg. 40, Wallingford CT 06492
  
  
 ---------------------------------------------------------------
 Warning -- This program may not be used in any manner that
 competes with the business of Gaussian, Inc. or will provide
 assistance to any competitor of Gaussian, Inc.  The licensee
 of this program is prohibited from giving any competitor of
 Gaussian, Inc. access to this program.  By using this program,
 the user acknowledges that Gaussian, Inc. is engaged in the
 business of creating and licensing software in the field of
 computational chemistry and represents and warrants to the
 licensee that it is not a competitor of Gaussian, Inc. and that
 it will not use this program in any manner prohibited above.
 ---------------------------------------------------------------
  

 Cite this work as:
 Gaussian 16, Revision C.01,
 M. J. Frisch, G. W. Trucks, H. B. Schlegel, G. E. Scuseria, 
 M. A. Robb, J. R. Cheeseman, G. Scalmani, V. Barone, 
 G. A. Petersson, H. Nakatsuji, X. Li, M. Caricato, A. V. Marenich, 
 J. Bloino, B. G. Janesko, R. Gomperts, B. Mennucci, H. P. Hratchian, 
 J. V. Ortiz, A. F. Izmaylov, J. L. Sonnenberg, D. Williams-Young, 
 F. Ding, F. Lipparini, F. Egidi, J. Goings, B. Peng, A. Petrone, 
 T. Henderson, D. Ranasinghe, V. G. Zakrzewski, J. Gao, N. Rega, 
 G. Zheng, W. Liang, M. Hada, M. Ehara, K. Toyota, R. Fukuda, 
 J. Hasegawa, M. Ishida, T. Nakajima, Y. Honda, O. Kitao, H. Nakai, 
 T. Vreven, K. Throssell, J. A. Montgomery, Jr., J. E. Peralta, 
 F. Ogliaro, M. J. Bearpark, J. J. Heyd, E. N. Brothers, K. N. Kudin, 
 V. N. Staroverov, T. A. Keith, R. Kobayashi, J. Normand, 
 K. Raghavachari, A. P. Rendell, J. C. Burant, S. S. Iyengar, 
 J. Tomasi, M. Cossi, J. M. Millam, M. Klene, C. Adamo, R. Cammi, 
 J. W. Ochterski, R. L. Martin, K. Morokuma, O. Farkas, 
 J. B. Foresman, and D. J. Fox, Gaussian, Inc., Wallingford CT, 2019.
 
 ******************************************
 Gaussian 16:  EM64L-G16RevC.01  3-Jul-2019
                21-Mar-2022 
 ******************************************
 %mem=64gb
 %nproc=8
 Will use up to    8 processors via shared memory.
 --------------------------------------------------------------------
 #P TD(Nstates=10000) blyp/Gen SCF(maxcycles=100) Int(Grid=ultrafine)
 --------------------------------------------------------------------
 1/38=1,172=1/1;
 2/12=2,17=6,18=5,40=1/2;
 3/5=7,11=9,25=1,30=1,74=402,75=-5/1,2,3,8;
 4//1;
 5/5=2,7=100,38=5/2;
 8/6=1,10=1,108=10000/1;
 9/41=10000,42=1,70=2/14;
 6/7=2,8=2,9=2,10=2/1;
 99/5=1,9=1/99;
 Leave Link    1 at Mon Mar 21 20:06:38 2022, MaxMem=  8589934592 cpu:               0.3 elap:               0.0
 (Enter /home/sabyasachi/g16/l101.exe)
 ---------------------
 xGDB7_00001_tier4.com
 ---------------------
 Symbolic Z-matrix:
 Charge =  0 Multiplicity = 1
 8                    -1.02862  -0.39518   0. 
 7                     0.        0.52623   0. 
 6                     1.13275  -0.03091   0. 
 1                    -1.81657   0.15179   0. 
 1                     1.99426   0.62344   0. 
 1                     1.2548   -1.11197   0. 
 
 ITRead=  0  0  0  0  0  0
 MicOpt= -1 -1 -1 -1 -1 -1
 NAtoms=      6 NQM=        6 NQMF=       0 NMMI=      0 NMMIF=      0
                NMic=       0 NMicF=      0.
                    Isotopes and Nuclear Properties:
 (Nuclear quadrupole moments (NQMom) in fm**2, nuclear magnetic moments (NMagM)
  in nuclear magnetons)

  Atom         1           2           3           4           5           6
 IAtWgt=          16          14          12           1           1           1
 AtmWgt=  15.9949146  14.0030740  12.0000000   1.0078250   1.0078250   1.0078250
 NucSpn=           0           2           0           1           1           1
 AtZEff=  -0.0000000  -0.0000000  -0.0000000  -0.0000000  -0.0000000  -0.0000000
 NQMom=    0.0000000   2.0440000   0.0000000   0.0000000   0.0000000   0.0000000
 NMagM=    0.0000000   0.4037610   0.0000000   2.7928460   2.7928460   2.7928460
 AtZNuc=   8.0000000   7.0000000   6.0000000   1.0000000   1.0000000   1.0000000
 Leave Link  101 at Mon Mar 21 20:06:38 2022, MaxMem=  8589934592 cpu:               0.6 elap:               0.1
 (Enter /home/sabyasachi/g16/l202.exe)
                          Input orientation:                          
 ---------------------------------------------------------------------
 Center     Atomic      Atomic             Coordinates (Angstroms)
 Number     Number       Type             X           Y           Z
 ---------------------------------------------------------------------
      1          8           0       -1.028621   -0.395177    0.000000
      2          7           0        0.000000    0.526228    0.000000
      3          6           0        1.132746   -0.030907    0.000000
      4          1           0       -1.816572    0.151791    0.000000
      5          1           0        1.994262    0.623439    0.000000
      6          1           0        1.254802   -1.111965    0.000000
 ---------------------------------------------------------------------
                    Distance matrix (angstroms):
                    1          2          3          4          5
     1  O    0.000000
     2  N    1.380959   0.000000
     3  C    2.191849   1.262344   0.000000
     4  H    0.959188   1.854761   2.954971   0.000000
     5  H    3.189890   1.996630   1.081840   3.839910   0.000000
     6  H    2.393283   2.063542   1.087926   3.321207   1.886380
                    6
     6  H    0.000000
 Stoichiometry    CH3NO
 Framework group  CS[SG(CH3NO)]
 Deg. of freedom     9
 Full point group                 CS      NOp   2
 Largest Abelian subgroup         CS      NOp   2
 Largest concise Abelian subgroup C1      NOp   1
                         Standard orientation:                         
 ---------------------------------------------------------------------
 Center     Atomic      Atomic             Coordinates (Angstroms)
 Number     Number       Type             X           Y           Z
 ---------------------------------------------------------------------
      1          8           0       -1.028621   -0.395177   -0.000000
      2          7           0       -0.000000    0.526228   -0.000000
      3          6           0        1.132746   -0.030907    0.000000
      4          1           0       -1.816572    0.151791   -0.000000
      5          1           0        1.994262    0.623439    0.000000
      6          1           0        1.254802   -1.111965    0.000000
 ---------------------------------------------------------------------
 Rotational constants (GHZ):          71.1254820          11.9936263          10.2630126
 Leave Link  202 at Mon Mar 21 20:06:38 2022, MaxMem=  8589934592 cpu:               0.1 elap:               0.0
 (Enter /home/sabyasachi/g16/l301.exe)
 General basis read from cards:  (5D, 7F)
 Centers:       4      5      6
 S 3 1.00
     Exponent=  1.3010701000D+01 Coefficients=  1.9682158000D-02
     Exponent=  1.9622572000D+00 Coefficients=  1.3796524000D-01
     Exponent=  4.4453796000D-01 Coefficients=  4.7831935000D-01
 S 1 1.00
     Exponent=  1.2194962000D-01 Coefficients=  1.0000000000D+00
 P 1 1.00
     Exponent=  8.0000000000D-01 Coefficients=  1.0000000000D+00
 P 1 1.00
     Exponent=  1.1704099050D-01 Coefficients=  1.0000000000D+00
 ****
 Centers:       3
 S 5 1.00
     Exponent=  1.2384016938D+03 Coefficients=  5.4568832082D-03
     Exponent=  1.8629004992D+02 Coefficients=  4.0638409211D-02
     Exponent=  4.2251176346D+01 Coefficients=  1.8025593888D-01
     Exponent=  1.1676557932D+01 Coefficients=  4.6315121755D-01
     Exponent=  3.5930506482D+00 Coefficients=  4.4087173314D-01
 S 1 1.00
     Exponent=  4.0245147363D-01 Coefficients=  1.0000000000D+00
 S 1 1.00
     Exponent=  1.3090182668D-01 Coefficients=  1.0000000000D+00
 S 1 1.00
     Exponent=  6.7053540256D-02 Coefficients=  1.0000000000D+00
 P 3 1.00
     Exponent=  9.4680970621D+00 Coefficients=  3.8387871728D-02
     Exponent=  2.0103545142D+00 Coefficients=  2.1117025112D-01
     Exponent=  5.4771004707D-01 Coefficients=  5.1328172114D-01
 P 1 1.00
     Exponent=  1.5268613795D-01 Coefficients=  1.0000000000D+00
 D 1 1.00
     Exponent=  8.0000000000D-01 Coefficients=  1.0000000000D+00
 D 1 1.00
     Exponent=  1.1713185140D-01 Coefficients=  1.0000000000D+00
 ****
 Centers:       2
 S 5 1.00
     Exponent=  1.7128415853D+03 Coefficients= -5.3934125305D-03
     Exponent=  2.5764812677D+02 Coefficients= -4.0221581118D-02
     Exponent=  5.8458245853D+01 Coefficients= -1.7931144990D-01
     Exponent=  1.6198367905D+01 Coefficients= -4.6376317823D-01
     Exponent=  5.0052600809D+00 Coefficients= -4.4171422662D-01
 S 1 1.00
     Exponent=  5.8731856571D-01 Coefficients=  1.0000000000D+00
 S 1 1.00
     Exponent=  1.8764592253D-01 Coefficients=  1.0000000000D+00
 S 1 1.00
     Exponent=  9.6171241529D-02 Coefficients=  1.0000000000D+00
 P 3 1.00
     Exponent=  1.3571470233D+01 Coefficients= -4.0072398852D-02
     Exponent=  2.9257372874D+00 Coefficients= -2.1807045028D-01
     Exponent=  7.9927750754D-01 Coefficients= -5.1294466049D-01
 P 1 1.00
     Exponent=  2.1954348034D-01 Coefficients=  1.0000000000D+00
 D 1 1.00
     Exponent=  1.0000000000D+00 Coefficients=  1.0000000000D+00
 D 1 1.00
     Exponent=  1.6697708112D-01 Coefficients=  1.0000000000D+00
 ****
 Centers:       1
 S 5 1.00
     Exponent=  2.2661767785D+03 Coefficients= -5.3431809926D-03
     Exponent=  3.4087010191D+02 Coefficients= -3.9890039230D-02
     Exponent=  7.7363135167D+01 Coefficients= -1.7853911985D-01
     Exponent=  2.1479644940D+01 Coefficients= -4.6427684959D-01
     Exponent=  6.6589433124D+00 Coefficients= -4.4309745172D-01
 S 1 1.00
     Exponent=  8.0975975668D-01 Coefficients=  1.0000000000D+00
 S 1 1.00
     Exponent=  2.5530772234D-01 Coefficients=  1.0000000000D+00
 S 1 1.00
     Exponent=  7.6572453250D-02 Coefficients=  1.0000000000D+00
 P 3 1.00
     Exponent=  1.7721504317D+01 Coefficients=  4.3394573193D-02
     Exponent=  3.8635505440D+00 Coefficients=  2.3094120765D-01
     Exponent=  1.0480920883D+00 Coefficients=  5.1375311064D-01
 P 1 1.00
     Exponent=  2.7641544411D-01 Coefficients=  1.0000000000D+00
 P 1 1.00
     Exponent=  6.9002276350D-02 Coefficients=  1.0000000000D+00
 D 1 1.00
     Exponent=  1.2000000000D+00 Coefficients=  1.0000000000D+00
 D 1 1.00
     Exponent=  1.7992024323D-01 Coefficients=  1.0000000000D+00
 ****
 Ernie: Thresh=  0.10000D-02 Tol=  0.10000D-05 Strict=F.
 There are    68 symmetry adapted cartesian basis functions of A'  symmetry.
 There are    25 symmetry adapted cartesian basis functions of A"  symmetry.
 There are    62 symmetry adapted basis functions of A'  symmetry.
 There are    25 symmetry adapted basis functions of A"  symmetry.
    87 basis functions,   129 primitive gaussians,    93 cartesian basis functions
    12 alpha electrons       12 beta electrons
       nuclear repulsion energy        71.3165683749 Hartrees.
 IExCor=  402 DFT=T Ex=B Corr=LYP ExCW=0 ScaHFX=  0.000000
 ScaDFX=  1.000000  1.000000  1.000000  1.000000 ScalE2=  1.000000  1.000000
 IRadAn=      5 IRanWt=     -1 IRanGd=            0 ICorTp=0 IEmpDi=  4
 NAtoms=    6 NActive=    6 NUniq=    6 SFac= 1.00D+00 NAtFMM=   60 NAOKFM=F Big=F
 Integral buffers will be    131072 words long.
 Regular integral format.
 Two-electron integral symmetry is turned on.
 Leave Link  301 at Mon Mar 21 20:06:38 2022, MaxMem=  8589934592 cpu:               0.6 elap:               0.1
 (Enter /home/sabyasachi/g16/l302.exe)
 NPDir=0 NMtPBC=     1 NCelOv=     1 NCel=       1 NClECP=     1 NCelD=      1
         NCelK=      1 NCelE2=     1 NClLst=     1 CellRange=     0.0.
 One-electron integrals computed using PRISM.
 One-electron integral symmetry used in STVInt
 NBasis=    87 RedAO= T EigKep=  4.94D-04  NBF=    62    25
 NBsUse=    87 1.00D-06 EigRej= -1.00D+00 NBFU=    62    25
 Precomputing XC quadrature grid using
 IXCGrd= 4 IRadAn=           5 IRanWt=          -1 IRanGd=           0 AccXCQ= 0.00D+00.
 Generated NRdTot=       0 NPtTot=           0 NUsed=           0 NTot=          32
 NSgBfM=    93    93    93    93    93 MxSgAt=     6 MxSgA2=     6.
 Leave Link  302 at Mon Mar 21 20:06:38 2022, MaxMem=  8589934592 cpu:               0.9 elap:               0.1
 (Enter /home/sabyasachi/g16/l303.exe)
 DipDrv:  MaxL=1.
 Leave Link  303 at Mon Mar 21 20:06:38 2022, MaxMem=  8589934592 cpu:               0.2 elap:               0.0
 (Enter /home/sabyasachi/g16/l308.exe)
 Leave Link  308 at Mon Mar 21 20:06:38 2022, MaxMem=  8589934592 cpu:               0.2 elap:               0.1
 (Enter /home/sabyasachi/g16/l401.exe)
 ExpMin= 6.71D-02 ExpMax= 2.27D+03 ExpMxC= 3.41D+02 IAcc=3 IRadAn=         5 AccDes= 0.00D+00
 Harris functional with IExCor=  402 and IRadAn=       5 diagonalized for initial guess.
 HarFok:  IExCor=  402 AccDes= 0.00D+00 IRadAn=         5 IDoV= 1 UseB2=F ITyADJ=14
 ICtDFT=  3500011 ScaDFX=  1.000000  1.000000  1.000000  1.000000
 FoFCou: FMM=F IPFlag=           0 FMFlag=      100000 FMFlg1=           0
         NFxFlg=           0 DoJE=T BraDBF=F KetDBF=T FulRan=T
         wScrn=  0.000000 ICntrl=       500 IOpCl=  0 I1Cent=   200000004 NGrid=           0
         NMat0=    1 NMatS0=      1 NMatT0=    0 NMatD0=    1 NMtDS0=    0 NMtDT0=    0
 Petite list used in FoFCou.
 Harris En= -169.699537708382    
 JPrj=0 DoOrth=F DoCkMO=F.
 Initial guess orbital symmetries:
       Occupied  (A') (A') (A') (A') (A') (A') (A') (A') (A') (A")
                 (A') (A")
       Virtual   (A") (A') (A') (A') (A') (A") (A') (A') (A') (A")
                 (A') (A") (A') (A') (A") (A') (A') (A") (A') (A')
                 (A') (A') (A") (A') (A') (A") (A') (A') (A') (A')
                 (A") (A') (A") (A') (A") (A") (A') (A') (A') (A')
                 (A') (A") (A') (A') (A') (A") (A') (A") (A') (A')
                 (A") (A') (A') (A') (A") (A') (A") (A') (A') (A')
                 (A") (A') (A") (A') (A') (A') (A") (A') (A") (A')
                 (A") (A') (A') (A') (A')
 The electronic state of the initial guess is 1-A'.
 Leave Link  401 at Mon Mar 21 20:06:39 2022, MaxMem=  8589934592 cpu:               1.8 elap:               0.2
 (Enter /home/sabyasachi/g16/l502.exe)
 Keep J ints in memory in symmetry-blocked form, NReq=14685034.
 FoFCou: FMM=F IPFlag=           0 FMFlag=           0 FMFlg1=           0
         NFxFlg=           0 DoJE=F BraDBF=F KetDBF=F FulRan=T
         wScrn=  0.000000 ICntrl=       600 IOpCl=  0 I1Cent=           0 NGrid=           0
         NMat0=    1 NMatS0=   3828 NMatT0=    0 NMatD0=    1 NMtDS0=    0 NMtDT0=    0
 Petite list used in FoFCou.
 Closed shell SCF:
 Using DIIS extrapolation, IDIIS=  1040.
 NGot=  8589934592 LenX=  8586108576 LenY=  8586099486
 Requested convergence on RMS density matrix=1.00D-08 within 100 cycles.
 Requested convergence on MAX density matrix=1.00D-06.
 Requested convergence on             energy=1.00D-06.
 No special actions if energy rises.
 Integral accuracy reduced to 1.0D-05 until final iterations.

 Cycle   1  Pass 0  IDiag  1:
 E= -169.610234284949    
 DIIS: error= 2.01D-02 at cycle   1 NSaved=   1.
 NSaved= 1 IEnMin= 1 EnMin= -169.610234284949     IErMin= 1 ErrMin= 2.01D-02
 ErrMax= 2.01D-02  0.00D+00 EMaxC= 1.00D-01 BMatC= 5.42D-02 BMatP= 5.42D-02
 IDIUse=3 WtCom= 7.99D-01 WtEn= 2.01D-01
 Coeff-Com:  0.100D+01
 Coeff-En:   0.100D+01
 Coeff:      0.100D+01
 Gap=     0.165 Goal=   None    Shift=    0.000
 GapD=    0.165 DampG=1.000 DampE=0.500 DampFc=0.5000 IDamp=-1.
 Damping current iteration by 5.00D-01
 RMSDP=6.92D-03 MaxDP=1.41D-01              OVMax= 1.51D-01

 Cycle   2  Pass 0  IDiag  1:
 E= -169.621975768498     Delta-E=       -0.011741483549 Rises=F Damp=T
 DIIS: error= 8.42D-03 at cycle   2 NSaved=   2.
 NSaved= 2 IEnMin= 2 EnMin= -169.621975768498     IErMin= 2 ErrMin= 8.42D-03
 ErrMax= 8.42D-03  0.00D+00 EMaxC= 1.00D-01 BMatC= 1.01D-02 BMatP= 5.42D-02
 IDIUse=3 WtCom= 9.16D-01 WtEn= 8.42D-02
 Coeff-Com:  0.258D+00 0.742D+00
 Coeff-En:   0.385D+00 0.615D+00
 Coeff:      0.268D+00 0.732D+00
 Gap=     0.185 Goal=   None    Shift=    0.000
 RMSDP=2.56D-03 MaxDP=5.82D-02 DE=-1.17D-02 OVMax= 1.42D-01

 Cycle   3  Pass 0  IDiag  1:
 E= -169.652479983834     Delta-E=       -0.030504215336 Rises=F Damp=F
 DIIS: error= 1.32D-02 at cycle   3 NSaved=   3.
 NSaved= 3 IEnMin= 3 EnMin= -169.652479983834     IErMin= 2 ErrMin= 8.42D-03
 ErrMax= 1.32D-02  0.00D+00 EMaxC= 1.00D-01 BMatC= 1.01D-02 BMatP= 1.01D-02
 IDIUse=3 WtCom= 8.68D-01 WtEn= 1.32D-01
 Coeff-Com:  0.109D+00 0.499D+00 0.392D+00
 Coeff-En:   0.000D+00 0.000D+00 0.100D+01
 Coeff:      0.944D-01 0.433D+00 0.473D+00
 Gap=     0.185 Goal=   None    Shift=    0.000
 RMSDP=1.91D-03 MaxDP=4.76D-02 DE=-3.05D-02 OVMax= 5.19D-02

 Cycle   4  Pass 0  IDiag  1:
 E= -169.659039591944     Delta-E=       -0.006559608109 Rises=F Damp=F
 DIIS: error= 7.09D-03 at cycle   4 NSaved=   4.
 NSaved= 4 IEnMin= 4 EnMin= -169.659039591944     IErMin= 4 ErrMin= 7.09D-03
 ErrMax= 7.09D-03  0.00D+00 EMaxC= 1.00D-01 BMatC= 3.06D-03 BMatP= 1.01D-02
 IDIUse=3 WtCom= 9.29D-01 WtEn= 7.09D-02
 Coeff-Com:  0.472D-01 0.185D+00 0.340D+00 0.428D+00
 Coeff-En:   0.000D+00 0.000D+00 0.287D+00 0.713D+00
 Coeff:      0.439D-01 0.172D+00 0.336D+00 0.448D+00
 Gap=     0.186 Goal=   None    Shift=    0.000
 RMSDP=6.88D-04 MaxDP=1.81D-02 DE=-6.56D-03 OVMax= 2.84D-02

 Cycle   5  Pass 0  IDiag  1:
 E= -169.661597379094     Delta-E=       -0.002557787151 Rises=F Damp=F
 DIIS: error= 1.69D-03 at cycle   5 NSaved=   5.
 NSaved= 5 IEnMin= 5 EnMin= -169.661597379094     IErMin= 5 ErrMin= 1.69D-03
 ErrMax= 1.69D-03  0.00D+00 EMaxC= 1.00D-01 BMatC= 2.52D-04 BMatP= 3.06D-03
 IDIUse=3 WtCom= 9.83D-01 WtEn= 1.69D-02
 Coeff-Com:  0.237D-01 0.814D-01 0.211D+00 0.333D+00 0.351D+00
 Coeff-En:   0.000D+00 0.000D+00 0.000D+00 0.470D-01 0.953D+00
 Coeff:      0.233D-01 0.800D-01 0.208D+00 0.328D+00 0.361D+00
 Gap=     0.188 Goal=   None    Shift=    0.000
 RMSDP=1.85D-04 MaxDP=4.78D-03 DE=-2.56D-03 OVMax= 1.04D-02

 Cycle   6  Pass 0  IDiag  1:
 E= -169.661817479962     Delta-E=       -0.000220100868 Rises=F Damp=F
 DIIS: error= 4.06D-04 at cycle   6 NSaved=   6.
 NSaved= 6 IEnMin= 6 EnMin= -169.661817479962     IErMin= 6 ErrMin= 4.06D-04
 ErrMax= 4.06D-04  0.00D+00 EMaxC= 1.00D-01 BMatC= 1.56D-05 BMatP= 2.52D-04
 IDIUse=3 WtCom= 9.96D-01 WtEn= 4.06D-03
 Coeff-Com:  0.415D-02 0.801D-02 0.526D-01 0.103D+00 0.234D+00 0.599D+00
 Coeff-En:   0.000D+00 0.000D+00 0.000D+00 0.000D+00 0.783D-01 0.922D+00
 Coeff:      0.413D-02 0.798D-02 0.524D-01 0.102D+00 0.233D+00 0.600D+00
 Gap=     0.187 Goal=   None    Shift=    0.000
 RMSDP=4.21D-05 MaxDP=1.02D-03 DE=-2.20D-04 OVMax= 2.07D-03

 Cycle   7  Pass 0  IDiag  1:
 E= -169.661832506438     Delta-E=       -0.000015026476 Rises=F Damp=F
 DIIS: error= 2.11D-05 at cycle   7 NSaved=   7.
 NSaved= 7 IEnMin= 7 EnMin= -169.661832506438     IErMin= 7 ErrMin= 2.11D-05
 ErrMax= 2.11D-05  0.00D+00 EMaxC= 1.00D-01 BMatC= 6.47D-08 BMatP= 1.56D-05
 IDIUse=1 WtCom= 1.00D+00 WtEn= 0.00D+00
 Coeff-Com:  0.661D-03-0.433D-05 0.961D-02 0.198D-01 0.588D-01 0.166D+00
 Coeff-Com:  0.745D+00
 Coeff:      0.661D-03-0.433D-05 0.961D-02 0.198D-01 0.588D-01 0.166D+00
 Coeff:      0.745D+00
 Gap=     0.187 Goal=   None    Shift=    0.000
 RMSDP=5.56D-06 MaxDP=1.05D-04 DE=-1.50D-05 OVMax= 9.02D-05

 Initial convergence to 1.0D-05 achieved.  Increase integral accuracy.
 Cycle   8  Pass 1  IDiag  1:
 E= -169.661828477410     Delta-E=        0.000004029029 Rises=F Damp=F
 DIIS: error= 4.67D-06 at cycle   1 NSaved=   1.
 NSaved= 1 IEnMin= 1 EnMin= -169.661828477410     IErMin= 1 ErrMin= 4.67D-06
 ErrMax= 4.67D-06  0.00D+00 EMaxC= 1.00D-01 BMatC= 3.31D-09 BMatP= 3.31D-09
 IDIUse=1 WtCom= 1.00D+00 WtEn= 0.00D+00
 Coeff-Com:  0.100D+01
 Coeff:      0.100D+01
 Gap=     0.187 Goal=   None    Shift=    0.000
 RMSDP=5.56D-06 MaxDP=1.05D-04 DE= 4.03D-06 OVMax= 1.10D-04

 Cycle   9  Pass 1  IDiag  1:
 E= -169.661828461267     Delta-E=        0.000000016142 Rises=F Damp=F
 DIIS: error= 1.41D-05 at cycle   2 NSaved=   2.
 NSaved= 2 IEnMin= 1 EnMin= -169.661828477410     IErMin= 1 ErrMin= 4.67D-06
 ErrMax= 1.41D-05  0.00D+00 EMaxC= 1.00D-01 BMatC= 2.01D-08 BMatP= 3.31D-09
 IDIUse=1 WtCom= 1.00D+00 WtEn= 0.00D+00
 Coeff-Com:  0.728D+00 0.272D+00
 Coeff:      0.728D+00 0.272D+00
 Gap=     0.187 Goal=   None    Shift=    0.000
 RMSDP=1.65D-06 MaxDP=4.48D-05 DE= 1.61D-08 OVMax= 8.66D-05

 Cycle  10  Pass 1  IDiag  1:
 E= -169.661828481293     Delta-E=       -0.000000020026 Rises=F Damp=F
 DIIS: error= 1.99D-06 at cycle   3 NSaved=   3.
 NSaved= 3 IEnMin= 3 EnMin= -169.661828481293     IErMin= 3 ErrMin= 1.99D-06
 ErrMax= 1.99D-06  0.00D+00 EMaxC= 1.00D-01 BMatC= 4.37D-10 BMatP= 3.31D-09
 IDIUse=1 WtCom= 1.00D+00 WtEn= 0.00D+00
 Coeff-Com:  0.263D+00 0.146D+00 0.591D+00
 Coeff:      0.263D+00 0.146D+00 0.591D+00
 Gap=     0.187 Goal=   None    Shift=    0.000
 RMSDP=3.55D-07 MaxDP=5.43D-06 DE=-2.00D-08 OVMax= 8.90D-06

 Cycle  11  Pass 1  IDiag  1:
 E= -169.661828481674     Delta-E=       -0.000000000381 Rises=F Damp=F
 DIIS: error= 7.85D-07 at cycle   4 NSaved=   4.
 NSaved= 4 IEnMin= 4 EnMin= -169.661828481674     IErMin= 4 ErrMin= 7.85D-07
 ErrMax= 7.85D-07  0.00D+00 EMaxC= 1.00D-01 BMatC= 4.28D-11 BMatP= 4.37D-10
 IDIUse=1 WtCom= 1.00D+00 WtEn= 0.00D+00
 Coeff-Com:  0.955D-01 0.602D-01 0.314D+00 0.530D+00
 Coeff:      0.955D-01 0.602D-01 0.314D+00 0.530D+00
 Gap=     0.187 Goal=   None    Shift=    0.000
 RMSDP=7.65D-08 MaxDP=2.06D-06 DE=-3.81D-10 OVMax= 2.31D-06

 Cycle  12  Pass 1  IDiag  1:
 E= -169.661828481696     Delta-E=       -0.000000000022 Rises=F Damp=F
 DIIS: error= 5.02D-07 at cycle   5 NSaved=   5.
 NSaved= 5 IEnMin= 5 EnMin= -169.661828481696     IErMin= 5 ErrMin= 5.02D-07
 ErrMax= 5.02D-07  0.00D+00 EMaxC= 1.00D-01 BMatC= 1.53D-11 BMatP= 4.28D-11
 IDIUse=1 WtCom= 1.00D+00 WtEn= 0.00D+00
 Coeff-Com:  0.188D-01 0.160D-01 0.114D+00 0.381D+00 0.470D+00
 Coeff:      0.188D-01 0.160D-01 0.114D+00 0.381D+00 0.470D+00
 Gap=     0.187 Goal=   None    Shift=    0.000
 RMSDP=3.76D-08 MaxDP=8.82D-07 DE=-2.23D-11 OVMax= 1.08D-06

 Cycle  13  Pass 1  IDiag  1:
 E= -169.661828481708     Delta-E=       -0.000000000011 Rises=F Damp=F
 DIIS: error= 8.81D-08 at cycle   6 NSaved=   6.
 NSaved= 6 IEnMin= 6 EnMin= -169.661828481708     IErMin= 6 ErrMin= 8.81D-08
 ErrMax= 8.81D-08  0.00D+00 EMaxC= 1.00D-01 BMatC= 1.19D-12 BMatP= 1.53D-11
 IDIUse=1 WtCom= 1.00D+00 WtEn= 0.00D+00
 Coeff-Com:  0.140D-02 0.382D-02 0.373D-01 0.179D+00 0.296D+00 0.483D+00
 Coeff:      0.140D-02 0.382D-02 0.373D-01 0.179D+00 0.296D+00 0.483D+00
 Gap=     0.187 Goal=   None    Shift=    0.000
 RMSDP=1.45D-08 MaxDP=2.34D-07 DE=-1.14D-11 OVMax= 2.92D-07

 Cycle  14  Pass 1  IDiag  1:
 E= -169.661828481709     Delta-E=       -0.000000000001 Rises=F Damp=F
 DIIS: error= 1.21D-08 at cycle   7 NSaved=   7.
 NSaved= 7 IEnMin= 7 EnMin= -169.661828481709     IErMin= 7 ErrMin= 1.21D-08
 ErrMax= 1.21D-08  0.00D+00 EMaxC= 1.00D-01 BMatC= 1.94D-14 BMatP= 1.19D-12
 IDIUse=1 WtCom= 1.00D+00 WtEn= 0.00D+00
 Coeff-Com: -0.271D-03 0.106D-02 0.987D-02 0.559D-01 0.976D-01 0.201D+00
 Coeff-Com:  0.635D+00
 Coeff:     -0.271D-03 0.106D-02 0.987D-02 0.559D-01 0.976D-01 0.201D+00
 Coeff:      0.635D+00
 Gap=     0.187 Goal=   None    Shift=    0.000
 RMSDP=1.95D-09 MaxDP=3.81D-08 DE=-1.42D-12 OVMax= 4.86D-08

 SCF Done:  E(RB-LYP) =  -169.661828482     A.U. after   14 cycles
            NFock= 14  Conv=0.20D-08     -V/T= 2.0078
 KE= 1.683465855062D+02 PE=-5.398759413338D+02 EE= 1.305509589709D+02
 Leave Link  502 at Mon Mar 21 20:06:40 2022, MaxMem=  8589934592 cpu:              10.0 elap:               1.3
 (Enter /home/sabyasachi/g16/l801.exe)
 DoSCS=F DFT=T ScalE2(SS,OS)=  1.000000  1.000000
 ExpMin= 6.71D-02 ExpMax= 2.27D+03 ExpMxC= 3.41D+02 IAcc=3 IRadAn=         5 AccDes= 0.00D+00
 HarFok:  IExCor=  205 AccDes= 0.00D+00 IRadAn=         5 IDoV=-2 UseB2=F ITyADJ=14
 ICtDFT= 12500011 ScaDFX=  1.000000  1.000000  1.000000  1.000000
 Largest valence mixing into a core orbital is  6.61D-05
 Largest core mixing into a valence orbital is  1.21D-05
 Range of M.O.s used for correlation:     4    87
 NBasis=    87 NAE=    12 NBE=    12 NFC=     3 NFV=     0
 NROrb=     84 NOA=     9 NOB=     9 NVA=    75 NVB=    75

 **** Warning!!: The largest alpha MO coefficient is  0.15713343D+02

 Leave Link  801 at Mon Mar 21 20:06:40 2022, MaxMem=  8589934592 cpu:               0.5 elap:               0.1
 (Enter /home/sabyasachi/g16/l914.exe)
 RHF ground state
 Keep J ints in memory in symmetry-blocked form, NReq=499028166.
 FoFCou: FMM=F IPFlag=           0 FMFlag=           0 FMFlg1=           0
         NFxFlg=           0 DoJE=F BraDBF=F KetDBF=F FulRan=T
         wScrn=  0.000000 ICntrl=       600 IOpCl=  0 I1Cent=           0 NGrid=           0
         NMat0=    1 NMatS0=   3828 NMatT0=    0 NMatD0=    1 NMtDS0=    0 NMtDT0=    0
 Petite list used in FoFCou.
 MDV=  8589934592 DFT=T DoStab=F Mixed=F DoRPA=T DoScal=T NonHer=F
 Making orbital integer symmetry assigments:
 Orbital symmetries:
       Occupied  (A') (A') (A') (A') (A') (A') (A') (A') (A") (A')
                 (A') (A")
       Virtual   (A") (A') (A') (A') (A') (A") (A') (A') (A') (A")
                 (A") (A') (A') (A') (A") (A') (A') (A") (A') (A')
                 (A') (A') (A") (A') (A") (A') (A') (A') (A') (A')
                 (A") (A') (A") (A') (A") (A") (A') (A') (A') (A')
                 (A') (A') (A") (A') (A') (A") (A') (A") (A') (A')
                 (A") (A') (A') (A') (A") (A') (A") (A') (A') (A')
                 (A") (A') (A") (A') (A') (A') (A") (A') (A") (A")
                 (A') (A') (A') (A') (A')
   675 initial guesses have been made.
 Convergence on wavefunction:    0.001000000000000
 Davidson Disk Diagonalization:  ConvIn= 1.00D-03 SkipCon=T Conv= 1.00D-03.
 Max sub-space:  2700 roots to seek:  1350 dimension of matrix:         1350
 *** WARNING: Number of orthogonal guesses is          675
 Iteration     1 Dimension   675 NMult     0 NNew    675
 CISAX will form   675 AO SS matrices at one time.
 NMat=   675 NSing=   675 JSym2X=-1.
 New state      1 was old state      2
 New state      2 was old state      3
 New state      3 was old state      1
 New state      8 was old state      9
 New state      9 was old state      8
 New state     12 was old state     14
 New state     14 was old state     15
 New state     15 was old state     16
 New state     16 was old state     17
 New state     17 was old state     18
 New state     18 was old state     19
 New state     19 was old state     20
 New state     20 was old state     21
 New state     21 was old state     12
 New state     24 was old state     25
 New state     25 was old state     24
 New state     29 was old state     30
 New state     30 was old state     29
 New state     31 was old state     32
 New state     32 was old state     36
 New state     33 was old state     35
 New state     34 was old state     33
 New state     35 was old state     37
 New state     36 was old state     31
 New state     37 was old state     38
 New state     38 was old state     40
 New state     40 was old state     34
 New state     42 was old state     44
 New state     43 was old state     42
 New state     44 was old state     43
 New state     45 was old state     47
 New state     47 was old state     50
 New state     48 was old state     45
 New state     49 was old state     51
 New state     50 was old state     53
 New state     51 was old state     49
 New state     52 was old state     48
 New state     53 was old state     52
 New state     54 was old state     55
 New state     55 was old state     58
 New state     56 was old state     57
 New state     57 was old state     59
 New state     58 was old state     56
 New state     59 was old state     54
 New state     60 was old state     61
 New state     61 was old state     62
 New state     62 was old state     60
 New state     64 was old state     66
 New state     65 was old state     64
 New state     66 was old state     68
 New state     67 was old state     69
 New state     68 was old state     67
 New state     69 was old state     70
 New state     70 was old state     71
 New state     71 was old state     73
 New state     72 was old state     75
 New state     73 was old state     74
 New state     74 was old state     76
 New state     75 was old state     77
 New state     76 was old state     72
 New state     77 was old state     78
 New state     78 was old state     79
 New state     79 was old state     80
 New state     80 was old state     82
 New state     81 was old state     83
 New state     82 was old state     84
 New state     83 was old state     81
 New state     84 was old state     85
 New state     85 was old state     87
 New state     86 was old state     89
 New state     87 was old state     86
 New state     88 was old state     90
 New state     89 was old state     88
 New state     90 was old state     93
 New state     92 was old state     94
 New state     93 was old state     92
 New state     94 was old state     95
 New state     95 was old state     97
 New state     96 was old state    101
 New state     97 was old state     98
 New state     98 was old state     99
 New state     99 was old state    100
 New state    100 was old state    102
 New state    101 was old state     96
 New state    102 was old state    103
 New state    103 was old state    104
 New state    104 was old state    105
 New state    105 was old state    107
 New state    107 was old state    108
 New state    108 was old state    109
 New state    109 was old state    110
 New state    110 was old state    111
 New state    111 was old state    112
 New state    112 was old state    115
 New state    115 was old state    117
 New state    116 was old state    118
 New state    117 was old state    116
 New state    118 was old state    120
 New state    119 was old state    123
 New state    120 was old state    122
 New state    121 was old state    124
 New state    122 was old state    119
 New state    123 was old state    125
 New state    124 was old state    126
 New state    125 was old state    127
 New state    126 was old state    128
 New state    127 was old state    129
 New state    128 was old state    130
 New state    129 was old state    132
 New state    130 was old state    131
 New state    131 was old state    133
 New state    132 was old state    147
 New state    133 was old state    134
 New state    134 was old state    137
 New state    136 was old state    138
 New state    137 was old state    144
 New state    138 was old state    141
 New state    139 was old state    142
 New state    141 was old state    139
 New state    142 was old state    145
 New state    144 was old state    146
 New state    145 was old state    136
 New state    146 was old state    148
 New state    147 was old state    150
 New state    148 was old state    149
 New state    149 was old state    156
 New state    150 was old state    151
 New state    151 was old state    152
 New state    152 was old state    154
 New state    154 was old state    155
 New state    155 was old state    161
 New state    156 was old state    163
 New state    157 was old state    159
 New state    158 was old state    162
 New state    159 was old state    160
 New state    160 was old state    158
 New state    161 was old state    157
 New state    162 was old state    165
 New state    163 was old state    164
 New state    164 was old state    167
 New state    165 was old state    166
 New state    166 was old state    168
 New state    167 was old state    181
 New state    168 was old state    171
 New state    171 was old state    172
 New state    172 was old state    173
 New state    173 was old state    176
 New state    174 was old state    175
 New state    175 was old state    174
 New state    176 was old state    178
 New state    177 was old state    179
 New state    178 was old state    177
 New state    179 was old state    183
 New state    181 was old state    184
 New state    182 was old state    185
 New state    183 was old state    188
 New state    184 was old state    186
 New state    185 was old state    182
 New state    186 was old state    190
 New state    188 was old state    197
 New state    190 was old state    192
 New state    192 was old state    196
 New state    193 was old state    194
 New state    194 was old state    193
 New state    196 was old state    200
 New state    197 was old state    201
 New state    198 was old state    199
 New state    199 was old state    198
 New state    200 was old state    202
 New state    201 was old state    203
 New state    202 was old state    204
 New state    203 was old state    205
 New state    204 was old state    206
 New state    205 was old state    209
 New state    206 was old state    208
 New state    208 was old state    210
 New state    209 was old state    211
 New state    210 was old state    212
 New state    211 was old state    213
 New state    212 was old state    221
 New state    213 was old state    214
 New state    214 was old state    219
 New state    215 was old state    217
 New state    216 was old state    215
 New state    217 was old state    220
 New state    218 was old state    224
 New state    219 was old state    222
 New state    220 was old state    216
 No map to state    221
 New state    222 was old state    223
 New state    223 was old state    218
 New state    224 was old state    231
 New state    225 was old state    227
 New state    227 was old state    225
 New state    228 was old state    230
 New state    230 was old state    232
 New state    231 was old state    233
 New state    232 was old state    228
 New state    233 was old state    234
 New state    234 was old state    249
 New state    235 was old state    236
 New state    236 was old state    237
 New state    237 was old state    238
 New state    238 was old state    240
 New state    239 was old state    242
 New state    240 was old state    239
 New state    242 was old state    244
 New state    243 was old state    246
 New state    244 was old state    245
 New state    245 was old state    243
 New state    246 was old state    248
 New state    247 was old state    250
 New state    248 was old state    247
 New state    249 was old state    251
 New state    250 was old state    252
 New state    251 was old state    253
 New state    252 was old state    256
 New state    253 was old state    254
 New state    254 was old state    255
 New state    255 was old state    267
 New state    256 was old state    258
 New state    257 was old state    259
 New state    258 was old state    257
 New state    259 was old state    261
 New state    260 was old state    262
 New state    261 was old state    265
 New state    262 was old state    264
 New state    264 was old state    260
 New state    265 was old state    266
 New state    266 was old state    270
 New state    267 was old state    268
 New state    268 was old state    272
 New state    270 was old state    271
 New state    271 was old state    273
 New state    272 was old state    274
 New state    273 was old state    275
 New state    274 was old state    276
 New state    275 was old state    278
 New state    276 was old state    279
 New state    277 was old state    280
 New state    278 was old state    283
 New state    279 was old state    281
 New state    280 was old state    277
 New state    281 was old state    282
 New state    282 was old state    284
 New state    283 was old state    285
 New state    284 was old state    286
 New state    285 was old state    287
 New state    286 was old state    296
 New state    287 was old state    288
 New state    288 was old state    295
 New state    289 was old state    290
 New state    290 was old state    289
 New state    291 was old state    292
 New state    292 was old state    293
 New state    293 was old state    294
 New state    294 was old state    291
 New state    295 was old state    297
 New state    296 was old state    298
 New state    297 was old state    299
 New state    298 was old state    313
 New state    299 was old state    301
 New state    300 was old state    304
 New state    301 was old state    302
 New state    302 was old state    303
 New state    303 was old state    300
 New state    304 was old state    305
 New state    305 was old state    306
 New state    306 was old state    307
 New state    307 was old state    308
 New state    308 was old state    310
 New state    310 was old state    311
 New state    311 was old state    312
 New state    312 was old state    314
 New state    313 was old state    320
 New state    314 was old state    315
 New state    315 was old state    316
 New state    316 was old state    317
 New state    317 was old state    318
 New state    318 was old state    319
 New state    319 was old state    323
 New state    320 was old state    322
 New state    322 was old state    324
 New state    323 was old state    325
 New state    324 was old state    327
 New state    325 was old state    329
 New state    327 was old state    328
 New state    328 was old state    330
 New state    329 was old state    334
 New state    330 was old state    335
 New state    333 was old state    336
 New state    334 was old state    337
 New state    335 was old state    338
 New state    336 was old state    340
 New state    337 was old state    347
 New state    338 was old state    333
 New state    340 was old state    344
 New state    341 was old state    342
 New state    342 was old state    341
 New state    343 was old state    345
 New state    344 was old state    343
 New state    345 was old state    346
 New state    346 was old state    348
 New state    347 was old state    349
 New state    348 was old state    355
 New state    349 was old state    351
 New state    351 was old state    359
 New state    352 was old state    354
 New state    354 was old state    352
 New state    355 was old state    356
 New state    356 was old state    357
 New state    357 was old state    358
 New state    358 was old state    361
 New state    359 was old state    360
 New state    360 was old state    363
 New state    361 was old state    362
 New state    362 was old state    365
 New state    363 was old state    364
 New state    364 was old state    366
 New state    365 was old state    382
 New state    366 was old state    369
 New state    369 was old state    373
 New state    370 was old state    372
 New state    371 was old state    370
 New state    372 was old state    374
 New state    373 was old state    376
 New state    374 was old state    377
 New state    375 was old state    371
 New state    376 was old state    375
 New state    377 was old state    379
 New state    379 was old state    380
 New state    380 was old state    386
 New state    382 was old state    387
 New state    383 was old state    384
 New state    384 was old state    385
 New state    385 was old state    388
 New state    386 was old state    383
 New state    387 was old state    389
 New state    388 was old state    391
 New state    389 was old state    392
 New state    391 was old state    394
 New state    392 was old state    398
 New state    394 was old state    395
 New state    395 was old state    396
 New state    396 was old state    409
 New state    398 was old state    399
 New state    399 was old state    400
 New state    400 was old state    401
 New state    401 was old state    405
 New state    402 was old state    403
 New state    403 was old state    404
 New state    404 was old state    408
 New state    405 was old state    402
 New state    406 was old state    407
 New state    407 was old state    410
 New state    408 was old state    406
 New state    409 was old state    413
 New state    410 was old state    414
 New state    411 was old state    412
 New state    412 was old state    415
 New state    413 was old state    419
 New state    414 was old state    411
 New state    415 was old state    416
 New state    416 was old state    417
 New state    417 was old state    420
 New state    419 was old state    421
 No map to state    420
 New state    421 was old state    422
 New state    422 was old state    424
 New state    424 was old state    425
 New state    425 was old state    429
 New state    428 was old state    430
 New state    429 was old state    428
 New state    430 was old state    431
 New state    431 was old state    432
 New state    432 was old state    433
 New state    433 was old state    434
 New state    434 was old state    438
 New state    438 was old state    439
 New state    439 was old state    440
 New state    440 was old state    443
 New state    441 was old state    442
 New state    442 was old state    441
 New state    443 was old state    444
 New state    444 was old state    447
 New state    447 was old state    448
 New state    448 was old state    449
 New state    449 was old state    451
 New state    451 was old state    453
 New state    453 was old state    454
 New state    454 was old state    456
 New state    456 was old state    457
 New state    457 was old state    459
 New state    459 was old state    460
 New state    460 was old state    461
 New state    461 was old state    462
 New state    462 was old state    466
 New state    464 was old state    465
 New state    465 was old state    464
 New state    466 was old state    468
 New state    467 was old state    470
 New state    468 was old state    467
 New state    470 was old state    471
 New state    471 was old state    472
 New state    472 was old state    473
 New state    473 was old state    474
 New state    474 was old state    479
 New state    476 was old state    478
 New state    477 was old state    481
 New state    478 was old state    476
 New state    479 was old state    480
 New state    480 was old state    482
 New state    481 was old state    485
 New state    482 was old state    483
 New state    483 was old state    477
 New state    485 was old state    486
 New state    486 was old state    487
 New state    487 was old state    490
 New state    488 was old state    489
 New state    489 was old state    488
 New state    490 was old state    492
 New state    492 was old state    493
 New state    493 was old state    495
 New state    494 was old state    496
 New state    495 was old state    494
 New state    496 was old state    500
 New state    498 was old state    501
 New state    499 was old state    498
 New state    500 was old state    499
 New state    501 was old state    509
 New state    502 was old state    504
 New state    503 was old state    505
 New state    504 was old state    503
 New state    505 was old state    507
 New state    506 was old state    502
 New state    507 was old state    506
 New state    509 was old state    515
 New state    510 was old state    511
 New state    511 was old state    510
 New state    513 was old state    514
 New state    514 was old state    513
 New state    515 was old state    517
 New state    517 was old state    518
 New state    518 was old state    519
 New state    519 was old state    520
 New state    520 was old state    522
 New state    522 was old state    524
 New state    524 was old state    536
 New state    528 was old state    531
 New state    529 was old state    530
 New state    530 was old state    529
 New state    531 was old state    528
 New state    532 was old state    533
 New state    533 was old state    532
 New state    536 was old state    542
 New state    538 was old state    540
 New state    540 was old state    538
 New state    542 was old state    568
 New state    544 was old state    545
 New state    545 was old state    547
 New state    546 was old state    548
 New state    547 was old state    546
 New state    548 was old state    549
 New state    549 was old state    544
 New state    552 was old state    554
 New state    553 was old state    556
 New state    554 was old state    553
 New state    556 was old state    552
 New state    557 was old state    558
 New state    558 was old state    557
 New state    561 was old state    563
 New state    563 was old state    561
 New state    564 was old state    565
 New state    565 was old state    566
 New state    566 was old state    564
 New state    568 was old state    570
 New state    570 was old state    571
 New state    571 was old state    573
 New state    573 was old state    575
 New state    574 was old state    576
 New state    575 was old state    577
 New state    576 was old state    574
 New state    577 was old state    578
 New state    578 was old state    579
 New state    579 was old state    596
 New state    582 was old state    583
 New state    583 was old state    582
 New state    584 was old state    585
 New state    585 was old state    586
 New state    586 was old state    584
 New state    591 was old state    592
 New state    592 was old state    591
 New state    593 was old state    594
 New state    594 was old state    595
 New state    595 was old state    593
 New state    596 was old state    597
 New state    597 was old state    609
 New state    599 was old state    600
 New state    600 was old state    601
 New state    601 was old state    599
 New state    602 was old state    604
 New state    604 was old state    602
 New state    606 was old state    607
 New state    607 was old state    606
 New state    609 was old state    611
 New state    611 was old state    615
 New state    612 was old state    613
 New state    613 was old state    618
 New state    614 was old state    612
 New state    615 was old state    619
 New state    616 was old state    617
 New state    617 was old state    614
 New state    618 was old state    616
 New state    619 was old state    627
 New state    620 was old state    621
 New state    621 was old state    620
 New state    625 was old state    626
 New state    626 was old state    631
 New state    627 was old state    625
 New state    629 was old state    630
 New state    630 was old state    629
 New state    631 was old state    632
 New state    632 was old state    634
 New state    633 was old state    635
 No map to state    634
 New state    635 was old state    633
 New state    643 was old state    645
 New state    644 was old state    643
 New state    645 was old state    644
 New state    648 was old state    649
 New state    649 was old state    650
 New state    650 was old state    648
 New state    653 was old state    654
 New state    654 was old state    653
 New state    657 was old state    658
 New state    658 was old state    657
 New state    666 was old state    667
 New state    667 was old state    666
 New state    670 was old state    671
 New state    671 was old state    670
 Excitation Energies [eV] at current iteration:
 Root      1 :     5.633210051811140
 Root      2 :     6.373311857814236
 Root      3 :     6.373386702148917
 Root      4 :     6.552656060245482
 Root      5 :     7.211004655286830
 Root      6 :     7.377341678976257
 Root      7 :     8.352813784097684
 Root      8 :     8.598102528206695
 Root      9 :     8.685627099590437
 Root     10 :     8.788223777934732
 Root     11 :     8.992121299447941
 Root     12 :     9.228112170223708
 Root     13 :     9.365369249765878
 Root     14 :     9.448165095427012
 Root     15 :     9.610067508755769
 Root     16 :     9.646894736126182
 Root     17 :     9.775348354519107
 Root     18 :    10.093456671649460
 Root     19 :    10.125354627312020
 Root     20 :    10.305001792594430
 Root     21 :    10.325835202722720
 Root     22 :    10.485108099495000
 Root     23 :    10.712371595363430
 Root     24 :    10.938923115324650
 Root     25 :    11.050959893857340
 Root     26 :    11.370948795919350
 Root     27 :    11.492489679937800
 Root     28 :    11.496662802035810
 Root     29 :    11.740321580510620
 Root     30 :    11.872161712830510
 Root     31 :    11.872923695728240
 Root     32 :    11.997261665252930
 Root     33 :    12.107487730353440
 Root     34 :    12.118422557331440
 Root     35 :    12.164243486029220
 Root     36 :    12.210132855667150
 Root     37 :    12.233632391396580
 Root     38 :    12.381934688774090
 Root     39 :    12.427211917105210
 Root     40 :    12.533479179847230
 Root     41 :    12.881321801989370
 Root     42 :    12.982196152035290
 Root     43 :    12.989958516418060
 Root     44 :    13.088639916869380
 Root     45 :    13.210973851591040
 Root     46 :    13.285778273321420
 Root     47 :    13.408985201847230
 Root     48 :    13.409015578408490
 Root     49 :    13.516002860260020
 Root     50 :    13.575113847174630
 Root     51 :    13.605774239057940
 Root     52 :    13.711471992347290
 Root     53 :    13.890941988407600
 Root     54 :    14.092215356206490
 Root     55 :    14.136523399583960
 Root     56 :    14.181873487495480
 Root     57 :    14.332003149938030
 Root     58 :    14.363050749230610
 Root     59 :    14.567299709360150
 Root     60 :    14.590070819555820
 Root     61 :    14.650899439209950
 Root     62 :    14.754294712207460
 Root     63 :    14.891387438226470
 Root     64 :    14.992928472923480
 Root     65 :    15.084197898915980
 Root     66 :    15.191726027236950
 Root     67 :    15.224429542723630
 Root     68 :    15.234803369232300
 Root     69 :    15.305861597697540
 Root     70 :    15.328075723130610
 Root     71 :    15.387985235735460
 Root     72 :    15.426076852250050
 Root     73 :    15.444420459892490
 Root     74 :    15.483725764439300
 Root     75 :    15.543444956335660
 Root     76 :    15.610525772763530
 Root     77 :    15.628620010446140
 Root     78 :    15.722687605016920
 Root     79 :    15.798480986577610
 Root     80 :    15.825361076389190
 Root     81 :    16.003437137146290
 Root     82 :    16.016792330372980
 Root     83 :    16.075506252835740
 Root     84 :    16.267745522431230
 Root     85 :    16.376183959712240
 Root     86 :    16.396832842905560
 Root     87 :    16.494940363028880
 Root     88 :    16.580435107798330
 Root     89 :    16.590872209499120
 Root     90 :    16.617486833298170
 Root     91 :    16.669946234827650
 Root     92 :    16.774714406969890
 Root     93 :    16.859485874586430
 Root     94 :    16.913369611607080
 Root     95 :    16.928484009353550
 Root     96 :    17.116604329176230
 Root     97 :    17.161793173170520
 Root     98 :    17.237604076437210
 Root     99 :    17.245149972802230
 Root    100 :    17.284839486227200
 Root    101 :    17.478009180523390
 Root    102 :    17.574411123857280
 Root    103 :    17.766375913770710
 Root    104 :    17.873421608225530
 Root    105 :    17.991600065494890
 Root    106 :    18.029056685214050
 Root    107 :    18.128985758425760
 Root    108 :    18.144316273812340
 Root    109 :    18.180584726604430
 Root    110 :    18.193654975687010
 Root    111 :    18.229297594183080
 Root    112 :    18.367440471944780
 Root    113 :    18.374087079150350
 Root    114 :    18.517856953425140
 Root    115 :    18.622318483457660
 Root    116 :    18.688924930864680
 Root    117 :    18.746275582992810
 Root    118 :    18.912686602598460
 Root    119 :    18.943913741393730
 Root    120 :    18.946370398060700
 Root    121 :    18.997104453635340
 Root    122 :    18.998325450047160
 Root    123 :    19.056167385277420
 Root    124 :    19.137138376666900
 Root    125 :    19.144076102012240
 Root    126 :    19.184278630882250
 Root    127 :    19.287602919683750
 Root    128 :    19.345598787804150
 Root    129 :    19.461068149308140
 Root    130 :    19.711725828937100
 Root    131 :    19.719024234675390
 Root    132 :    19.815143843254360
 Root    133 :    19.865263471448950
 Root    134 :    19.886147070983480
 Root    135 :    19.969253924667080
 Root    136 :    20.048485691192640
 Root    137 :    20.133128329304940
 Root    138 :    20.154495057522920
 Root    139 :    20.194516424528820
 Root    140 :    20.240272377539210
 Root    141 :    20.330100319490520
 Root    142 :    20.337128807417090
 Root    143 :    20.427002314557770
 Root    144 :    20.469718296098040
 Root    145 :    20.665765285520720
 Root    146 :    20.742445192692130
 Root    147 :    20.792549367583920
 Root    148 :    21.043771310626860
 Root    149 :    21.156287086452410
 Root    150 :    21.186762625421880
 Root    151 :    21.237749586203930
 Root    152 :    21.271555067802510
 Root    153 :    21.283840532185630
 Root    154 :    21.445628742217920
 Root    155 :    21.492268769802880
 Root    156 :    21.539674569667960
 Root    157 :    21.611814135843650
 Root    158 :    21.655629691724220
 Root    159 :    21.687399233942330
 Root    160 :    21.750028340135050
 Root    161 :    21.774541136575840
 Root    162 :    21.863366591432320
 Root    163 :    21.905958012431080
 Root    164 :    22.013496564738880
 Root    165 :    22.113074208273770
 Root    166 :    22.117864840107280
 Root    167 :    22.217863590649500
 Root    168 :    22.376066640910750
 Root    169 :    22.385848814528040
 Root    170 :    22.502732778864380
 Root    171 :    22.633933371351740
 Root    172 :    22.687077017233800
 Root    173 :    22.739073856051630
 Root    174 :    22.744472646729910
 Root    175 :    22.799420217430860
 Root    176 :    22.855679011053800
 Root    177 :    22.929891732590510
 Root    178 :    23.101364724602780
 Root    179 :    23.164876827694850
 Root    180 :    23.168134837097890
 Root    181 :    23.197441856076810
 Root    182 :    23.251253220900000
 Root    183 :    23.459310123971140
 Root    184 :    23.481765017107510
 Root    185 :    23.518994282083600
 Root    186 :    23.678754208653020
 Root    187 :    23.723524426376070
 Root    188 :    23.741001382132120
 Root    189 :    23.814125376651710
 Root    190 :    23.817907843105750
 Root    191 :    23.836407090641150
 Root    192 :    23.933608693881840
 Root    193 :    24.011365108470680
 Root    194 :    24.050966692723000
 Root    195 :    24.087099718559220
 Root    196 :    24.166324342386680
 Root    197 :    24.230156431802010
 Root    198 :    24.285159767281260
 Root    199 :    24.321483329515220
 Root    200 :    24.430293310004670
 Root    201 :    24.451214018048830
 Root    202 :    24.553542341679090
 Root    203 :    24.610582395077000
 Root    204 :    24.720954132424230
 Root    205 :    25.000547148587640
 Root    206 :    25.014271527986250
 Root    207 :    25.123326365472100
 Root    208 :    25.198643083953350
 Root    209 :    25.351237078450630
 Root    210 :    25.482405682729380
 Root    211 :    25.509678152419560
 Root    212 :    25.533365386350430
 Root    213 :    25.647277806069110
 Root    214 :    25.687051365733590
 Root    215 :    25.793807686035470
 Root    216 :    25.823077703853750
 Root    217 :    25.933412513333120
 Root    218 :    26.017870145902680
 Root    219 :    26.129874019615730
 Root    220 :    26.165184341314710
 Root    221 :    26.220756993933040
 Root    222 :    26.265228241122400
 Root    223 :    26.279807170643070
 Root    224 :    26.506589243350040
 Root    225 :    26.560070080602560
 Root    226 :    26.576354956155050
 Root    227 :    26.660663112729710
 Root    228 :    26.695164827620730
 Root    229 :    26.727564152648880
 Root    230 :    26.893876159130240
 Root    231 :    26.922013625890500
 Root    232 :    27.010324516750630
 Root    233 :    27.046681588785990
 Root    234 :    27.121650597358800
 Root    235 :    27.172606245872500
 Root    236 :    27.306959275605180
 Root    237 :    27.318877796306270
 Root    238 :    27.555818534423210
 Root    239 :    27.574625827753620
 Root    240 :    27.625669325180150
 Root    241 :    27.689495299258000
 Root    242 :    27.836064378303610
 Root    243 :    27.911691024714040
 Root    244 :    27.939358277810140
 Root    245 :    28.047278065225860
 Root    246 :    28.098216256073610
 Root    247 :    28.188364830927360
 Root    248 :    28.280080801086320
 Root    249 :    28.336532541559070
 Root    250 :    28.481578354710350
 Root    251 :    28.543721345806800
 Root    252 :    28.665040078912230
 Root    253 :    28.804197116796490
 Root    254 :    28.904725300622570
 Root    255 :    29.090555533943550
 Root    256 :    29.316613222564800
 Root    257 :    29.324052948167370
 Root    258 :    29.387659021467480
 Root    259 :    29.416213343420240
 Root    260 :    29.456995077013320
 Root    261 :    29.712460134796250
 Root    262 :    29.734425993753230
 Root    263 :    29.811490493708430
 Root    264 :    29.854107106301730
 Root    265 :    29.989162685563990
 Root    266 :    30.034104100150440
 Root    267 :    30.132296966751510
 Root    268 :    30.167870457221020
 Root    269 :    30.228514451901170
 Root    270 :    30.259830003002880
 Root    271 :    30.320929043155930
 Root    272 :    30.417056051858320
 Root    273 :    30.431885370925590
 Root    274 :    30.610689682686850
 Root    275 :    30.620315528944560
 Root    276 :    30.686863863839420
 Root    277 :    30.761734680173670
 Root    278 :    30.808733407006490
 Root    279 :    30.818346430013690
 Root    280 :    31.016447194815980
 Root    281 :    31.114221944365280
 Root    282 :    31.147496900713400
 Root    283 :    31.328220589590890
 Root    284 :    31.455478796810660
 Root    285 :    31.641067320194290
 Root    286 :    31.985009819185770
 Root    287 :    32.057974531300470
 Root    288 :    32.084084968063960
 Root    289 :    32.139428713119090
 Root    290 :    32.178478442729770
 Root    291 :    32.371347541244080
 Root    292 :    32.378353150452460
 Root    293 :    32.479660604774190
 Root    294 :    32.558213366839530
 Root    295 :    32.575950957536630
 Root    296 :    32.918673435856740
 Root    297 :    33.079315475750360
 Root    298 :    33.157540068910690
 Root    299 :    33.470391080707700
 Root    300 :    33.510578343214850
 Root    301 :    33.512773632839460
 Root    302 :    33.686529267911030
 Root    303 :    33.697252844207990
 Root    304 :    33.779292235167840
 Root    305 :    33.860947888508990
 Root    306 :    33.862373344224590
 Root    307 :    34.027717208021480
 Root    308 :    34.181666531920750
 Root    309 :    34.184217021306540
 Root    310 :    34.276404645099690
 Root    311 :    34.442355736080100
 Root    312 :    34.593246582155340
 Root    313 :    34.925748983685640
 Root    314 :    35.301013187658790
 Root    315 :    35.383820474745970
 Root    316 :    35.538520830349280
 Root    317 :    35.632839646273210
 Root    318 :    35.699505547799050
 Root    319 :    35.747646231640470
 Root    320 :    35.757788580901190
 Root    321 :    35.800102969162860
 Root    322 :    35.881162394897380
 Root    323 :    36.036454456271970
 Root    324 :    36.152035952873440
 Root    325 :    36.203960858884470
 Root    326 :    36.284122948197980
 Root    327 :    36.340447468522510
 Root    328 :    36.543122236989530
 Root    329 :    36.650701863765090
 Root    330 :    36.951371261699670
 Root    331 :    37.025964681345790
 Root    332 :    37.211867078458930
 Root    333 :    37.235918191051770
 Root    334 :    37.287467254068130
 Root    335 :    37.423505756107520
 Root    336 :    37.456447582197000
 Root    337 :    37.515700988398240
 Root    338 :    37.663940302874270
 Root    339 :    37.701263273487830
 Root    340 :    38.257701675644890
 Root    341 :    38.272939839073880
 Root    342 :    38.297164559344980
 Root    343 :    38.547160534179910
 Root    344 :    38.554764970898740
 Root    345 :    38.681904633725260
 Root    346 :    38.798331714158070
 Root    347 :    38.844322403651930
 Root    348 :    39.090949080244130
 Root    349 :    39.272464164698600
 Root    350 :    39.294406092782400
 Root    351 :    39.387720774295780
 Root    352 :    39.412443285664450
 Root    353 :    39.445277590911540
 Root    354 :    39.651949697817930
 Root    355 :    39.792150226313570
 Root    356 :    39.859325875597270
 Root    357 :    40.093649824698800
 Root    358 :    40.468535251668140
 Root    359 :    40.607094312061730
 Root    360 :    40.661875318129920
 Root    361 :    40.696898140001170
 Root    362 :    40.742525818969780
 Root    363 :    41.059218770028170
 Root    364 :    41.168949243643990
 Root    365 :    41.338534630605570
 Root    366 :    41.640617653766700
 Root    367 :    41.842534324131680
 Root    368 :    42.248193995152060
 Root    369 :    42.302548197143500
 Root    370 :    42.305995712721940
 Root    371 :    42.341737977248610
 Root    372 :    42.398606063889550
 Root    373 :    42.478790673573760
 Root    374 :    42.564570794336620
 Root    375 :    42.629055276470420
 Root    376 :    42.941217103933360
 Root    377 :    42.987070465641770
 Root    378 :    43.008498750882050
 Root    379 :    43.242303936912640
 Root    380 :    43.471744453402640
 Root    381 :    43.759464019301040
 Root    382 :    44.024842921270240
 Root    383 :    44.044934308885390
 Root    384 :    44.311631601475300
 Root    385 :    44.348080651306510
 Root    386 :    44.388593152996010
 Root    387 :    44.573714991726690
 Root    388 :    44.604430552929480
 Root    389 :    44.705439223185610
 Root    390 :    44.808306371096610
 Root    391 :    44.978032455502780
 Root    392 :    45.196880635604000
 Root    393 :    45.209498807529240
 Root    394 :    45.382635172277510
 Root    395 :    45.848065531214440
 Root    396 :    46.292593986443470
 Root    397 :    46.412003119678940
 Root    398 :    46.515118073967320
 Root    399 :    46.593116942851130
 Root    400 :    46.771955694102540
 Root    401 :    47.173292656644640
 Root    402 :    47.301825056372290
 Root    403 :    47.486242751861330
 Root    404 :    47.645056254089320
 Root    405 :    47.672528102895320
 Root    406 :    47.746860975955530
 Root    407 :    47.865154506711710
 Root    408 :    48.141437992969960
 Root    409 :    48.313309280140050
 Root    410 :    48.356448454384160
 Root    411 :    48.413334345861340
 Root    412 :    48.606926991136550
 Root    413 :    48.717569259829290
 Root    414 :    48.819162270263140
 Root    415 :    49.013128264879000
 Root    416 :    49.236139852843280
 Root    417 :    49.439664626359980
 Root    418 :    49.627916773218020
 Root    419 :    49.760006679137770
 Root    420 :    49.953207988047770
 Root    421 :    50.295703754259760
 Root    422 :    50.596578927403370
 Root    423 :    50.606676333796760
 Root    424 :    50.915655602266210
 Root    425 :    50.948770084512280
 Root    426 :    51.192512766049180
 Root    427 :    51.260767963671470
 Root    428 :    51.366047578151220
 Root    429 :    51.474312114322800
 Root    430 :    51.621557191973390
 Root    431 :    51.873603383830640
 Root    432 :    52.013860830313750
 Root    433 :    52.156972928737190
 Root    434 :    52.312927855961100
 Root    435 :    52.528765308836800
 Root    436 :    52.634215787670200
 Root    437 :    52.883087021144720
 Root    438 :    53.082050515588480
 Root    439 :    53.107751889335700
 Root    440 :    53.335994028140070
 Root    441 :    53.517347813625610
 Root    442 :    53.677663231702900
 Root    443 :    53.722851077182110
 Root    444 :    53.997270286946230
 Root    445 :    54.205130829774300
 Root    446 :    54.297953265321740
 Root    447 :    54.561900877982760
 Root    448 :    54.635284547879550
 Root    449 :    54.643459241856870
 Root    450 :    54.835020800954250
 Root    451 :    54.979095930321800
 Root    452 :    55.281807494066310
 Root    453 :    55.661275422889910
 Root    454 :    55.893171479411290
 Root    455 :    55.978976915897680
 Root    456 :    56.034489915740910
 Root    457 :    56.403577246596780
 Root    458 :    56.493166065301050
 Root    459 :    56.525517566707530
 Root    460 :    56.959228868025410
 Root    461 :    57.212718289472380
 Root    462 :    57.300445662390220
 Root    463 :    57.441154220553810
 Root    464 :    57.707644580241770
 Root    465 :    57.870004384668750
 Root    466 :    57.893833477151210
 Root    467 :    58.029935633795760
 Root    468 :    58.153712975466200
 Root    469 :    58.276330735369380
 Root    470 :    58.359370803117810
 Root    471 :    58.456196144589290
 Root    472 :    58.523485686357090
 Root    473 :    58.865010170960640
 Root    474 :    59.143108962137990
 Root    475 :    59.252333778299530
 Root    476 :    59.492934938940100
 Root    477 :    59.520231020325750
 Root    478 :    59.522977094348040
 Root    479 :    59.696397467731350
 Root    480 :    59.721325314156200
 Root    481 :    60.077741020029520
 Root    482 :    60.217037163907340
 Root    483 :    60.375601826559210
 Root    484 :    60.620576250077080
 Root    485 :    60.821806131367940
 Root    486 :    60.853942347559120
 Root    487 :    60.965386652920090
 Root    488 :    61.126440093589530
 Root    489 :    61.315389601476450
 Root    490 :    61.564639611465870
 Root    491 :    61.696049293123260
 Root    492 :    61.928791164782490
 Root    493 :    62.597274315805340
 Root    494 :    62.688003651723830
 Root    495 :    62.694958843982750
 Root    496 :    62.883020215675790
 Root    497 :    63.146182669351870
 Root    498 :    63.356366928169350
 Root    499 :    63.409925518875870
 Root    500 :    63.464779998628940
 Root    501 :    63.523840440851200
 Root    502 :    63.898025397806530
 Root    503 :    63.925585603829880
 Root    504 :    64.082097739146420
 Root    505 :    64.163987211426590
 Root    506 :    64.359507572999620
 Root    507 :    64.398570195839440
 Root    508 :    64.590464705209630
 Root    509 :    64.750318578504500
 Root    510 :    64.796509823716580
 Root    511 :    64.819835900084800
 Root    512 :    65.323882068200190
 Root    513 :    65.550176682256880
 Root    514 :    65.592441712583440
 Root    515 :    65.819362260788480
 Root    516 :    66.086768240163610
 Root    517 :    66.662612034479240
 Root    518 :    66.706470653420580
 Root    519 :    66.763957607831260
 Root    520 :    66.868564086580580
 Root    521 :    66.909290650962520
 Root    522 :    66.972050957824650
 Root    523 :    67.617081350862830
 Root    524 :    68.007990962679870
 Root    525 :    68.299039122901720
 Root    526 :    68.328722090484090
 Root    527 :    68.675492825089680
 Root    528 :    68.813767018956310
 Root    529 :    68.857536747304420
 Root    530 :    68.989124384577980
 Root    531 :    69.076769498848170
 Root    532 :    69.160247290980580
 Root    533 :    69.283530984824680
 Root    534 :    69.436708959880290
 Root    535 :    69.770884652552270
 Root    536 :    70.038083115784450
 Root    537 :    70.339021589318340
 Root    538 :    70.410015032275250
 Root    539 :    70.544632310433170
 Root    540 :    70.696797317765030
 Root    541 :    70.819001904133020
 Root    542 :    71.010862548857220
 Root    543 :    71.812429360421620
 Root    544 :    72.266169925213080
 Root    545 :    72.427352095867290
 Root    546 :    72.472807205292510
 Root    547 :    72.702893036425350
 Root    548 :    72.771648424990800
 Root    549 :    72.927479637200080
 Root    550 :    72.954348863965340
 Root    551 :    73.217309757402380
 Root    552 :    73.447259097192230
 Root    553 :    73.609087392834100
 Root    554 :    73.624879991632640
 Root    555 :    73.984600926645940
 Root    556 :    74.331424034421490
 Root    557 :    74.568741736575330
 Root    558 :    74.730758259781990
 Root    559 :    74.964906028086250
 Root    560 :    75.089530399940640
 Root    561 :    75.360260938870130
 Root    562 :    75.455847544871230
 Root    563 :    75.586582951958010
 Root    564 :    76.280665784595910
 Root    565 :    76.361842882496770
 Root    566 :    76.518568605762250
 Root    567 :    76.554358385415980
 Root    568 :    77.053304046018380
 Root    569 :    77.166605321823340
 Root    570 :    77.540667456861300
 Root    571 :    77.714131196140370
 Root    572 :    77.829998851100470
 Root    573 :    78.048795198050130
 Root    574 :    78.285048268058300
 Root    575 :    78.339003043053040
 Root    576 :    78.491648931160190
 Root    577 :    78.945673653686530
 Root    578 :    79.275637476987700
 Root    579 :    79.357712118979140
 Root    580 :    80.166216355002580
 Root    581 :    80.429976545306190
 Root    582 :    81.130545015391830
 Root    583 :    81.372851012558480
 Root    584 :    81.422768553981510
 Root    585 :    81.773354420683920
 Root    586 :    81.908593588066840
 Root    587 :    82.231487617697610
 Root    588 :    82.442020113176370
 Root    589 :    83.195152837611930
 Root    590 :    83.469112051975770
 Root    591 :    84.389398839689860
 Root    592 :    84.461919830876510
 Root    593 :    84.652154040489730
 Root    594 :    84.912601870917640
 Root    595 :    84.987063743506100
 Root    596 :    85.906031877778620
 Root    597 :    86.386397144006960
 Root    598 :    86.399919227480320
 Root    599 :    86.678915176778220
 Root    600 :    87.238318493987360
 Root    601 :    87.273959167071400
 Root    602 :    87.474327144169480
 Root    603 :    87.758521968474010
 Root    604 :    88.050668705072300
 Root    605 :    88.361251772229420
 Root    606 :    88.440727533562890
 Root    607 :    88.808657069585820
 Root    608 :    89.397357774168950
 Root    609 :    89.441338356291620
 Root    610 :    89.677100550897240
 Root    611 :    90.249986263177410
 Root    612 :    90.473565345040340
 Root    613 :    90.710593433403390
 Root    614 :    90.799383261054860
 Root    615 :    90.921825468978640
 Root    616 :    90.983807339408740
 Root    617 :    91.080714470541170
 Root    618 :    91.398451832321540
 Root    619 :    91.530048355533620
 Root    620 :    91.605030420757710
 Root    621 :    91.889709613049620
 Root    622 :    92.274476778635800
 Root    623 :    92.532551112489030
 Root    624 :    92.681265541123910
 Root    625 :    93.413379815216910
 Root    626 :    93.727167160646290
 Root    627 :    93.759412019365570
 Root    628 :    93.944675044128620
 Root    629 :    94.012091625480520
 Root    630 :    94.139959446185090
 Root    631 :    94.392321761196580
 Root    632 :    94.571263530392640
 Root    633 :    95.844964345876360
 Root    634 :    95.959793465853050
 Root    635 :    96.018429993954160
 Root    636 :    97.016914496344330
 Root    637 :    97.759312641423520
 Root    638 :    98.505121396595200
 Root    639 :    98.648650056822130
 Root    640 :    99.187421038273980
 Root    641 :    99.749228034621720
 Root    642 :   100.512157431982400
 Root    643 :   101.480244796591300
 Root    644 :   101.636428953966600
 Root    645 :   101.799144107469300
 Root    646 :   102.107154637325600
 Root    647 :   103.270446050442800
 Root    648 :   104.376137234841200
 Root    649 :   104.627002147236600
 Root    650 :   105.098240735181300
 Root    651 :   105.460254290636500
 Root    652 :   105.930761402472600
 Root    653 :   106.591731559458300
 Root    654 :   106.830679097583200
 Root    655 :   107.919722314832200
 Root    656 :   108.017489809057600
 Root    657 :   108.209459429527900
 Root    658 :   108.999536349771200
 Root    659 :   109.316833848980200
 Root    660 :   111.028184560188500
 Root    661 :   111.211791896117100
 Root    662 :   112.023315808132500
 Root    663 :   112.384629264911500
 Root    664 :   112.744339914480200
 Root    665 :   113.214713554629500
 Root    666 :   115.746595533984400
 Root    667 :   116.223164045087700
 Root    668 :   117.723455874139300
 Root    669 :   118.707211870441700
 Root    670 :   119.104580711843000
 Root    671 :   119.304316851452600
 Root    672 :   121.095446930948800
 Root    673 :   125.184341505699500
 Root    674 :   127.102959363430200
 Root    675 :   133.122780177299400
 Convergence achieved for final wavefunctions.
 ***********************************************************************
 Excited states from <AA,BB:AA,BB> singles matrix:
 ***********************************************************************
 
 1PDM for each excited state written to RWF  633
 Ground to excited state transition densities written to RWF  633
 Ground to excited state transition electric dipole moments (Au):
       state          X           Y           Z        Dip. S.      Osc.
         1        -0.0000     -0.0000     -0.0612      0.0037      0.0005
         2         0.0000      0.0000     -0.1052      0.0111      0.0017
         3         0.7772     -0.0179      0.0000      0.6044      0.0944
         4        -0.6123     -0.0817     -0.0000      0.3816      0.0613
         5        -0.0000     -0.0000      0.2939      0.0864      0.0153
         6         0.3186     -0.2674     -0.0000      0.1730      0.0313
         7         0.0000      0.0000     -0.1016      0.0103      0.0021
         8         0.0000      0.0000     -0.1680      0.0282      0.0059
         9         0.3866     -0.6064      0.0000      0.5171      0.1100
        10        -0.4893     -0.4185      0.0000      0.4146      0.0893
        11        -0.0000     -0.0000     -0.0402      0.0016      0.0004
        12        -0.0000      0.0000      0.3751      0.1407      0.0318
        13        -0.1910      0.1651      0.0000      0.0637      0.0146
        14         0.0000      0.0000      0.0004      0.0000      0.0000
        15        -0.1302     -0.0312     -0.0000      0.0179      0.0042
        16        -0.0000     -0.0000      0.2526      0.0638      0.0151
        17        -0.1826      0.1076     -0.0000      0.0449      0.0108
        18        -0.2174     -0.2203     -0.0000      0.0958      0.0237
        19         0.0000      0.0000     -0.3576      0.1279      0.0317
        20        -0.0000     -0.0000      0.1011      0.0102      0.0026
        21        -0.8816      0.4371     -0.0000      0.9682      0.2449
        22        -0.0000      0.0000     -0.1500      0.0225      0.0058
        23        -0.4597     -0.0144     -0.0000      0.2115      0.0555
        24         0.0000      0.0000     -0.1522      0.0232      0.0062
        25        -0.1362     -0.4574      0.0000      0.2277      0.0617
        26         0.0186     -0.2300     -0.0000      0.0533      0.0148
        27         0.4108      0.5005      0.0000      0.4193      0.1181
        28        -0.0000     -0.0000     -0.0372      0.0014      0.0004
        29         0.0000     -0.0000      0.0756      0.0057      0.0016
        30        -0.6015      0.0786     -0.0000      0.3680      0.1070
        31         0.0000      0.0000      0.0475      0.0023      0.0007
        32         0.0000      0.0000     -0.1281      0.0164      0.0048
        33         0.0000      0.0000     -0.3024      0.0915      0.0271
        34         0.1132     -0.1009      0.0000      0.0230      0.0068
        35        -0.1684     -0.0378      0.0000      0.0298      0.0089
        36        -0.0000     -0.0000      0.3355      0.1125      0.0337
        37        -0.0954     -0.0156      0.0000      0.0094      0.0028
        38         0.0000      0.0000      0.1751      0.0307      0.0093
        39        -0.3359      0.1146     -0.0000      0.1260      0.0384
        40         0.2404     -0.0103     -0.0000      0.0579      0.0178
        41         0.0000     -0.0000      0.0634      0.0040      0.0013
        42        -0.0000     -0.0000      0.0195      0.0004      0.0001
        43         0.1232      0.1088     -0.0000      0.0270      0.0086
        44         0.2002      0.0745     -0.0000      0.0456      0.0146
        45         0.0000      0.0000     -0.0591      0.0035      0.0011
        46        -0.0418      0.0855     -0.0000      0.0091      0.0029
        47         0.0000      0.0000     -0.5273      0.2780      0.0913
        48        -0.0098      0.1332     -0.0000      0.0178      0.0059
        49         0.1801     -0.3343     -0.0000      0.1442      0.0478
        50        -0.0000      0.0000     -0.0604      0.0036      0.0012
        51         0.1527      0.3129     -0.0000      0.1212      0.0404
        52         0.2344      0.4474      0.0000      0.2551      0.0857
        53         0.7772      0.0211      0.0000      0.6044      0.2057
        54         0.0544     -0.1812      0.0000      0.0358      0.0124
        55        -0.0000     -0.0000      0.0402      0.0016      0.0006
        56        -0.0000     -0.0000      0.0527      0.0028      0.0010
        57         0.0000      0.0000     -0.2887      0.0834      0.0293
        58        -0.5713     -0.0777     -0.0000      0.3324      0.1170
        59         0.0000      0.0000      0.3611      0.1304      0.0465
        60         0.0215     -0.4406      0.0000      0.1946      0.0695
        61         0.1108      0.0934     -0.0000      0.0210      0.0075
        62         0.4214     -0.2532     -0.0000      0.2417      0.0874
        63        -0.0000     -0.0000     -0.3416      0.1167      0.0426
        64         0.2199     -0.2545     -0.0000      0.1131      0.0416
        65         0.1950     -0.0003      0.0000      0.0380      0.0140
        66        -0.2478     -0.3923      0.0000      0.2153      0.0801
        67         0.1957     -0.1878      0.0000      0.0736      0.0274
        68         0.0000     -0.0000     -0.2354      0.0554      0.0207
        69         0.5195     -0.0300      0.0000      0.2708      0.1015
        70        -0.0000     -0.0000      0.5724      0.3276      0.1230
        71        -0.0000     -0.0000     -0.0584      0.0034      0.0013
        72         0.0000     -0.0000      0.3241      0.1050      0.0397
        73        -0.2706     -0.0009     -0.0000      0.0732      0.0277
        74         0.0328     -0.2296      0.0000      0.0538      0.0204
        75        -0.1004     -0.1055     -0.0000      0.0212      0.0081
[...]
     13  -0.108061D-01 -0.193978D+00 -0.374153D-01 -0.672922D-01 -0.403618D-01
     14   0.313277D-01  0.857095D+00  0.243134D+00 -0.276142D-01 -0.531360D+00
     15   0.000000D+00  0.000000D+00  0.000000D+00  0.000000D+00  0.000000D+00
     16   0.000000D+00  0.000000D+00  0.000000D+00  0.000000D+00  0.000000D+00
               606           607           608           609           610 
      1  -0.166412D+03 -0.166398D+03 -0.166377D+03 -0.166375D+03 -0.166366D+03
      2   0.000000D+00  0.140965D-01  0.000000D+00 -0.154237D-01  0.000000D+00
      3   0.000000D+00  0.372808D-01  0.000000D+00 -0.384308D-01  0.000000D+00
      4  -0.748133D-01  0.000000D+00  0.913313D-01  0.000000D+00 -0.629201D-01
      5   0.000000D+00 -0.484641D-01  0.000000D+00  0.539620D-01  0.000000D+00
      6   0.000000D+00 -0.114004D+00  0.000000D+00  0.102764D+00  0.000000D+00
      7   0.211048D+00  0.000000D+00 -0.270570D+00  0.000000D+00  0.160583D+00
      8   0.515223D-01  0.000000D+00  0.684691D-01  0.000000D+00  0.658786D-01
      9   0.199851D+00  0.000000D+00 -0.247795D+00  0.000000D+00  0.427603D-01
     10   0.000000D+00  0.219350D-01  0.000000D+00 -0.674344D+00  0.000000D+00
     11   0.000000D+00 -0.164624D+01  0.000000D+00 -0.628157D+00  0.000000D+00
     12   0.000000D+00 -0.794435D+00  0.000000D+00 -0.179245D+00  0.000000D+00
     13   0.000000D+00  0.865227D-01  0.000000D+00 -0.299532D-01  0.000000D+00
     14   0.000000D+00 -0.755524D+00  0.000000D+00 -0.662648D+00  0.000000D+00
     15  -0.367546D+00  0.000000D+00  0.176737D+00  0.000000D+00 -0.481798D-01
     16   0.435756D-01  0.000000D+00  0.104819D+00  0.000000D+00  0.201604D+00
               611           612           613           614           615 
      1  -0.166345D+03 -0.166337D+03 -0.166328D+03 -0.166325D+03 -0.166321D+03
      2   0.000000D+00  0.000000D+00  0.716480D-01  0.432884D-01  0.000000D+00
      3   0.000000D+00  0.000000D+00  0.650681D-01  0.437572D-01  0.000000D+00
      4  -0.205879D-01 -0.725821D-01  0.000000D+00  0.000000D+00  0.802834D-01
      5   0.000000D+00  0.000000D+00 -0.253126D+00 -0.101277D+00  0.000000D+00
      6   0.000000D+00  0.000000D+00 -0.198919D+00 -0.127481D+00  0.000000D+00
      7   0.497502D-01  0.204956D+00  0.000000D+00  0.000000D+00 -0.236868D+00
      8   0.131394D+00  0.166137D+00  0.000000D+00  0.000000D+00  0.192343D+00
      9   0.209433D+00  0.260507D+00  0.000000D+00  0.000000D+00 -0.102521D+00
     10   0.000000D+00  0.000000D+00  0.587205D+00  0.300952D+00  0.000000D+00
     11   0.000000D+00  0.000000D+00  0.115202D+01  0.572941D+00  0.000000D+00
     12   0.000000D+00  0.000000D+00  0.143415D+00  0.596513D+00  0.000000D+00
     13   0.000000D+00  0.000000D+00 -0.869913D-01  0.309665D+00  0.000000D+00
     14   0.000000D+00  0.000000D+00  0.698195D+00  0.193704D+00  0.000000D+00
     15  -0.450774D+00 -0.200901D+00  0.000000D+00  0.000000D+00 -0.357731D-01
     16   0.226576D+00  0.314682D+00  0.000000D+00  0.000000D+00  0.338810D+00
               616           617           618           619           620 
      1  -0.166318D+03 -0.166315D+03 -0.166303D+03 -0.166298D+03 -0.166295D+03
      2   0.341607D-01 -0.128854D+00  0.000000D+00 -0.163829D+00  0.000000D+00
      3   0.149957D+00 -0.815463D-01  0.000000D+00  0.229235D+00  0.000000D+00
      4   0.000000D+00  0.000000D+00 -0.141248D+00  0.000000D+00 -0.286410D-02
      5  -0.996649D-01  0.405224D+00  0.000000D+00  0.499830D+00  0.000000D+00
      6  -0.448916D+00  0.236422D+00  0.000000D+00 -0.685471D+00  0.000000D+00
      7   0.000000D+00  0.000000D+00  0.393987D+00  0.000000D+00  0.618110D-02
      8   0.000000D+00  0.000000D+00 -0.313794D+00  0.000000D+00 -0.143653D+00
      9   0.000000D+00  0.000000D+00  0.872425D+00  0.000000D+00  0.250339D+00
     10  -0.229297D+00 -0.783475D-02  0.000000D+00  0.130421D+01  0.000000D+00
     11   0.869056D+00 -0.306350D+00  0.000000D+00 -0.180444D+01  0.000000D+00
     12   0.197036D-01 -0.300768D+00  0.000000D+00  0.115293D+01  0.000000D+00
     13   0.179683D-01  0.217620D+00  0.000000D+00 -0.262177D+00  0.000000D+00
     14   0.489434D+00  0.690237D+00  0.000000D+00  0.402979D+00  0.000000D+00
     15   0.000000D+00  0.000000D+00 -0.784168D+00  0.000000D+00 -0.520603D+00
     16   0.000000D+00  0.000000D+00 -0.496625D+00  0.000000D+00 -0.222996D+00
               621           622           623           624           625 
      1  -0.166285D+03 -0.166271D+03 -0.166261D+03 -0.166256D+03 -0.166229D+03
      2   0.598596D-01  0.000000D+00  0.772898D-01  0.000000D+00 -0.281981D-01
      3   0.158350D+00  0.000000D+00  0.101904D+00  0.000000D+00  0.274682D-01
      4   0.000000D+00 -0.907135D-01  0.000000D+00 -0.756344D-01  0.000000D+00
      5  -0.175716D+00  0.000000D+00 -0.234039D+00  0.000000D+00  0.945462D-01
      6  -0.478624D+00  0.000000D+00 -0.323399D+00  0.000000D+00 -0.981877D-01
      7   0.000000D+00  0.261288D+00  0.000000D+00  0.216828D+00  0.000000D+00
      8   0.000000D+00 -0.742302D-01  0.000000D+00  0.120348D+00  0.000000D+00
      9   0.000000D+00  0.429140D+00  0.000000D+00  0.183975D+00  0.000000D+00
     10   0.766534D+00  0.000000D+00  0.838306D+00  0.000000D+00  0.456735D-01
     11   0.816265D+00  0.000000D+00  0.500158D+00  0.000000D+00 -0.251052D+00
     12   0.855498D+00  0.000000D+00  0.760416D+00  0.000000D+00  0.285914D-01
     13   0.499653D-01  0.000000D+00  0.807535D-01  0.000000D+00 -0.694913D-01
     14   0.133395D+01  0.000000D+00  0.123706D+01  0.000000D+00  0.257178D+00
     15   0.000000D+00 -0.299572D+00  0.000000D+00 -0.161562D+00  0.000000D+00
     16   0.000000D+00 -0.103133D+00  0.000000D+00  0.147333D+00  0.000000D+00
               626           627           628           629           630 
      1  -0.166217D+03 -0.166216D+03 -0.166209D+03 -0.166207D+03 -0.166202D+03
      2   0.130080D+00  0.000000D+00 -0.620089D-01  0.000000D+00  0.261245D-01
      3  -0.797308D-01  0.000000D+00 -0.184258D-01  0.000000D+00  0.577805D-01
      4   0.000000D+00  0.138123D+00  0.000000D+00  0.798648D-01  0.000000D+00
      5  -0.411059D+00  0.000000D+00  0.189148D+00  0.000000D+00 -0.872572D-01
      6   0.229297D+00  0.000000D+00  0.573631D-01  0.000000D+00 -0.140355D+00
      7   0.000000D+00 -0.409606D+00  0.000000D+00 -0.236109D+00  0.000000D+00
      8   0.000000D+00  0.290093D+00  0.000000D+00  0.688003D-01  0.000000D+00
      9   0.000000D+00 -0.679425D+00  0.000000D+00 -0.526368D+00  0.000000D+00
     10  -0.313136D+00  0.000000D+00  0.409007D+00  0.000000D+00  0.264321D+00
     11   0.220178D+01  0.000000D+00 -0.526462D+00  0.000000D+00 -0.808543D+00
     12  -0.841077D-01  0.000000D+00  0.169911D-02  0.000000D+00  0.217392D+00
     13   0.608809D-01  0.000000D+00 -0.387306D-01  0.000000D+00 -0.963192D-01
     14   0.506972D+00  0.000000D+00 -0.288141D-01  0.000000D+00  0.167612D+00
     15   0.000000D+00  0.478568D+00  0.000000D+00  0.639319D+00  0.000000D+00
     16   0.000000D+00  0.496719D+00  0.000000D+00  0.132805D+00  0.000000D+00
               631           632           633           634           635 
      1  -0.166193D+03 -0.166186D+03 -0.166140D+03 -0.166135D+03 -0.166133D+03
      2   0.000000D+00  0.294080D-02  0.165280D+00  0.107926D+00  0.000000D+00
      3   0.000000D+00  0.129947D+00 -0.688828D-01 -0.113291D+00  0.000000D+00
      4   0.118846D+00  0.000000D+00  0.000000D+00  0.000000D+00  0.185127D+00
      5   0.000000D+00  0.197617D-02 -0.522674D+00 -0.324825D+00  0.000000D+00
      6   0.000000D+00 -0.389637D+00  0.207101D+00  0.337377D+00  0.000000D+00
      7  -0.365512D+00  0.000000D+00  0.000000D+00  0.000000D+00 -0.562531D+00
      8  -0.401501D+00  0.000000D+00  0.000000D+00  0.000000D+00  0.661460D+00
      9  -0.117429D+00  0.000000D+00  0.000000D+00  0.000000D+00 -0.131255D+01
     10   0.000000D+00  0.378341D+00 -0.167067D+00 -0.633429D-01  0.000000D+00
     11   0.000000D+00 -0.419183D+00  0.922143D+00 -0.516269D+00  0.000000D+00
     12   0.000000D+00  0.120343D+00  0.514212D+00  0.670722D-01  0.000000D+00
     13   0.000000D+00  0.137143D+00 -0.720826D-01 -0.117532D+00  0.000000D+00
     14   0.000000D+00  0.462509D+00 -0.367480D+00 -0.377790D+00  0.000000D+00
     15   0.146029D+00  0.000000D+00  0.000000D+00  0.000000D+00  0.131600D+01
     16  -0.651649D+00  0.000000D+00  0.000000D+00  0.000000D+00  0.101131D+01
               636           637           638           639           640 
      1  -0.166097D+03 -0.166069D+03 -0.166042D+03 -0.166037D+03 -0.166017D+03
      2  -0.187743D-01  0.000000D+00  0.705702D-01  0.000000D+00  0.229075D-01
      3  -0.313703D-01  0.000000D+00 -0.548813D-01  0.000000D+00 -0.330702D-01
      4   0.000000D+00  0.506255D-01  0.000000D+00  0.353804D-01  0.000000D+00
      5   0.613589D-01  0.000000D+00 -0.236761D+00  0.000000D+00 -0.683385D-01
      6   0.103893D+00  0.000000D+00  0.172296D+00  0.000000D+00  0.106654D+00
      7   0.000000D+00 -0.161178D+00  0.000000D+00 -0.103907D+00  0.000000D+00
      8   0.000000D+00  0.661440D-01  0.000000D+00  0.563031D-01  0.000000D+00
      9   0.000000D+00 -0.350993D+00  0.000000D+00 -0.148863D+00  0.000000D+00
     10  -0.277875D-01  0.000000D+00 -0.523802D+00  0.000000D+00 -0.230383D+00
     11   0.239634D+00  0.000000D+00  0.871880D+00  0.000000D+00 -0.894825D+00
     12  -0.811164D-01  0.000000D+00 -0.143785D+01  0.000000D+00 -0.124734D+01
     13  -0.148731D+00  0.000000D+00  0.335359D-01  0.000000D+00  0.251466D+00
     14  -0.864045D-01  0.000000D+00 -0.822533D+00  0.000000D+00 -0.187059D+00
     15   0.000000D+00  0.458552D+00  0.000000D+00  0.208055D+00  0.000000D+00
     16   0.000000D+00  0.334578D+00  0.000000D+00 -0.187231D+00  0.000000D+00
               641           642           643           644           645 
      1  -0.165996D+03 -0.165968D+03 -0.165932D+03 -0.165927D+03 -0.165921D+03
      2  -0.728160D-01  0.000000D+00  0.000000D+00  0.000000D+00  0.676262D-01
      3  -0.948577D-01  0.000000D+00  0.000000D+00  0.000000D+00  0.619934D-01
      4   0.000000D+00 -0.337345D-02 -0.442245D-02 -0.591781D-01  0.000000D+00
      5   0.224501D+00  0.000000D+00  0.000000D+00  0.000000D+00 -0.242899D+00
      6   0.305564D+00  0.000000D+00  0.000000D+00  0.000000D+00 -0.213092D+00
      7   0.000000D+00  0.894469D-02 -0.694844D-02  0.181400D+00  0.000000D+00
      8   0.000000D+00  0.127467D+00  0.143077D+00 -0.807133D-01  0.000000D+00
      9   0.000000D+00 -0.118879D+00 -0.121715D+00  0.266130D+00  0.000000D+00
     10   0.198128D+00  0.000000D+00  0.000000D+00  0.000000D+00  0.353146D+00
     11   0.408402D-01  0.000000D+00  0.000000D+00  0.000000D+00 -0.269367D+00
     12  -0.135514D+00  0.000000D+00  0.000000D+00  0.000000D+00  0.923636D+00
     13  -0.740131D-01  0.000000D+00  0.000000D+00  0.000000D+00 -0.212324D+00
     14   0.966908D-01  0.000000D+00  0.000000D+00  0.000000D+00  0.617752D+00
     15   0.000000D+00  0.111516D+00  0.287938D-01 -0.413284D+00  0.000000D+00
     16   0.000000D+00 -0.588184D-02  0.183077D+00 -0.827639D-01  0.000000D+00
               646           647           648           649           650 
      1  -0.165909D+03 -0.165867D+03 -0.165826D+03 -0.165817D+03 -0.165800D+03
      2   0.122591D-01 -0.107391D-01 -0.868084D-01  0.114592D-01  0.000000D+00
      3  -0.630148D-01 -0.801356D-01 -0.511583D-01 -0.989442D-01  0.000000D+00
      4   0.000000D+00  0.000000D+00  0.000000D+00  0.000000D+00  0.222753D+00
      5  -0.295507D-01  0.435790D-01  0.298963D+00 -0.280806D-01  0.000000D+00
      6   0.203205D+00  0.295500D+00  0.198804D+00  0.346617D+00  0.000000D+00
      7   0.000000D+00  0.000000D+00  0.000000D+00  0.000000D+00 -0.761880D+00
      8   0.000000D+00  0.000000D+00  0.000000D+00  0.000000D+00  0.289013D+00
      9   0.000000D+00  0.000000D+00  0.000000D+00  0.000000D+00 -0.129515D+01
     10   0.663469D-01 -0.124736D+01 -0.528103D+00  0.144939D+00  0.000000D+00
     11  -0.425299D-01  0.299852D+00 -0.318074D+00 -0.952718D+00  0.000000D+00
     12  -0.144025D-01 -0.731049D+00 -0.246323D+00 -0.233485D+00  0.000000D+00
     13  -0.190519D+00  0.117312D+00 -0.432262D-02  0.534363D-01  0.000000D+00
     14  -0.139662D-01 -0.746886D+00 -0.878556D-01 -0.263328D+00  0.000000D+00
     15   0.000000D+00  0.000000D+00  0.000000D+00  0.000000D+00  0.121951D+01
     16   0.000000D+00  0.000000D+00  0.000000D+00  0.000000D+00  0.392090D+00
               651           652           653           654           655 
      1  -0.165786D+03 -0.165769D+03 -0.165745D+03 -0.165736D+03 -0.165696D+03
      2  -0.862750D-02 -0.499509D-01 -0.153680D-01  0.000000D+00  0.000000D+00
      3  -0.921364D-02  0.389433D-01 -0.132669D-01  0.000000D+00  0.000000D+00
      4   0.000000D+00  0.000000D+00  0.000000D+00 -0.311216D-01  0.291516D-01
      5   0.541621D-01  0.166790D+00  0.496284D-01  0.000000D+00  0.000000D+00
      6   0.149159D-01 -0.139182D+00  0.572920D-01  0.000000D+00  0.000000D+00
      7   0.000000D+00  0.000000D+00  0.000000D+00  0.109784D+00 -0.106027D+00
      8   0.000000D+00  0.000000D+00  0.000000D+00 -0.958041D-01  0.472379D-01
      9   0.000000D+00  0.000000D+00  0.000000D+00  0.244159D+00 -0.189201D+00
     10   0.180637D+00  0.473846D+00  0.302628D+00  0.000000D+00  0.000000D+00
     11  -0.119377D+00 -0.854630D-01 -0.528865D+00  0.000000D+00  0.000000D+00
     12  -0.117930D+00  0.311325D-01  0.241807D+00  0.000000D+00  0.000000D+00
     13   0.931756D-02  0.154403D+00 -0.145208D+00  0.000000D+00  0.000000D+00
     14   0.503341D+00  0.457119D+00 -0.533381D+00  0.000000D+00  0.000000D+00
     15   0.000000D+00  0.000000D+00  0.000000D+00 -0.201180D+00  0.552950D+00
     16   0.000000D+00  0.000000D+00  0.000000D+00  0.350788D+00  0.711599D-01
               656           657           658           659           660 
      1  -0.165692D+03 -0.165685D+03 -0.165656D+03 -0.165645D+03 -0.165582D+03
      2  -0.390166D-01  0.569183D-01  0.000000D+00  0.864971D-02  0.761092D-01
      3   0.999425D-02 -0.750139D-02  0.000000D+00 -0.849293D-01  0.244877D-01
      4   0.000000D+00  0.000000D+00  0.222735D+00  0.000000D+00  0.000000D+00
      5   0.135165D+00 -0.205707D+00  0.000000D+00 -0.167121D-01 -0.275775D+00
      6  -0.288607D-01  0.892898D-02  0.000000D+00  0.304214D+00 -0.736004D-01
      7   0.000000D+00  0.000000D+00 -0.761151D+00  0.000000D+00  0.000000D+00
      8   0.000000D+00  0.000000D+00  0.718183D+00  0.000000D+00  0.000000D+00
      9   0.000000D+00  0.000000D+00 -0.164670D+01  0.000000D+00  0.000000D+00
     10   0.372875D+00 -0.151037D+00  0.000000D+00 -0.220564D+00 -0.131633D+00
     11  -0.414533D+00  0.578526D+00  0.000000D+00 -0.294967D+00  0.758133D+00
     12   0.138395D+00  0.976158D-01  0.000000D+00  0.173978D+00 -0.369068D+00
     13  -0.110306D+00  0.589795D-01  0.000000D+00  0.190852D+00  0.155217D+00
     14   0.514525D-01  0.196785D+00  0.000000D+00 -0.338636D+00  0.657937D-01
     15   0.000000D+00  0.000000D+00  0.161267D+01  0.000000D+00  0.000000D+00
     16   0.000000D+00  0.000000D+00  0.100580D+01  0.000000D+00  0.000000D+00
               661           662           663           664           665 
      1  -0.165575D+03 -0.165545D+03 -0.165532D+03 -0.165519D+03 -0.165501D+03
      2   0.254088D-01  0.000000D+00 -0.107177D+00 -0.127572D-01  0.148730D+00
      3  -0.219482D-01  0.000000D+00 -0.115975D-01 -0.520153D-02  0.451402D-01
      4   0.000000D+00 -0.209246D-01  0.000000D+00  0.000000D+00  0.000000D+00
      5  -0.835497D-01  0.000000D+00  0.396703D+00  0.363803D-01 -0.597912D+00
      6   0.571205D-01  0.000000D+00  0.335867D-01  0.164374D-01 -0.190323D+00
      7   0.000000D+00  0.908727D-01  0.000000D+00  0.000000D+00  0.000000D+00
      8   0.000000D+00 -0.163640D+00  0.000000D+00  0.000000D+00  0.000000D+00
      9   0.000000D+00  0.307731D+00  0.000000D+00  0.000000D+00  0.000000D+00
     10   0.111477D+00  0.000000D+00  0.465607D-01  0.246217D+00  0.202597D+00
     11   0.256145D+00  0.000000D+00 -0.605933D+00  0.316210D+00  0.178061D+01
     12   0.149660D+00  0.000000D+00 -0.381198D+00  0.170852D-01  0.462637D-01
     13  -0.481421D-01  0.000000D+00 -0.281449D-01  0.683070D-01  0.978581D-02
     14   0.130691D+00  0.000000D+00  0.986983D-01  0.105265D-01  0.553072D+00
     15   0.000000D+00 -0.158131D+00  0.000000D+00  0.000000D+00  0.000000D+00
     16   0.000000D+00 -0.258748D+00  0.000000D+00  0.000000D+00  0.000000D+00
               666           667           668           669           670 
      1  -0.165408D+03 -0.165391D+03 -0.165336D+03 -0.165299D+03 -0.165285D+03
      2   0.000000D+00  0.925535D-01 -0.154723D+00 -0.234188D-01  0.168720D-01
      3   0.000000D+00 -0.727791D-01 -0.565579D-01  0.189228D-01 -0.472236D-01
      4  -0.501127D-01  0.000000D+00  0.000000D+00  0.000000D+00  0.000000D+00
      5   0.000000D+00 -0.346498D+00  0.612711D+00  0.714070D-01 -0.513719D-01
      6   0.000000D+00  0.291377D+00  0.242153D+00 -0.701640D-01  0.183888D+00
      7   0.210630D+00  0.000000D+00  0.000000D+00  0.000000D+00  0.000000D+00
      8  -0.146215D-01  0.000000D+00  0.000000D+00  0.000000D+00  0.000000D+00
      9   0.259315D+00  0.000000D+00  0.000000D+00  0.000000D+00  0.000000D+00
     10   0.000000D+00 -0.592544D+00  0.149129D+00 -0.105668D-01 -0.484971D+00
     11   0.000000D+00  0.955051D+00 -0.241381D+01  0.114062D+00  0.830380D-01
     12   0.000000D+00 -0.400259D+00  0.183692D+00 -0.531177D-01 -0.516087D+00
     13   0.000000D+00  0.101823D+00 -0.100617D+00  0.257355D-01  0.175248D+00
     14   0.000000D+00 -0.145682D+00 -0.854220D+00  0.953840D-01 -0.295377D+00
     15  -0.219226D-01  0.000000D+00  0.000000D+00  0.000000D+00  0.000000D+00
     16  -0.115861D-01  0.000000D+00  0.000000D+00  0.000000D+00  0.000000D+00
               671           672           673           674           675 
      1  -0.165277D+03 -0.165212D+03 -0.165061D+03 -0.164991D+03 -0.164770D+03
      2  -0.685285D-01  0.984135D-02 -0.302923D-01  0.201525D-01  0.108311D-01
      3   0.860112D-01  0.131793D+00  0.156062D-01 -0.173392D-01 -0.251680D-01
      4   0.000000D+00  0.000000D+00  0.000000D+00  0.000000D+00  0.000000D+00
      5   0.274139D+00 -0.757336D-01  0.175401D+00 -0.643047D-01  0.270255D-01
      6  -0.325962D+00 -0.551063D+00 -0.930394D-02  0.771733D-01  0.147314D+00
      7   0.000000D+00  0.000000D+00  0.000000D+00  0.000000D+00  0.000000D+00
      8   0.000000D+00  0.000000D+00  0.000000D+00  0.000000D+00  0.000000D+00
      9   0.000000D+00  0.000000D+00  0.000000D+00  0.000000D+00  0.000000D+00
     10   0.859180D+00  0.102951D+01  0.170541D+00 -0.210435D+00 -0.227784D+00
     11  -0.149035D+01 -0.393469D-01 -0.444577D+00 -0.150465D-02 -0.799937D-01
     12   0.152026D+00  0.683448D+00  0.199879D+00 -0.573336D+00 -0.131227D+00
     13   0.235865D-01 -0.620334D-01 -0.233474D+00  0.394038D-01  0.951466D-01
     14  -0.133381D+00  0.918074D+00 -0.747266D-01 -0.337893D+00 -0.560130D-01
     15   0.000000D+00  0.000000D+00  0.000000D+00  0.000000D+00  0.000000D+00
     16   0.000000D+00  0.000000D+00  0.000000D+00  0.000000D+00  0.000000D+00
 Unable to Open any file for archive entry.
 1\1\GINC-HEL24\SP\RBLYP TD-FC\Gen\C1H3N1O1\SABYASACHI\21-Mar-2022\0\\#
 P TD(Nstates=10000) blyp/Gen SCF(maxcycles=100) Int(Grid=ultrafine)\\x
 GDB7_00001_tier4.com\\0,1\O,0,-1.028621,-0.395177,0.\N,0,0.,0.526228,0
 .\C,0,1.132746,-0.030907,0.\H,0,-1.816572,0.151791,0.\H,0,1.994262,0.6
 23439,0.\H,0,1.254802,-1.111965,0.\\Version=EM64L-G16RevC.01\State=1-A
 '\HF=-169.6618285\RMSD=1.954e-09\PG=CS [SG(C1H3N1O1)]\\@
 The archive entry for this job was punched.


 CONFIDENCE IS WHAT YOU FEEL BEFORE YOU FULLY
 COMPREHEND THE SITUATION.
 Job cpu time:       0 days  0 hours  7 minutes  6.2 seconds.
 Elapsed time:       0 days  0 hours  0 minutes 53.6 seconds.
 File lengths (MBytes):  RWF=    227 Int=      0 D2E=      0 Chk=    127 Scr=      1
 Normal termination of Gaussian 16 at Mon Mar 21 20:07:32 2022.
