 Entering Gaussian System, Link 0=g16
 Input=000014.com
 Output=000014.log
 Initial command:
 /home/sabyasachi/g16/l1.exe "/scratch/sabyasachi/PBS_7975917.helios/Gau-24518.inp" -scrdir="/scratch/sabyasachi/PBS_7975917.helios/"
 Entering Link 1 = /home/sabyasachi/g16/l1.exe PID=     24519.
  
 Copyright (c) 1988-2019, Gaussian, Inc.  All Rights Reserved.
  
 This is part of the Gaussian(R) 16 program.  It is based on
 the Gaussian(R) 09 system (copyright 2009, Gaussian, Inc.),
 the Gaussian(R) 03 system (copyright 2003, Gaussian, Inc.),
 the Gaussian(R) 98 system (copyright 1998, Gaussian, Inc.),
 the Gaussian(R) 94 system (copyright 1995, Gaussian, Inc.),
 the Gaussian 92(TM) system (copyright 1992, Gaussian, Inc.),
 the Gaussian 90(TM) system (copyright 1990, Gaussian, Inc.),
 the Gaussian 88(TM) system (copyright 1988, Gaussian, Inc.),
 the Gaussian 86(TM) system (copyright 1986, Carnegie Mellon
 University), and the Gaussian 82(TM) system (copyright 1983,
 Carnegie Mellon University). Gaussian is a federally registered
 trademark of Gaussian, Inc.
  
 This software contains proprietary and confidential information,
 including trade secrets, belonging to Gaussian, Inc.
  
 This software is provided under written license and may be
 used, copied, transmitted, or stored only in accord with that
 written license.
  
 The following legend is applicable only to US Government
 contracts under FAR:
  
                    RESTRICTED RIGHTS LEGEND
  
 Use, reproduction and disclosure by the US Government is
 subject to restrictions as set forth in subparagraphs (a)
 and (c) of the Commercial Computer Software - Restricted
 Rights clause in FAR 52.227-19.
  
 Gaussian, Inc.
 340 Quinnipiac St., Bldg. 40, Wallingford CT 06492
  
  
 ---------------------------------------------------------------
 Warning -- This program may not be used in any manner that
 competes with the business of Gaussian, Inc. or will provide
 assistance to any competitor of Gaussian, Inc.  The licensee
 of this program is prohibited from giving any competitor of
 Gaussian, Inc. access to this program.  By using this program,
 the user acknowledges that Gaussian, Inc. is engaged in the
 business of creating and licensing software in the field of
 computational chemistry and represents and warrants to the
 licensee that it is not a competitor of Gaussian, Inc. and that
 it will not use this program in any manner prohibited above.
 ---------------------------------------------------------------
  

 Cite this work as:
 Gaussian 16, Revision C.01,
 M. J. Frisch, G. W. Trucks, H. B. Schlegel, G. E. Scuseria, 
 M. A. Robb, J. R. Cheeseman, G. Scalmani, V. Barone, 
 G. A. Petersson, H. Nakatsuji, X. Li, M. Caricato, A. V. Marenich, 
 J. Bloino, B. G. Janesko, R. Gomperts, B. Mennucci, H. P. Hratchian, 
 J. V. Ortiz, A. F. Izmaylov, J. L. Sonnenberg, D. Williams-Young, 
 F. Ding, F. Lipparini, F. Egidi, J. Goings, B. Peng, A. Petrone, 
 T. Henderson, D. Ranasinghe, V. G. Zakrzewski, J. Gao, N. Rega, 
 G. Zheng, W. Liang, M. Hada, M. Ehara, K. Toyota, R. Fukuda, 
 J. Hasegawa, M. Ishida, T. Nakajima, Y. Honda, O. Kitao, H. Nakai, 
 T. Vreven, K. Throssell, J. A. Montgomery, Jr., J. E. Peralta, 
 F. Ogliaro, M. J. Bearpark, J. J. Heyd, E. N. Brothers, K. N. Kudin, 
 V. N. Staroverov, T. A. Keith, R. Kobayashi, J. Normand, 
 K. Raghavachari, A. P. Rendell, J. C. Burant, S. S. Iyengar, 
 J. Tomasi, M. Cossi, J. M. Millam, M. Klene, C. Adamo, R. Cammi, 
 J. W. Ochterski, R. L. Martin, K. Morokuma, O. Farkas, 
 J. B. Foresman, and D. J. Fox, Gaussian, Inc., Wallingford CT, 2019.
 
 ******************************************
 Gaussian 16:  EM64L-G16RevC.01  3-Jul-2019
                21-Mar-2022 
 ******************************************
 %mem=64gb
 %nproc=8
 Will use up to    8 processors via shared memory.
 --------------------------------------------------------------------
 #P TD(Nstates=10000) blyp/Gen SCF(maxcycles=100) Int(Grid=ultrafine)
 --------------------------------------------------------------------
 1/38=1,172=1/1;
 2/12=2,17=6,18=5,40=1/2;
 3/5=7,11=9,25=1,30=1,74=402,75=-5/1,2,3,8;
 4//1;
 5/5=2,7=100,38=5/2;
 8/6=1,10=1,108=10000/1;
 9/41=10000,42=1,70=2/14;
 6/7=2,8=2,9=2,10=2/1;
 99/5=1,9=1/99;
 Leave Link    1 at Mon Mar 21 20:03:10 2022, MaxMem=  8589934592 cpu:               0.4 elap:               0.1
 (Enter /home/sabyasachi/g16/l101.exe)
 ---------------------
 xGDB7_00001_tier4.com
 ---------------------
 Symbolic Z-matrix:
 Charge =  0 Multiplicity = 1
 6                     0.        1.26773  -0.25908 
 6                     0.        0.        0.58555 
 6                     0.       -1.26773  -0.25908 
 1                     0.        2.16431   0.36309 
 1                    -0.88145   1.30768  -0.90365 
 1                     0.88145   1.30768  -0.90365 
 1                    -0.87453   0.        1.24206 
 1                     0.87453   0.        1.24206 
 1                    -0.88145  -1.30768  -0.90365 
 1                     0.       -2.16431   0.36309 
 1                     0.88145  -1.30768  -0.90365 
 
 ITRead=  0  0  0  0  0  0  0  0  0  0  0
 MicOpt= -1 -1 -1 -1 -1 -1 -1 -1 -1 -1 -1
 NAtoms=     11 NQM=       11 NQMF=       0 NMMI=      0 NMMIF=      0
                NMic=       0 NMicF=      0.
                    Isotopes and Nuclear Properties:
 (Nuclear quadrupole moments (NQMom) in fm**2, nuclear magnetic moments (NMagM)
  in nuclear magnetons)

  Atom         1           2           3           4           5           6           7           8           9          10
 IAtWgt=          12          12          12           1           1           1           1           1           1           1
 AtmWgt=  12.0000000  12.0000000  12.0000000   1.0078250   1.0078250   1.0078250   1.0078250   1.0078250   1.0078250   1.0078250
 NucSpn=           0           0           0           1           1           1           1           1           1           1
 AtZEff=  -0.0000000  -0.0000000  -0.0000000  -0.0000000  -0.0000000  -0.0000000  -0.0000000  -0.0000000  -0.0000000  -0.0000000
 NQMom=    0.0000000   0.0000000   0.0000000   0.0000000   0.0000000   0.0000000   0.0000000   0.0000000   0.0000000   0.0000000
 NMagM=    0.0000000   0.0000000   0.0000000   2.7928460   2.7928460   2.7928460   2.7928460   2.7928460   2.7928460   2.7928460
 AtZNuc=   6.0000000   6.0000000   6.0000000   1.0000000   1.0000000   1.0000000   1.0000000   1.0000000   1.0000000   1.0000000

  Atom        11
 IAtWgt=           1
 AtmWgt=   1.0078250
 NucSpn=           1
 AtZEff=  -0.0000000
 NQMom=    0.0000000
 NMagM=    2.7928460
 AtZNuc=   1.0000000
 Leave Link  101 at Mon Mar 21 20:03:10 2022, MaxMem=  8589934592 cpu:               0.6 elap:               0.1
 (Enter /home/sabyasachi/g16/l202.exe)
                          Input orientation:                          
 ---------------------------------------------------------------------
 Center     Atomic      Atomic             Coordinates (Angstroms)
 Number     Number       Type             X           Y           Z
 ---------------------------------------------------------------------
      1          6           0        0.000000    1.267731   -0.259082
      2          6           0        0.000000    0.000000    0.585552
      3          6           0        0.000000   -1.267731   -0.259082
      4          1           0        0.000000    2.164308    0.363087
      5          1           0       -0.881453    1.307675   -0.903652
      6          1           0        0.881453    1.307675   -0.903652
      7          1           0       -0.874532    0.000000    1.242055
      8          1           0        0.874532    0.000000    1.242055
      9          1           0       -0.881453   -1.307675   -0.903652
     10          1           0        0.000000   -2.164308    0.363087
     11          1           0        0.881453   -1.307675   -0.903652
 ---------------------------------------------------------------------
                    Distance matrix (angstroms):
                    1          2          3          4          5
     1  C    0.000000
     2  C    1.523335   0.000000
     3  C    2.535462   1.523335   0.000000
     4  H    1.091304   2.175711   3.487977   0.000000
     5  H    1.092715   2.169032   2.797346   1.765052   0.000000
     6  H    1.092715   2.169032   2.797346   1.765052   1.762906
     7  H    2.150665   1.093528   2.150665   2.494318   2.512791
     8  H    2.150665   1.093528   2.150665   2.494318   3.065543
     9  H    2.797346   2.169032   1.092715   3.799507   2.615350
    10  H    3.487977   2.175711   1.091304   4.328616   3.799507
    11  H    2.797346   2.169032   1.092715   3.799507   3.154028
                    6          7          8          9         10
     6  H    0.000000
     7  H    3.065543   0.000000
     8  H    2.512791   1.749064   0.000000
     9  H    3.154028   2.512791   3.065543   0.000000
    10  H    3.799507   2.494318   2.494318   1.765052   0.000000
    11  H    2.615350   3.065543   2.512791   1.762906   1.765052
                   11
    11  H    0.000000
 Stoichiometry    C3H8
 Framework group  C2V[C2(C),SGV(C2H2),SGV'(H2),X(H4)]
 Deg. of freedom     9
 Full point group                 C2V     NOp   4
 Largest Abelian subgroup         C2V     NOp   4
 Largest concise Abelian subgroup C2V     NOp   4
                         Standard orientation:                         
 ---------------------------------------------------------------------
 Center     Atomic      Atomic             Coordinates (Angstroms)
 Number     Number       Type             X           Y           Z
 ---------------------------------------------------------------------
      1          6           0        0.000000    1.267731   -0.259082
      2          6           0       -0.000000   -0.000000    0.585552
      3          6           0       -0.000000   -1.267731   -0.259082
      4          1           0        0.000000    2.164308    0.363087
      5          1           0       -0.881453    1.307675   -0.903652
      6          1           0        0.881453    1.307675   -0.903652
      7          1           0       -0.874532    0.000000    1.242055
      8          1           0        0.874532   -0.000000    1.242055
      9          1           0       -0.881453   -1.307675   -0.903652
     10          1           0       -0.000000   -2.164308    0.363087
     11          1           0        0.881453   -1.307675   -0.903652
 ---------------------------------------------------------------------
 Rotational constants (GHZ):          29.6189661           8.4822903           7.5098267
 Leave Link  202 at Mon Mar 21 20:03:11 2022, MaxMem=  8589934592 cpu:               0.1 elap:               0.0
 (Enter /home/sabyasachi/g16/l301.exe)
 General basis read from cards:  (5D, 7F)
 Centers:       4      5      6      7      8      9     10     11
 S 3 1.00
     Exponent=  1.3010701000D+01 Coefficients=  1.9682158000D-02
     Exponent=  1.9622572000D+00 Coefficients=  1.3796524000D-01
     Exponent=  4.4453796000D-01 Coefficients=  4.7831935000D-01
 S 1 1.00
     Exponent=  1.2194962000D-01 Coefficients=  1.0000000000D+00
 P 1 1.00
     Exponent=  8.0000000000D-01 Coefficients=  1.0000000000D+00
 P 1 1.00
     Exponent=  1.1704099050D-01 Coefficients=  1.0000000000D+00
 ****
 Centers:       1      2      3
 S 5 1.00
     Exponent=  1.2384016938D+03 Coefficients=  5.4568832082D-03
     Exponent=  1.8629004992D+02 Coefficients=  4.0638409211D-02
     Exponent=  4.2251176346D+01 Coefficients=  1.8025593888D-01
     Exponent=  1.1676557932D+01 Coefficients=  4.6315121755D-01
     Exponent=  3.5930506482D+00 Coefficients=  4.4087173314D-01
 S 1 1.00
     Exponent=  4.0245147363D-01 Coefficients=  1.0000000000D+00
 S 1 1.00
     Exponent=  1.3090182668D-01 Coefficients=  1.0000000000D+00
 S 1 1.00
     Exponent=  6.7053540256D-02 Coefficients=  1.0000000000D+00
 P 3 1.00
     Exponent=  9.4680970621D+00 Coefficients=  3.8387871728D-02
     Exponent=  2.0103545142D+00 Coefficients=  2.1117025112D-01
     Exponent=  5.4771004707D-01 Coefficients=  5.1328172114D-01
 P 1 1.00
     Exponent=  1.5268613795D-01 Coefficients=  1.0000000000D+00
 D 1 1.00
     Exponent=  8.0000000000D-01 Coefficients=  1.0000000000D+00
 D 1 1.00
     Exponent=  1.1713185140D-01 Coefficients=  1.0000000000D+00
 ****
 Ernie: Thresh=  0.10000D-02 Tol=  0.10000D-05 Strict=F.
 There are    48 symmetry adapted cartesian basis functions of A1  symmetry.
 There are    20 symmetry adapted cartesian basis functions of A2  symmetry.
 There are    26 symmetry adapted cartesian basis functions of B1  symmetry.
 There are    36 symmetry adapted cartesian basis functions of B2  symmetry.
 There are    44 symmetry adapted basis functions of A1  symmetry.
 There are    20 symmetry adapted basis functions of A2  symmetry.
 There are    26 symmetry adapted basis functions of B1  symmetry.
 There are    34 symmetry adapted basis functions of B2  symmetry.
   124 basis functions,   176 primitive gaussians,   130 cartesian basis functions
    13 alpha electrons       13 beta electrons
       nuclear repulsion energy        82.7165400226 Hartrees.
 IExCor=  402 DFT=T Ex=B Corr=LYP ExCW=0 ScaHFX=  0.000000
 ScaDFX=  1.000000  1.000000  1.000000  1.000000 ScalE2=  1.000000  1.000000
 IRadAn=      5 IRanWt=     -1 IRanGd=            0 ICorTp=0 IEmpDi=  4
 NAtoms=   11 NActive=   11 NUniq=    5 SFac= 4.00D+00 NAtFMM=   60 NAOKFM=F Big=F
 Integral buffers will be    131072 words long.
 Regular integral format.
 Two-electron integral symmetry is turned on.
 Leave Link  301 at Mon Mar 21 20:03:11 2022, MaxMem=  8589934592 cpu:               0.5 elap:               0.1
 (Enter /home/sabyasachi/g16/l302.exe)
 NPDir=0 NMtPBC=     1 NCelOv=     1 NCel=       1 NClECP=     1 NCelD=      1
         NCelK=      1 NCelE2=     1 NClLst=     1 CellRange=     0.0.
 One-electron integrals computed using PRISM.
 One-electron integral symmetry used in STVInt
 NBasis=   124 RedAO= T EigKep=  2.54D-04  NBF=    44    20    26    34
 NBsUse=   124 1.00D-06 EigRej= -1.00D+00 NBFU=    44    20    26    34
 Precomputing XC quadrature grid using
 IXCGrd= 4 IRadAn=           5 IRanWt=          -1 IRanGd=           0 AccXCQ= 0.00D+00.
 Generated NRdTot=       0 NPtTot=           0 NUsed=           0 NTot=          32
 NSgBfM=   130   130   130   130   130 MxSgAt=    11 MxSgA2=    11.
 Leave Link  302 at Mon Mar 21 20:03:11 2022, MaxMem=  8589934592 cpu:               1.1 elap:               0.2
 (Enter /home/sabyasachi/g16/l303.exe)
 DipDrv:  MaxL=1.
 Leave Link  303 at Mon Mar 21 20:03:11 2022, MaxMem=  8589934592 cpu:               0.2 elap:               0.0
 (Enter /home/sabyasachi/g16/l308.exe)
 Leave Link  308 at Mon Mar 21 20:03:11 2022, MaxMem=  8589934592 cpu:               0.2 elap:               0.1
 (Enter /home/sabyasachi/g16/l401.exe)
 ExpMin= 6.71D-02 ExpMax= 1.24D+03 ExpMxC= 1.86D+02 IAcc=3 IRadAn=         5 AccDes= 0.00D+00
 Harris functional with IExCor=  402 and IRadAn=       5 diagonalized for initial guess.
 HarFok:  IExCor=  402 AccDes= 0.00D+00 IRadAn=         5 IDoV= 1 UseB2=F ITyADJ=14
 ICtDFT=  3500011 ScaDFX=  1.000000  1.000000  1.000000  1.000000
 FoFCou: FMM=F IPFlag=           0 FMFlag=      100000 FMFlg1=           0
         NFxFlg=           0 DoJE=T BraDBF=F KetDBF=T FulRan=T
         wScrn=  0.000000 ICntrl=       500 IOpCl=  0 I1Cent=   200000004 NGrid=           0
         NMat0=    1 NMatS0=      1 NMatT0=    0 NMatD0=    1 NMtDS0=    0 NMtDT0=    0
 Petite list used in FoFCou.
 Harris En= -119.117922436332    
 JPrj=0 DoOrth=F DoCkMO=F.
 Initial guess orbital symmetries:
       Occupied  (B2) (A1) (A1) (A1) (B2) (A1) (B1) (A1) (B2) (A2)
                 (B2) (A1) (B1)
       Virtual   (A1) (B2) (A1) (B1) (A1) (B1) (A1) (B2) (A2) (B2)
                 (A1) (A2) (B2) (A1) (B1) (B1) (B2) (A1) (A1) (B2)
                 (A1) (A2) (B1) (B1) (A1) (A1) (A2) (B2) (B1) (B2)
                 (A2) (A1) (A1) (B2) (B1) (B2) (A1) (A2) (A1) (B1)
                 (B1) (A2) (B2) (A1) (B2) (A1) (B1) (A2) (B2) (A1)
                 (B2) (A2) (A1) (B2) (A1) (B1) (B2) (A1) (A1) (B2)
                 (B1) (A2) (A1) (B2) (A1) (B1) (A2) (B2) (B1) (B2)
                 (A1) (A1) (A2) (A1) (B1) (B2) (A2) (B1) (A1) (A2)
                 (B2) (B1) (A1) (A2) (B2) (B1) (A1) (B1) (B2) (A2)
                 (A1) (B1) (B2) (A1) (B2) (A1) (A2) (A1) (B2) (B1)
                 (A1) (B2) (A2) (A1) (B2) (B1) (A1) (B2) (A2) (A1)
                 (B1)
 The electronic state of the initial guess is 1-A1.
 Leave Link  401 at Mon Mar 21 20:03:11 2022, MaxMem=  8589934592 cpu:               2.0 elap:               0.3
 (Enter /home/sabyasachi/g16/l502.exe)
 Keep J ints in memory in symmetry-blocked form, NReq=37701951.
 FoFCou: FMM=F IPFlag=           0 FMFlag=           0 FMFlg1=           0
         NFxFlg=           0 DoJE=F BraDBF=F KetDBF=F FulRan=T
         wScrn=  0.000000 ICntrl=       600 IOpCl=  0 I1Cent=           0 NGrid=           0
         NMat0=    1 NMatS0=   7750 NMatT0=    0 NMatD0=    1 NMtDS0=    0 NMtDT0=    0
 Petite list used in FoFCou.
 Closed shell SCF:
 Using DIIS extrapolation, IDIIS=  1040.
 NGot=  8589934592 LenX=  8582321173 LenY=  8582303832
 Requested convergence on RMS density matrix=1.00D-08 within 100 cycles.
 Requested convergence on MAX density matrix=1.00D-06.
 Requested convergence on             energy=1.00D-06.
 No special actions if energy rises.
 Integral accuracy reduced to 1.0D-05 until final iterations.

 Cycle   1  Pass 0  IDiag  1:
 E= -118.809662401498    
 DIIS: error= 4.21D-02 at cycle   1 NSaved=   1.
 NSaved= 1 IEnMin= 1 EnMin= -118.809662401498     IErMin= 1 ErrMin= 4.21D-02
 ErrMax= 4.21D-02  0.00D+00 EMaxC= 1.00D-01 BMatC= 1.35D-01 BMatP= 1.35D-01
 IDIUse=3 WtCom= 5.79D-01 WtEn= 4.21D-01
 Coeff-Com:  0.100D+01
 Coeff-En:   0.100D+01
 Coeff:      0.100D+01
 Gap=     0.194 Goal=   None    Shift=    0.000
 GapD=    0.194 DampG=1.000 DampE=0.500 DampFc=0.5000 IDamp=-1.
 Damping current iteration by 5.00D-01
 RMSDP=8.46D-03 MaxDP=1.75D-01              OVMax= 2.43D-01

 Cycle   2  Pass 0  IDiag  1:
 E= -118.844313547377     Delta-E=       -0.034651145878 Rises=F Damp=T
 DIIS: error= 1.66D-02 at cycle   2 NSaved=   2.
 NSaved= 2 IEnMin= 2 EnMin= -118.844313547377     IErMin= 2 ErrMin= 1.66D-02
 ErrMax= 1.66D-02  0.00D+00 EMaxC= 1.00D-01 BMatC= 1.69D-02 BMatP= 1.35D-01
 IDIUse=3 WtCom= 8.34D-01 WtEn= 1.66D-01
 Coeff-Com:  0.244D+00 0.756D+00
 Coeff-En:   0.396D+00 0.604D+00
 Coeff:      0.269D+00 0.731D+00
 Gap=     0.281 Goal=   None    Shift=    0.000
 RMSDP=2.13D-03 MaxDP=3.99D-02 DE=-3.47D-02 OVMax= 1.57D-01

 Cycle   3  Pass 0  IDiag  1:
 E= -118.968414095237     Delta-E=       -0.124100547860 Rises=F Damp=F
 DIIS: error= 3.09D-03 at cycle   3 NSaved=   3.
 NSaved= 3 IEnMin= 3 EnMin= -118.968414095237     IErMin= 3 ErrMin= 3.09D-03
 ErrMax= 3.09D-03  0.00D+00 EMaxC= 1.00D-01 BMatC= 1.15D-03 BMatP= 1.69D-02
 IDIUse=3 WtCom= 9.69D-01 WtEn= 3.09D-02
 Coeff-Com:  0.908D-01 0.261D+00 0.648D+00
 Coeff-En:   0.000D+00 0.000D+00 0.100D+01
 Coeff:      0.880D-01 0.253D+00 0.659D+00
 Gap=     0.288 Goal=   None    Shift=    0.000
 RMSDP=7.35D-04 MaxDP=1.32D-02 DE=-1.24D-01 OVMax= 1.23D-02

 Cycle   4  Pass 0  IDiag  1:
 E= -118.969351025772     Delta-E=       -0.000936930536 Rises=F Damp=F
 DIIS: error= 1.21D-03 at cycle   4 NSaved=   4.
 NSaved= 4 IEnMin= 4 EnMin= -118.969351025772     IErMin= 4 ErrMin= 1.21D-03
 ErrMax= 1.21D-03  0.00D+00 EMaxC= 1.00D-01 BMatC= 2.51D-04 BMatP= 1.15D-03
 IDIUse=3 WtCom= 9.88D-01 WtEn= 1.21D-02
 Coeff-Com:  0.234D-01 0.707D-01 0.334D+00 0.572D+00
 Coeff-En:   0.000D+00 0.000D+00 0.109D+00 0.891D+00
 Coeff:      0.231D-01 0.699D-01 0.331D+00 0.576D+00
 Gap=     0.289 Goal=   None    Shift=    0.000
 RMSDP=1.91D-04 MaxDP=5.90D-03 DE=-9.37D-04 OVMax= 4.48D-03

 Cycle   5  Pass 0  IDiag  1:
 E= -118.969576096078     Delta-E=       -0.000225070306 Rises=F Damp=F
 DIIS: error= 5.08D-04 at cycle   5 NSaved=   5.
 NSaved= 5 IEnMin= 5 EnMin= -118.969576096078     IErMin= 5 ErrMin= 5.08D-04
 ErrMax= 5.08D-04  0.00D+00 EMaxC= 1.00D-01 BMatC= 2.28D-05 BMatP= 2.51D-04
 IDIUse=3 WtCom= 9.95D-01 WtEn= 5.08D-03
 Coeff-Com:  0.138D-02 0.572D-02 0.872D-01 0.287D+00 0.618D+00
 Coeff-En:   0.000D+00 0.000D+00 0.000D+00 0.140D-01 0.986D+00
 Coeff:      0.137D-02 0.569D-02 0.868D-01 0.286D+00 0.620D+00
 Gap=     0.289 Goal=   None    Shift=    0.000
 RMSDP=6.69D-05 MaxDP=1.67D-03 DE=-2.25D-04 OVMax= 1.48D-03

 Cycle   6  Pass 0  IDiag  1:
 E= -118.969598260952     Delta-E=       -0.000022164874 Rises=F Damp=F
 DIIS: error= 6.72D-05 at cycle   6 NSaved=   6.
 NSaved= 6 IEnMin= 6 EnMin= -118.969598260952     IErMin= 6 ErrMin= 6.72D-05
 ErrMax= 6.72D-05  0.00D+00 EMaxC= 1.00D-01 BMatC= 3.63D-07 BMatP= 2.28D-05
 IDIUse=1 WtCom= 1.00D+00 WtEn= 0.00D+00
 Coeff-Com:  0.275D-03 0.471D-03 0.249D-01 0.948D-01 0.239D+00 0.641D+00
 Coeff:      0.275D-03 0.471D-03 0.249D-01 0.948D-01 0.239D+00 0.641D+00
 Gap=     0.289 Goal=   None    Shift=    0.000
 RMSDP=1.20D-05 MaxDP=1.47D-04 DE=-2.22D-05 OVMax= 2.14D-04

 Cycle   7  Pass 0  IDiag  1:
 E= -118.969598715459     Delta-E=       -0.000000454507 Rises=F Damp=F
 DIIS: error= 9.20D-06 at cycle   7 NSaved=   7.
 NSaved= 7 IEnMin= 7 EnMin= -118.969598715459     IErMin= 7 ErrMin= 9.20D-06
 ErrMax= 9.20D-06  0.00D+00 EMaxC= 1.00D-01 BMatC= 1.04D-08 BMatP= 3.63D-07
 IDIUse=1 WtCom= 1.00D+00 WtEn= 0.00D+00
 Coeff-Com:  0.153D-03-0.167D-03 0.187D-02 0.870D-02 0.253D-01 0.157D+00
 Coeff-Com:  0.807D+00
 Coeff:      0.153D-03-0.167D-03 0.187D-02 0.870D-02 0.253D-01 0.157D+00
 Coeff:      0.807D+00
 Gap=     0.289 Goal=   None    Shift=    0.000
 RMSDP=1.62D-06 MaxDP=2.15D-05 DE=-4.55D-07 OVMax= 3.33D-05

 Initial convergence to 1.0D-05 achieved.  Increase integral accuracy.
 Cycle   8  Pass 1  IDiag  1:
 E= -118.969593042796     Delta-E=        0.000005672663 Rises=F Damp=F
 DIIS: error= 1.88D-06 at cycle   1 NSaved=   1.
 NSaved= 1 IEnMin= 1 EnMin= -118.969593042796     IErMin= 1 ErrMin= 1.88D-06
 ErrMax= 1.88D-06  0.00D+00 EMaxC= 1.00D-01 BMatC= 5.83D-10 BMatP= 5.83D-10
 IDIUse=1 WtCom= 1.00D+00 WtEn= 0.00D+00
 Coeff-Com:  0.100D+01
 Coeff:      0.100D+01
 Gap=     0.289 Goal=   None    Shift=    0.000
 RMSDP=1.62D-06 MaxDP=2.15D-05 DE= 5.67D-06 OVMax= 1.12D-05

 Cycle   9  Pass 1  IDiag  1:
 E= -118.969593043631     Delta-E=       -0.000000000835 Rises=F Damp=F
 DIIS: error= 8.99D-07 at cycle   2 NSaved=   2.
 NSaved= 2 IEnMin= 2 EnMin= -118.969593043631     IErMin= 2 ErrMin= 8.99D-07
 ErrMax= 8.99D-07  0.00D+00 EMaxC= 1.00D-01 BMatC= 8.33D-11 BMatP= 5.83D-10
 IDIUse=1 WtCom= 1.00D+00 WtEn= 0.00D+00
 Coeff-Com:  0.192D+00 0.808D+00
 Coeff:      0.192D+00 0.808D+00
 Gap=     0.289 Goal=   None    Shift=    0.000
 RMSDP=1.89D-07 MaxDP=2.98D-06 DE=-8.35D-10 OVMax= 4.82D-06

 Cycle  10  Pass 1  IDiag  1:
 E= -118.969593043638     Delta-E=       -0.000000000007 Rises=F Damp=F
 DIIS: error= 1.05D-06 at cycle   3 NSaved=   3.
 NSaved= 3 IEnMin= 3 EnMin= -118.969593043638     IErMin= 2 ErrMin= 8.99D-07
 ErrMax= 1.05D-06  0.00D+00 EMaxC= 1.00D-01 BMatC= 8.21D-11 BMatP= 8.33D-11
 IDIUse=1 WtCom= 1.00D+00 WtEn= 0.00D+00
 Coeff-Com:  0.255D-01 0.496D+00 0.479D+00
 Coeff:      0.255D-01 0.496D+00 0.479D+00
 Gap=     0.289 Goal=   None    Shift=    0.000
 RMSDP=8.13D-08 MaxDP=1.96D-06 DE=-6.65D-12 OVMax= 2.28D-06

 Cycle  11  Pass 1  IDiag  1:
 E= -118.969593043725     Delta-E=       -0.000000000088 Rises=F Damp=F
 DIIS: error= 1.33D-07 at cycle   4 NSaved=   4.
 NSaved= 4 IEnMin= 4 EnMin= -118.969593043725     IErMin= 4 ErrMin= 1.33D-07
 ErrMax= 1.33D-07  0.00D+00 EMaxC= 1.00D-01 BMatC= 1.59D-12 BMatP= 8.21D-11
 IDIUse=1 WtCom= 1.00D+00 WtEn= 0.00D+00
 Coeff-Com: -0.255D-02 0.147D+00 0.195D+00 0.661D+00
 Coeff:     -0.255D-02 0.147D+00 0.195D+00 0.661D+00
 Gap=     0.289 Goal=   None    Shift=    0.000
 RMSDP=2.09D-08 MaxDP=3.98D-07 DE=-8.76D-11 OVMax= 5.36D-07

 Cycle  12  Pass 1  IDiag  1:
 E= -118.969593043728     Delta-E=       -0.000000000002 Rises=F Damp=F
 DIIS: error= 1.08D-08 at cycle   5 NSaved=   5.
 NSaved= 5 IEnMin= 5 EnMin= -118.969593043728     IErMin= 5 ErrMin= 1.08D-08
 ErrMax= 1.08D-08  0.00D+00 EMaxC= 1.00D-01 BMatC= 2.24D-14 BMatP= 1.59D-12
 IDIUse=1 WtCom= 1.00D+00 WtEn= 0.00D+00
 Coeff-Com: -0.129D-02 0.637D-01 0.862D-01 0.307D+00 0.545D+00
 Coeff:     -0.129D-02 0.637D-01 0.862D-01 0.307D+00 0.545D+00
 Gap=     0.289 Goal=   None    Shift=    0.000
 RMSDP=2.15D-09 MaxDP=4.49D-08 DE=-2.25D-12 OVMax= 5.03D-08

 SCF Done:  E(RB-LYP) =  -118.969593044     A.U. after   12 cycles
            NFock= 12  Conv=0.22D-08     -V/T= 2.0122
 KE= 1.175303248353D+02 PE=-4.393482107338D+02 EE= 1.201317528322D+02
 Leave Link  502 at Mon Mar 21 20:03:13 2022, MaxMem=  8589934592 cpu:              11.9 elap:               1.5
 (Enter /home/sabyasachi/g16/l801.exe)
 DoSCS=F DFT=T ScalE2(SS,OS)=  1.000000  1.000000
 ExpMin= 6.71D-02 ExpMax= 1.24D+03 ExpMxC= 1.86D+02 IAcc=3 IRadAn=         5 AccDes= 0.00D+00
 HarFok:  IExCor=  205 AccDes= 0.00D+00 IRadAn=         5 IDoV=-2 UseB2=F ITyADJ=14
 ICtDFT= 12500011 ScaDFX=  1.000000  1.000000  1.000000  1.000000
 Largest valence mixing into a core orbital is  6.68D-05
 Largest core mixing into a valence orbital is  1.64D-05
 Range of M.O.s used for correlation:     4   124
 NBasis=   124 NAE=    13 NBE=    13 NFC=     3 NFV=     0
 NROrb=    121 NOA=    10 NOB=    10 NVA=   111 NVB=   111

 **** Warning!!: The largest alpha MO coefficient is  0.27056653D+02

 Leave Link  801 at Mon Mar 21 20:03:13 2022, MaxMem=  8589934592 cpu:               0.7 elap:               0.1
 (Enter /home/sabyasachi/g16/l914.exe)
 RHF ground state
 Keep J ints in memory in symmetry-blocked form, NReq=1499364203.
 FoFCou: FMM=F IPFlag=           0 FMFlag=           0 FMFlg1=           0
         NFxFlg=           0 DoJE=F BraDBF=F KetDBF=F FulRan=T
         wScrn=  0.000000 ICntrl=       600 IOpCl=  0 I1Cent=           0 NGrid=           0
         NMat0=    1 NMatS0=   7750 NMatT0=    0 NMatD0=    1 NMtDS0=    0 NMtDT0=    0
 Petite list used in FoFCou.
 MDV=  8589934592 DFT=T DoStab=F Mixed=F DoRPA=T DoScal=T NonHer=F
 Making orbital integer symmetry assigments:
 Orbital symmetries:
       Occupied  (A1) (B2) (A1) (A1) (B2) (A1) (B1) (A1) (B2) (A2)
                 (B2) (A1) (B1)
       Virtual   (A1) (B2) (A1) (B1) (A1) (B1) (A1) (B2) (A2) (A2)
                 (A1) (B2) (B1) (B2) (A1) (B1) (B2) (A1) (B2) (A1)
                 (A2) (A1) (B1) (A1) (A1) (B1) (B1) (A2) (B2) (A2)
                 (B2) (A1) (A1) (B1) (B2) (B2) (A2) (A1) (B1) (A1)
                 (A2) (B1) (A1) (B2) (B2) (A1) (B1) (B2) (A1) (B2)
                 (A2) (A2) (A1) (B2) (A1) (B1) (B2) (A1) (A1) (B1)
                 (A2) (B2) (A1) (B2) (A1) (B1) (A2) (B2) (B1) (A1)
                 (B2) (A1) (A2) (A1) (B1) (B2) (A2) (B1) (A1) (A2)
                 (B1) (B2) (A2) (A1) (B2) (B1) (A1) (B1) (B2) (A2)
                 (A1) (B1) (B2) (A1) (B2) (A2) (A1) (A1) (B2) (B1)
                 (A1) (B2) (A2) (A1) (B2) (B1) (A1) (B2) (A2) (A1)
                 (B1)
  1110 initial guesses have been made.
 Convergence on wavefunction:    0.001000000000000
 Davidson Disk Diagonalization:  ConvIn= 1.00D-03 SkipCon=T Conv= 1.00D-03.
 Max sub-space:  4440 roots to seek:  2220 dimension of matrix:         2220
 *** WARNING: Number of orthogonal guesses is         1110
 Iteration     1 Dimension  1110 NMult     0 NNew   1110
 CISAX will form  1110 AO SS matrices at one time.
 NMat=  1110 NSing=  1110 JSym2X=-1.
 New state      2 was old state      3
 New state      3 was old state      2
 New state     12 was old state     13
 New state     13 was old state     12
 New state     18 was old state     19
 New state     19 was old state     18
 New state     22 was old state     23
 New state     23 was old state     24
 New state     24 was old state     22
 New state     29 was old state     30
 New state     30 was old state     31
 New state     31 was old state     29
 New state     34 was old state     35
 New state     35 was old state     34
 New state     42 was old state     45
 New state     45 was old state     42
 New state     46 was old state     47
 New state     47 was old state     46
 New state     49 was old state     50
 New state     50 was old state     51
 New state     51 was old state     52
 New state     52 was old state     49
 New state     54 was old state     56
 New state     56 was old state     54
 New state     58 was old state     61
 New state     60 was old state     62
 New state     61 was old state     60
 New state     62 was old state     63
 New state     63 was old state     64
 New state     64 was old state     65
 New state     65 was old state     67
 New state     67 was old state     70
 New state     68 was old state     69
 New state     69 was old state     71
 New state     70 was old state     68
 New state     71 was old state     73
 New state     72 was old state     74
 New state     73 was old state     76
 New state     74 was old state     78
 New state     75 was old state     80
 New state     76 was old state     72
 New state     77 was old state     75
 New state     78 was old state     81
 New state     80 was old state     82
 New state     81 was old state     84
 New state     82 was old state     83
 New state     83 was old state     90
 New state     84 was old state     85
 New state     85 was old state     88
 New state     87 was old state     89
 New state     88 was old state     87
 New state     89 was old state     92
 New state     90 was old state    114
 New state     92 was old state     94
 New state     94 was old state     95
 New state     95 was old state     97
 New state     96 was old state     99
 New state     97 was old state    110
 New state     98 was old state     96
 New state     99 was old state     98
 New state    101 was old state    103
 New state    103 was old state    105
 New state    105 was old state    107
 New state    106 was old state    109
 New state    107 was old state    108
 New state    108 was old state    111
 New state    109 was old state    112
 New state    110 was old state    101
 New state    111 was old state    115
 New state    112 was old state    116
 New state    114 was old state    118
 New state    115 was old state    119
 New state    116 was old state    126
 New state    118 was old state    122
 New state    119 was old state    120
 New state    120 was old state    125
 New state    121 was old state    123
 New state    122 was old state    124
 New state    123 was old state    131
 New state    124 was old state    127
 New state    125 was old state    128
 New state    126 was old state    130
 New state    127 was old state    132
 New state    128 was old state    129
 New state    129 was old state    141
 New state    130 was old state    121
 New state    131 was old state    135
 New state    132 was old state    133
 New state    133 was old state    134
 New state    134 was old state    139
 New state    135 was old state    145
 New state    137 was old state    138
 New state    138 was old state    137
 New state    139 was old state    140
 New state    140 was old state    143
 New state    141 was old state    142
 New state    142 was old state    155
 New state    143 was old state    146
 New state    145 was old state    166
 New state    146 was old state    148
 New state    148 was old state    151
 New state    149 was old state    157
 New state    151 was old state    152
 New state    152 was old state    156
 New state    153 was old state    154
 New state    154 was old state    149
 New state    155 was old state    158
 New state    156 was old state    153
 New state    157 was old state    164
 New state    158 was old state    160
 New state    159 was old state    162
 New state    160 was old state    165
 New state    162 was old state    163
 New state    163 was old state    167
 New state    164 was old state    159
 New state    165 was old state    170
 New state    166 was old state    171
 New state    167 was old state    168
 New state    168 was old state    172
 New state    169 was old state    179
 New state    170 was old state    173
 New state    171 was old state    180
 New state    172 was old state    178
 New state    173 was old state    175
 New state    174 was old state    176
 New state    175 was old state    169
 New state    176 was old state    181
 New state    177 was old state    174
 No map to state    178
 New state    179 was old state    177
 New state    180 was old state    182
 New state    181 was old state    183
 New state    182 was old state    204
 New state    183 was old state    186
 New state    185 was old state    205
 New state    186 was old state    188
 New state    187 was old state    189
 New state    188 was old state    185
 New state    189 was old state    187
 New state    193 was old state    198
 New state    194 was old state    201
 New state    195 was old state    200
 New state    196 was old state    199
 New state    197 was old state    203
 New state    198 was old state    207
 New state    199 was old state    197
 New state    200 was old state    196
 New state    201 was old state    194
 New state    202 was old state    206
 New state    203 was old state    195
 New state    204 was old state    202
 New state    205 was old state    213
 New state    206 was old state    208
 New state    207 was old state    211
 New state    208 was old state    210
 New state    209 was old state    215
 New state    210 was old state    216
 New state    211 was old state    228
 New state    212 was old state    217
 New state    213 was old state    209
 New state    214 was old state    218
 New state    215 was old state    214
 New state    216 was old state    219
 New state    217 was old state    212
 New state    218 was old state    224
 New state    219 was old state    221
 New state    221 was old state    225
 New state    222 was old state    238
 New state    224 was old state    222
 New state    225 was old state    227
 New state    227 was old state    241
 New state    228 was old state    229
 New state    229 was old state    231
 New state    231 was old state    237
 New state    232 was old state    233
 New state    233 was old state    234
 New state    234 was old state    239
 New state    235 was old state    232
 New state    236 was old state    235
 New state    237 was old state    245
 New state    238 was old state    236
 New state    239 was old state    242
 New state    241 was old state    255
 New state    242 was old state    249
 New state    243 was old state    244
 New state    244 was old state    248
 New state    245 was old state    251
 New state    246 was old state    252
 No map to state    247
 New state    248 was old state    243
 New state    249 was old state    247
 New state    250 was old state    253
 New state    251 was old state    250
 New state    252 was old state    256
 New state    253 was old state    257
 New state    255 was old state    268
 New state    256 was old state    262
 New state    257 was old state    258
 New state    258 was old state    261
 New state    259 was old state    269
 New state    260 was old state    265
 New state    261 was old state    260
 New state    262 was old state    271
 New state    263 was old state    266
 New state    264 was old state    270
 New state    265 was old state    259
 New state    266 was old state    273
 New state    267 was old state    275
 New state    268 was old state    272
 New state    269 was old state    274
 New state    270 was old state    267
 New state    271 was old state    276
 New state    272 was old state    277
 New state    273 was old state    284
 New state    274 was old state    282
 New state    275 was old state    280
 New state    276 was old state    278
 New state    277 was old state    283
 New state    278 was old state    281
 New state    279 was old state    286
 New state    280 was old state    285
 New state    281 was old state    288
 New state    282 was old state    279
 New state    283 was old state    287
 New state    284 was old state    264
 New state    285 was old state    289
 New state    286 was old state    305
 New state    287 was old state    293
 New state    288 was old state    299
 New state    289 was old state    290
 New state    290 was old state    292
 New state    291 was old state    294
 New state    292 was old state    295
 New state    293 was old state    298
 New state    294 was old state    301
 New state    295 was old state    297
 New state    296 was old state    291
 New state    297 was old state    296
 New state    298 was old state    304
 New state    299 was old state    306
 New state    300 was old state    307
 New state    301 was old state    303
 New state    302 was old state    300
 New state    303 was old state    302
 New state    304 was old state    314
 New state    305 was old state    311
 New state    306 was old state    310
 New state    307 was old state    316
 New state    310 was old state    320
 New state    311 was old state    312
 New state    312 was old state    313
 New state    313 was old state    317
 New state    314 was old state    318
 New state    315 was old state    327
 New state    316 was old state    322
 New state    317 was old state    323
 New state    318 was old state    319
 New state    319 was old state    332
 New state    320 was old state    315
 New state    322 was old state    326
 New state    323 was old state    328
 New state    324 was old state    329
 New state    325 was old state    324
 New state    326 was old state    330
 New state    327 was old state    333
 New state    328 was old state    331
 New state    329 was old state    325
 New state    330 was old state    343
 New state    331 was old state    340
 New state    332 was old state    334
 New state    333 was old state    338
 New state    334 was old state    341
 New state    336 was old state    339
 New state    338 was old state    336
 New state    339 was old state    344
 New state    340 was old state    362
 New state    341 was old state    345
 New state    343 was old state    351
 New state    344 was old state    348
 New state    345 was old state    347
 New state    346 was old state    349
 New state    347 was old state    359
 New state    348 was old state    358
 New state    349 was old state    346
 New state    350 was old state    352
 New state    351 was old state    355
 New state    352 was old state    353
 New state    353 was old state    356
 New state    354 was old state    350
 New state    355 was old state    354
 New state    356 was old state    357
 New state    357 was old state    366
 New state    358 was old state    361
 New state    359 was old state    360
 New state    360 was old state    364
 New state    361 was old state    382
 New state    362 was old state    371
 New state    363 was old state    367
 New state    364 was old state    372
 New state    365 was old state    369
 New state    366 was old state    368
 New state    367 was old state    363
 New state    368 was old state    365
 New state    369 was old state    376
 New state    370 was old state    373
 New state    371 was old state    378
 New state    372 was old state    379
 New state    373 was old state    377
 New state    376 was old state    388
 New state    377 was old state    397
 New state    378 was old state    381
 New state    379 was old state    384
 New state    381 was old state    383
 New state    382 was old state    389
 New state    383 was old state    387
 New state    384 was old state    385
 New state    385 was old state    386
 New state    386 was old state    398
 New state    387 was old state    394
 New state    388 was old state    390
 New state    389 was old state    395
 New state    390 was old state    393
 New state    391 was old state    396
 New state    393 was old state    416
 New state    394 was old state    401
 New state    395 was old state    399
 New state    396 was old state    402
 New state    397 was old state    406
 New state    398 was old state    403
 New state    399 was old state    400
 New state    400 was old state    404
 New state    401 was old state    405
 New state    402 was old state    407
 New state    403 was old state    408
 New state    404 was old state    391
 New state    405 was old state    409
 New state    406 was old state    410
 New state    407 was old state    413
 New state    408 was old state    411
 New state    409 was old state    412
 New state    410 was old state    415
 New state    411 was old state    414
 New state    412 was old state    417
 New state    413 was old state    434
 New state    414 was old state    423
 New state    415 was old state    421
 New state    416 was old state    420
 New state    417 was old state    418
 New state    418 was old state    422
 New state    419 was old state    428
 New state    420 was old state    424
 New state    421 was old state    419
 New state    422 was old state    425
 New state    423 was old state    426
 New state    424 was old state    437
 New state    425 was old state    433
 New state    426 was old state    435
 New state    428 was old state    431
 New state    429 was old state    432
 New state    430 was old state    436
 New state    431 was old state    455
 New state    432 was old state    430
 New state    433 was old state    429
 New state    434 was old state    443
 New state    435 was old state    448
 New state    436 was old state    447
 New state    437 was old state    438
 New state    438 was old state    441
 New state    439 was old state    440
 New state    440 was old state    444
 New state    441 was old state    439
 New state    442 was old state    445
 New state    443 was old state    463
 New state    444 was old state    453
 New state    445 was old state    442
 New state    446 was old state    450
 New state    447 was old state    449
 New state    448 was old state    446
 New state    449 was old state    452
 New state    450 was old state    451
 New state    451 was old state    461
 New state    452 was old state    458
 New state    453 was old state    456
 New state    454 was old state    457
 New state    455 was old state    460
 New state    456 was old state    459
 New state    457 was old state    462
 New state    458 was old state    454
 New state    459 was old state    475
 New state    460 was old state    488
 No map to state    461
 New state    462 was old state    471
 New state    463 was old state    464
 New state    464 was old state    467
 New state    465 was old state    466
 New state    466 was old state    465
 New state    467 was old state    469
 New state    469 was old state    470
 New state    470 was old state    487
 New state    471 was old state    472
 New state    472 was old state    474
 New state    473 was old state    476
 New state    474 was old state    473
 No map to state    475
 New state    476 was old state    477
 New state    477 was old state    485
 New state    480 was old state    481
 New state    481 was old state    482
 New state    482 was old state    483
 New state    483 was old state    480
 New state    484 was old state    486
 New state    485 was old state    484
 No map to state    486
 New state    487 was old state    489
 New state    488 was old state    490
 New state    489 was old state    491
 New state    490 was old state    495
 New state    491 was old state    492
 New state    492 was old state    494
 New state    494 was old state    496
 New state    495 was old state    498
 New state    496 was old state    499
 New state    498 was old state    500
 New state    499 was old state    509
 New state    500 was old state    502
 New state    501 was old state    503
 New state    502 was old state    505
 New state    503 was old state    501
 New state    505 was old state    507
 New state    507 was old state    508
 New state    508 was old state    511
 New state    509 was old state    513
 New state    511 was old state    540
 New state    512 was old state    514
 New state    513 was old state    515
 New state    514 was old state    516
 New state    515 was old state    518
 New state    516 was old state    517
 New state    517 was old state    526
 New state    518 was old state    512
 New state    519 was old state    520
 New state    520 was old state    521
 New state    521 was old state    522
 New state    522 was old state    524
 New state    523 was old state    527
 New state    524 was old state    519
 New state    525 was old state    529
 New state    526 was old state    523
 New state    527 was old state    528
 New state    528 was old state    533
 New state    529 was old state    532
 New state    530 was old state    525
 New state    532 was old state    539
 New state    533 was old state    534
 New state    534 was old state    535
 New state    535 was old state    537
 New state    537 was old state    538
 New state    538 was old state    544
 New state    539 was old state    530
 New state    540 was old state    542
 New state    542 was old state    559
 New state    544 was old state    545
 New state    545 was old state    546
 New state    546 was old state    547
 New state    547 was old state    568
 New state    549 was old state    550
 New state    550 was old state    551
 New state    551 was old state    549
 New state    552 was old state    553
 New state    553 was old state    557
 New state    555 was old state    560
 New state    556 was old state    552
 New state    557 was old state    556
 New state    559 was old state    561
 New state    560 was old state    562
 New state    561 was old state    566
 New state    562 was old state    567
 New state    563 was old state    555
 New state    565 was old state    563
 New state    566 was old state    565
 New state    567 was old state    569
 New state    568 was old state    576
 New state    569 was old state    570
 New state    570 was old state    572
 New state    572 was old state    574
 New state    573 was old state    575
 New state    574 was old state    573
 New state    575 was old state    578
 New state    576 was old state    583
 New state    577 was old state    579
 New state    578 was old state    577
 New state    579 was old state    580
 New state    580 was old state    581
 New state    581 was old state    582
 New state    582 was old state    586
 New state    583 was old state    584
 New state    584 was old state    587
 New state    586 was old state    589
 New state    587 was old state    588
 New state    588 was old state    590
 New state    589 was old state    599
 New state    590 was old state    591
 New state    591 was old state    594
 New state    592 was old state    595
 New state    593 was old state    596
 New state    594 was old state    597
 New state    595 was old state    598
 New state    596 was old state    592
 New state    597 was old state    593
 New state    598 was old state    600
 New state    599 was old state    606
 New state    600 was old state    602
 New state    602 was old state    604
 New state    603 was old state    607
 New state    604 was old state    610
 New state    605 was old state    609
 New state    606 was old state    603
 New state    607 was old state    612
 New state    608 was old state    611
 New state    609 was old state    615
 New state    610 was old state    608
 New state    611 was old state    613
 New state    612 was old state    614
 New state    613 was old state    619
 New state    614 was old state    616
 New state    615 was old state    623
 New state    616 was old state    618
 New state    617 was old state    620
 New state    618 was old state    617
 New state    619 was old state    626
 New state    620 was old state    622
 New state    621 was old state    634
 New state    622 was old state    624
 New state    623 was old state    621
 New state    624 was old state    625
 New state    625 was old state    627
 New state    626 was old state    639
 New state    627 was old state    635
 New state    628 was old state    629
 New state    629 was old state    630
 New state    630 was old state    628
 New state    631 was old state    632
 New state    632 was old state    631
 New state    634 was old state    638
 New state    635 was old state    636
 New state    636 was old state    637
 New state    637 was old state    641
 New state    638 was old state    640
 New state    639 was old state    642
 New state    640 was old state    654
 New state    641 was old state    644
 New state    642 was old state    643
 New state    643 was old state    653
 New state    644 was old state    646
 New state    645 was old state    648
 New state    646 was old state    650
 New state    647 was old state    649
 New state    648 was old state    651
 New state    649 was old state    645
 New state    650 was old state    647
 New state    651 was old state    656
 New state    653 was old state    655
 New state    654 was old state    663
 New state    655 was old state    658
 New state    656 was old state    659
 New state    658 was old state    660
 New state    659 was old state    662
 New state    660 was old state    661
 New state    661 was old state    664
 New state    662 was old state    671
 New state    663 was old state    666
 New state    664 was old state    668
 New state    665 was old state    669
 New state    666 was old state    665
 New state    668 was old state    675
 New state    669 was old state    679
 New state    671 was old state    673
 New state    673 was old state    674
 New state    674 was old state    677
 New state    675 was old state    676
 New state    676 was old state    682
 New state    677 was old state    680
 New state    678 was old state    684
 New state    679 was old state    678
 New state    680 was old state    687
 New state    682 was old state    683
 New state    683 was old state    685
 New state    684 was old state    688
 New state    685 was old state    686
 New state    686 was old state    689
 New state    687 was old state    700
 New state    688 was old state    691
 New state    689 was old state    692
 New state    691 was old state    693
 New state    692 was old state    696
 New state    693 was old state    695
 New state    695 was old state    697
 No map to state    696
 New state    697 was old state    707
 New state    700 was old state    701
 New state    701 was old state    702
 New state    702 was old state    703
 New state    703 was old state    706
 No map to state    706
 New state    707 was old state    710
 No map to state    710
 New state    713 was old state    714
 New state    714 was old state    713
 New state    715 was old state    716
 New state    716 was old state    718
 New state    717 was old state    715
 New state    718 was old state    719
 New state    719 was old state    717
 New state    720 was old state    721
 New state    721 was old state    722
 New state    722 was old state    720
 New state    724 was old state    725
 New state    725 was old state    724
 New state    727 was old state    728
 New state    728 was old state    727
 New state    730 was old state    731
 New state    731 was old state    733
 New state    732 was old state    730
 New state    733 was old state    732
 New state    735 was old state    737
 New state    736 was old state    735
 New state    737 was old state    736
 New state    738 was old state    739
 New state    739 was old state    738
 New state    742 was old state    744
 New state    743 was old state    742
 New state    744 was old state    743
 New state    745 was old state    746
 New state    746 was old state    749
 New state    747 was old state    748
 New state    748 was old state    745
 New state    749 was old state    747
 New state    750 was old state    752
 New state    751 was old state    750
 New state    752 was old state    754
 New state    754 was old state    756
 New state    755 was old state    758
 New state    756 was old state    751
 New state    758 was old state    755
 New state    761 was old state    762
 New state    762 was old state    761
 New state    765 was old state    766
 New state    766 was old state    765
 New state    768 was old state    769
 New state    769 was old state    768
 New state    772 was old state    774
 New state    773 was old state    772
 New state    774 was old state    773
 New state    775 was old state    779
 New state    777 was old state    778
 New state    778 was old state    777
 New state    779 was old state    780
 New state    780 was old state    775
 New state    784 was old state    785
 New state    785 was old state    784
 New state    789 was old state    790
 New state    790 was old state    789
 New state    792 was old state    793
 New state    793 was old state    792
 New state    794 was old state    795
 New state    795 was old state    794
 New state    797 was old state    798
 New state    798 was old state    801
 New state    801 was old state    797
 New state    802 was old state    803
 New state    803 was old state    802
 New state    806 was old state    807
 New state    807 was old state    806
 New state    810 was old state    811
 New state    811 was old state    813
 New state    812 was old state    810
 New state    813 was old state    812
 New state    814 was old state    815
 New state    815 was old state    814
 New state    816 was old state    817
 New state    817 was old state    820
 New state    819 was old state    823
 New state    820 was old state    821
 New state    821 was old state    819
 New state    822 was old state    824
 New state    823 was old state    822
 New state    824 was old state    816
 New state    826 was old state    827
 New state    827 was old state    826
 New state    829 was old state    830
 New state    830 was old state    831
 New state    831 was old state    834
 New state    832 was old state    829
 New state    834 was old state    837
 New state    835 was old state    832
 New state    837 was old state    838
 New state    838 was old state    842
 New state    839 was old state    840
 New state    840 was old state    841
 New state    841 was old state    846
 New state    842 was old state    839
 New state    843 was old state    845
 New state    844 was old state    835
 New state    845 was old state    844
 New state    846 was old state    843
 New state    847 was old state    848
 New state    848 was old state    847
 New state    850 was old state    851
 New state    851 was old state    850
 New state    855 was old state    857
 New state    856 was old state    858
 New state    857 was old state    855
 New state    858 was old state    856
 New state    859 was old state    860
 New state    860 was old state    859
 New state    861 was old state    863
 New state    863 was old state    861
 New state    868 was old state    869
 New state    869 was old state    870
 New state    870 was old state    868
 New state    872 was old state    874
 New state    873 was old state    875
 New state    874 was old state    872
 New state    875 was old state    873
 New state    886 was old state    888
 New state    888 was old state    886
 New state    890 was old state    892
 New state    892 was old state    890
 New state    895 was old state    897
 New state    896 was old state    895
 New state    897 was old state    898
 New state    898 was old state    896
 New state    902 was old state    903
 New state    903 was old state    904
 New state    904 was old state    902
 New state    916 was old state    917
 New state    917 was old state    918
 New state    918 was old state    916
 New state    919 was old state    920
 New state    920 was old state    919
 New state    922 was old state    923
 New state    923 was old state    922
 New state    929 was old state    930
 New state    930 was old state    929
 New state    935 was old state    937
 New state    936 was old state    935
 New state    937 was old state    936
 New state    942 was old state    943
 New state    943 was old state    942
 New state    947 was old state    948
 New state    948 was old state    947
 New state    955 was old state    956
 New state    956 was old state    955
 New state    958 was old state    959
 New state    959 was old state    960
 New state    960 was old state    958
 New state    970 was old state    971
 New state    971 was old state    970
 New state    974 was old state    975
 New state    975 was old state    974
 New state    976 was old state    978
 New state    978 was old state    980
 New state    980 was old state    976
 New state    985 was old state    988
 New state    987 was old state    989
 New state    988 was old state    985
 New state    989 was old state    987
 New state    994 was old state    995
 New state    995 was old state    994
 New state    996 was old state    997
 New state    997 was old state    996
 New state   1010 was old state   1012
 New state   1011 was old state   1010
 New state   1012 was old state   1013
 New state   1013 was old state   1011
 New state   1025 was old state   1026
 New state   1026 was old state   1025
 New state   1039 was old state   1040
 New state   1040 was old state   1041
 New state   1041 was old state   1039
 New state   1047 was old state   1049
 New state   1048 was old state   1047
 New state   1049 was old state   1048
 New state   1056 was old state   1058
 New state   1058 was old state   1056
 New state   1059 was old state   1060
 New state   1060 was old state   1059
 New state   1066 was old state   1067
 New state   1067 was old state   1066
 New state   1069 was old state   1070
 New state   1070 was old state   1071
 New state   1071 was old state   1069
 New state   1076 was old state   1077
 New state   1077 was old state   1076
 New state   1079 was old state   1080
 New state   1080 was old state   1079
 New state   1090 was old state   1091
 New state   1091 was old state   1090
 Excitation Energies [eV] at current iteration:
 Root      1 :     7.897801908642380
 Root      2 :     8.231885735956922
 Root      3 :     8.241311753322838
 Root      4 :     8.659143788083590
 Root      5 :     8.901553417659620
 Root      6 :     8.956997113215378
 Root      7 :     9.055001859593711
 Root      8 :     9.152438025324086
 Root      9 :     9.193939527942581
 Root     10 :     9.254176405960338
 Root     11 :     9.514736162265171
 Root     12 :     9.681639381609902
 Root     13 :     9.691101164005094
 Root     14 :     9.784647148615131
 Root     15 :     9.811547266585679
 Root     16 :    10.056966297799830
 Root     17 :    10.153963119312350
 Root     18 :    10.207211211029870
 Root     19 :    10.212072075213700
 Root     20 :    10.451459043378720
 Root     21 :    10.571683030493740
 Root     22 :    10.591808707324980
 Root     23 :    10.602635088912460
 Root     24 :    10.626237106755170
 Root     25 :    10.652947983051070
 Root     26 :    10.682108691733480
 Root     27 :    10.761922238554100
 Root     28 :    10.773612563139400
 Root     29 :    10.901829279597130
 Root     30 :    10.931421341606630
 Root     31 :    10.976519697256100
 Root     32 :    11.026545558676630
 Root     33 :    11.146165233922900
 Root     34 :    11.171882683592150
 Root     35 :    11.198448089214050
 Root     36 :    11.284777956855040
 Root     37 :    11.320479960055440
 Root     38 :    11.328381212059470
 Root     39 :    11.449358008736150
 Root     40 :    11.552629215233240
 Root     41 :    11.583632863264740
 Root     42 :    11.674033010813500
 Root     43 :    11.677090350115230
 Root     44 :    11.682247763220170
 Root     45 :    11.702603702423510
 Root     46 :    11.806002232133060
 Root     47 :    11.812366989585430
 Root     48 :    11.906806292449870
 Root     49 :    11.922103769586900
 Root     50 :    11.977799580600870
 Root     51 :    11.996327571903070
 Root     52 :    12.001530043420990
 Root     53 :    12.123258169066070
 Root     54 :    12.164561324147970
 Root     55 :    12.179301695255190
 Root     56 :    12.190625866819570
 Root     57 :    12.209061665025630
 Root     58 :    12.377182428524910
 Root     59 :    12.463087451380190
 Root     60 :    12.513212165155420
 Root     61 :    12.519182486905660
 Root     62 :    12.549086124088880
 Root     63 :    12.623369712685600
 Root     64 :    12.683454055191880
 Root     65 :    12.698798743369600
 Root     66 :    12.803735325478340
 Root     67 :    12.836429063715230
 Root     68 :    12.839963570073570
 Root     69 :    12.868715839022330
 Root     70 :    12.900597262836890
 Root     71 :    12.932743862022340
 Root     72 :    13.025398984846980
 Root     73 :    13.120322712372390
 Root     74 :    13.151532591764550
 Root     75 :    13.178291136800410
 Root     76 :    13.187630154740880
 Root     77 :    13.199568821325550
 Root     78 :    13.211398378125210
 Root     79 :    13.242179539055100
 Root     80 :    13.398696599447530
 Root     81 :    13.455947177040510
 Root     82 :    13.555782868780530
 Root     83 :    13.599708799335020
 Root     84 :    13.676602466865090
 Root     85 :    13.742744886853360
 Root     86 :    13.803314276525330
 Root     87 :    13.815788172162530
 Root     88 :    13.843098396230280
 Root     89 :    13.924633720100860
 Root     90 :    13.931068499844830
 Root     91 :    13.935180125636200
 Root     92 :    14.075717317135410
 Root     93 :    14.101147526482490
 Root     94 :    14.191342353680270
 Root     95 :    14.196560119746730
 Root     96 :    14.198101900937110
 Root     97 :    14.302141000225090
 Root     98 :    14.310982540355620
 Root     99 :    14.331657328462300
 Root    100 :    14.336432615737030
 Root    101 :    14.401867395502480
 Root    102 :    14.430010860374850
 Root    103 :    14.546443481124670
 Root    104 :    14.592681654865810
 Root    105 :    14.733760969194140
 Root    106 :    14.780067049041000
 Root    107 :    14.833316556882140
 Root    108 :    14.928657838311250
 Root    109 :    14.947307770937940
 Root    110 :    14.967640535431840
 Root    111 :    15.118622743057280
 Root    112 :    15.158482557121970
 Root    113 :    15.172440289082970
 Root    114 :    15.218348784371950
 Root    115 :    15.303640358342050
 Root    116 :    15.350700532709620
 Root    117 :    15.477791439306590
 Root    118 :    15.487083204897300
 Root    119 :    15.531962228612210
 Root    120 :    15.534089014211160
 Root    121 :    15.580479906979770
 Root    122 :    15.611545699410300
 Root    123 :    15.690210410540750
 Root    124 :    15.728198408437000
 Root    125 :    15.728578861119010
 Root    126 :    15.759857022238740
 Root    127 :    15.787294849327080
 Root    128 :    15.793965608631450
 Root    129 :    15.804840445511280
 Root    130 :    15.835366228404610
 Root    131 :    15.839504681088750
 Root    132 :    15.878242559438240
 Root    133 :    15.986437839846140
 Root    134 :    15.993898085126770
 Root    135 :    16.108642610909960
 Root    136 :    16.143366149585540
 Root    137 :    16.158230893306100
 Root    138 :    16.169470647230060
 Root    139 :    16.305619046009370
 Root    140 :    16.332110002168950
 Root    141 :    16.339001104674590
 Root    142 :    16.418758647101790
 Root    143 :    16.586717861501670
 Root    144 :    16.606362161233070
 Root    145 :    16.723640529023310
 Root    146 :    16.732656800270360
 Root    147 :    16.751372118366300
 Root    148 :    16.788487578873690
 Root    149 :    16.818200814673920
 Root    150 :    16.841482369164090
 Root    151 :    16.856768858308390
 Root    152 :    16.933061518720190
 Root    153 :    16.933073350407700
 Root    154 :    16.943148776130420
 Root    155 :    16.946659673158370
 Root    156 :    17.010183219159600
 Root    157 :    17.029897311183180
 Root    158 :    17.073820501887290
 Root    159 :    17.087573276967460
 Root    160 :    17.114530276639390
 Root    161 :    17.118542413539200
 Root    162 :    17.165391730484920
 Root    163 :    17.185452064751120
 Root    164 :    17.191781205167190
 Root    165 :    17.208401757975300
 Root    166 :    17.252697160353050
 Root    167 :    17.263860736322110
 Root    168 :    17.268879073033040
 Root    169 :    17.333001350809650
 Root    170 :    17.343759382813870
 Root    171 :    17.356687506806810
 Root    172 :    17.382218961586120
 Root    173 :    17.403389004037240
 Root    174 :    17.476088911295510
 Root    175 :    17.483704078862410
 Root    176 :    17.546346903466280
 Root    177 :    17.551215013847380
 Root    178 :    17.572191120101780
 Root    179 :    17.621984079693180
 Root    180 :    17.689453104681340
 Root    181 :    17.750056848609080
 Root    182 :    17.775872846904190
 Root    183 :    17.830433478071460
 Root    184 :    17.848897082143260
 Root    185 :    17.858974670344030
 Root    186 :    17.914762310722650
 Root    187 :    17.952052792933100
 Root    188 :    17.969568695316910
 Root    189 :    18.027069342227650
 Root    190 :    18.093380348912110
 Root    191 :    18.104009690735180
 Root    192 :    18.178516032800420
 Root    193 :    18.180386172221050
 Root    194 :    18.197685658831520
 Root    195 :    18.234995152974460
 Root    196 :    18.242505743197190
 Root    197 :    18.289439294199420
 Root    198 :    18.294731307004990
 Root    199 :    18.302625866463540
 Root    200 :    18.305970603026150
 Root    201 :    18.337895098547320
 Root    202 :    18.342626111667230
 Root    203 :    18.374712126708290
 Root    204 :    18.440696677687590
 Root    205 :    18.463013797186650
 Root    206 :    18.470556321085650
 Root    207 :    18.478691790717360
 Root    208 :    18.573890960678960
 Root    209 :    18.592261559651950
 Root    210 :    18.593572556428950
 Root    211 :    18.611231993067750
 Root    212 :    18.667608952664020
 Root    213 :    18.673544185947210
 Root    214 :    18.700350548851710
 Root    215 :    18.702274630142780
 Root    216 :    18.731431758521300
 Root    217 :    18.736169178059920
 Root    218 :    18.790123210357480
 Root    219 :    18.791571516768020
 Root    220 :    18.832079328422580
 Root    221 :    18.864727813224200
 Root    222 :    18.873510704292960
 Root    223 :    18.972641754603150
 Root    224 :    18.987171454390240
 Root    225 :    19.000425169076160
 Root    226 :    19.055682206156990
 Root    227 :    19.088153690598900
 Root    228 :    19.098250451735710
 Root    229 :    19.108841677432290
 Root    230 :    19.153478244482440
 Root    231 :    19.268266395607500
 Root    232 :    19.275202220934430
 Root    233 :    19.282157343444030
 Root    234 :    19.319026576358550
 Root    235 :    19.362954280601710
 Root    236 :    19.371518347446260
 Root    237 :    19.395597752929640
 Root    238 :    19.419670446838480
 Root    239 :    19.518182356271780
 Root    240 :    19.521435713705220
 Root    241 :    19.586207076058220
 Root    242 :    19.637184594384870
 Root    243 :    19.651062199351090
 Root    244 :    19.687903705352750
 Root    245 :    19.703670196634590
 Root    246 :    19.711283856758140
 Root    247 :    19.730252663200630
 Root    248 :    19.752361101604820
 Root    249 :    19.791433001456610
 Root    250 :    19.830321504948350
 Root    251 :    19.841132623454740
 Root    252 :    19.873413824457150
 Root    253 :    19.925998918748060
 Root    254 :    19.934301201486330
 Root    255 :    19.997165748395550
 Root    256 :    20.021745151720860
 Root    257 :    20.100202044877900
 Root    258 :    20.140566280805660
 Root    259 :    20.146740676235280
 Root    260 :    20.158023119330070
 Root    261 :    20.159295439935220
 Root    262 :    20.199001995737270
 Root    263 :    20.203617057448680
 Root    264 :    20.216766264616460
 Root    265 :    20.246980200756710
 Root    266 :    20.273831234802490
 Root    267 :    20.331126421172690
 Root    268 :    20.356957256923340
 Root    269 :    20.405246386474610
 Root    270 :    20.409417813203800
 Root    271 :    20.432385400775490
 Root    272 :    20.455462297926860
 Root    273 :    20.491106737550750
 Root    274 :    20.523703114722830
 Root    275 :    20.530124102593290
 Root    276 :    20.576712841951640
 Root    277 :    20.651243245473900
 Root    278 :    20.656732047252680
 Root    279 :    20.669926936960740
 Root    280 :    20.671601043342310
 Root    281 :    20.721670746216350
 Root    282 :    20.741000363126790
 Root    283 :    20.756521586161020
 Root    284 :    20.757838706911840
 Root    285 :    20.821550933779100
 Root    286 :    20.846416926837020
 Root    287 :    20.897257894967550
 Root    288 :    20.909151359010510
 Root    289 :    20.912604183904900
 Root    290 :    20.948470261668680
 Root    291 :    21.006391620752710
 Root    292 :    21.030490531551460
 Root    293 :    21.032523465448700
 Root    294 :    21.069008630623430
 Root    295 :    21.080929485913020
 Root    296 :    21.082011422972910
 Root    297 :    21.121618686962880
 Root    298 :    21.166399664168110
 Root    299 :    21.185968353272390
 Root    300 :    21.207026893769670
 Root    301 :    21.213873615139660
 Root    302 :    21.256419450435700
 Root    303 :    21.276136062194890
 Root    304 :    21.305925974903130
 Root    305 :    21.316373108331210
 Root    306 :    21.376698565099550
 Root    307 :    21.419342218894380
 Root    308 :    21.434267536702260
 Root    309 :    21.449373260535320
 Root    310 :    21.535032948593810
 Root    311 :    21.612492423157530
 Root    312 :    21.621692461212770
 Root    313 :    21.641182603312850
 Root    314 :    21.693158245538120
 Root    315 :    21.713104066051380
 Root    316 :    21.736387188558910
 Root    317 :    21.736694509471060
 Root    318 :    21.770571277564800
 Root    319 :    21.771430956155160
 Root    320 :    21.802819384189660
 Root    321 :    21.822289856209420
 Root    322 :    21.871787889892610
 Root    323 :    21.877135559680050
 Root    324 :    21.918460261134480
 Root    325 :    21.951602215093020
 Root    326 :    21.978940590573500
 Root    327 :    22.055252984187770
 Root    328 :    22.092055070819350
 Root    329 :    22.193316027881110
 Root    330 :    22.227969686355290
 Root    331 :    22.228113928122000
 Root    332 :    22.243272011880290
 Root    333 :    22.269890389982080
 Root    334 :    22.324292685677870
 Root    335 :    22.328934754849410
 Root    336 :    22.330574023304500
 Root    337 :    22.396211504353940
 Root    338 :    22.424099901448730
 Root    339 :    22.436472356535800
 Root    340 :    22.506331682332470
 Root    341 :    22.511005781417100
 Root    342 :    22.563118620323960
 Root    343 :    22.611659642664750
 Root    344 :    22.617389139592000
 Root    345 :    22.646182564312690
 Root    346 :    22.666804044904470
 Root    347 :    22.668232829289740
 Root    348 :    22.686075018009460
 Root    349 :    22.698261664317700
 Root    350 :    22.736489038717570
 Root    351 :    22.749609648732170
 Root    352 :    22.773607523556610
 Root    353 :    22.850143080898360
 Root    354 :    22.874890107318310
 Root    355 :    22.938739827911630
 Root    356 :    22.971677670279350
 Root    357 :    22.973597079174860
 Root    358 :    23.013821852807060
 Root    359 :    23.101077447119370
 Root    360 :    23.148495786684650
 Root    361 :    23.163024282333390
 Root    362 :    23.184169801024700
 Root    363 :    23.188278162313160
 Root    364 :    23.220613715277440
 Root    365 :    23.251063671452730
 Root    366 :    23.283470490922320
 Root    367 :    23.284585706221030
 Root    368 :    23.313937657991460
 Root    369 :    23.320455422314090
 Root    370 :    23.331304495943370
 Root    371 :    23.372378446758710
 Root    372 :    23.412238565240190
 Root    373 :    23.427242702847060
 Root    374 :    23.516919178848960
 Root    375 :    23.529523704950480
 Root    376 :    23.547570629965840
 Root    377 :    23.573610692878060
 Root    378 :    23.601275778441630
 Root    379 :    23.694140978959560
 Root    380 :    23.704392102011250
 Root    381 :    23.716784368680700
 Root    382 :    23.759621459303150
 Root    383 :    23.797403155710090
 Root    384 :    23.812402414744730
 Root    385 :    23.847560000634540
 Root    386 :    23.857461883596950
 Root    387 :    23.926583609166070
 Root    388 :    23.928977690934860
 Root    389 :    23.929516015844000
 Root    390 :    23.989086908912080
 Root    391 :    23.998808729969310
 Root    392 :    24.068915643916960
 Root    393 :    24.095597290502780
 Root    394 :    24.102312207832270
 Root    395 :    24.182700013254460
 Root    396 :    24.185411490107290
 Root    397 :    24.210702860282050
 Root    398 :    24.226847088479030
 Root    399 :    24.264304112628510
 Root    400 :    24.291817489679800
 Root    401 :    24.295718212803200
 Root    402 :    24.390417507990580
 Root    403 :    24.426770214834420
 Root    404 :    24.441916072377700
 Root    405 :    24.567814744824090
 Root    406 :    24.613352867079370
 Root    407 :    24.640919458380400
 Root    408 :    24.690155853664960
 Root    409 :    24.739016779969780
 Root    410 :    24.790729389166430
 Root    411 :    24.802186450972920
 Root    412 :    24.846412492776550
 Root    413 :    24.863073543299970
 Root    414 :    24.981155559548730
 Root    415 :    24.996554840152300
 Root    416 :    25.118657027075180
 Root    417 :    25.132429198842030
 Root    418 :    25.141199480431230
 Root    419 :    25.168098377777370
 Root    420 :    25.286139006335220
 Root    421 :    25.289569496467140
 Root    422 :    25.299688510506410
 Root    423 :    25.327492794494000
 Root    424 :    25.361295350712370
 Root    425 :    25.404252019126430
 Root    426 :    25.491728441807070
 Root    427 :    25.493462692434890
 Root    428 :    25.499908879830290
 Root    429 :    25.553235436295080
 Root    430 :    25.684127292414750
 Root    431 :    25.689582151415540
 Root    432 :    25.722428141122510
 Root    433 :    25.728732915567910
 Root    434 :    25.791481077935340
 Root    435 :    25.872517860345350
 Root    436 :    25.921811869427860
 Root    437 :    25.989817313436230
 Root    438 :    26.213673169428320
 Root    439 :    26.221026400604390
 Root    440 :    26.229869145506570
 Root    441 :    26.243910266579140
 Root    442 :    26.360862470149630
 Root    443 :    26.436854647099560
 Root    444 :    26.447270506853930
 Root    445 :    26.451529660735020
 Root    446 :    26.666612370411840
 Root    447 :    26.699817970372480
 Root    448 :    26.717655390668130
 Root    449 :    26.723747688392240
 Root    450 :    26.780111923930950
 Root    451 :    26.851723596003060
 Root    452 :    26.859912288045780
 Root    453 :    26.905791150322380
 Root    454 :    26.941868594274040
 Root    455 :    27.082046636695760
 Root    456 :    27.091462006822910
 Root    457 :    27.139364558156380
 Root    458 :    27.150237290104100
 Root    459 :    27.186127121227860
 Root    460 :    27.197197912361490
 Root    461 :    27.297961582709230
 Root    462 :    27.428598964568610
 Root    463 :    27.487879244531090
 Root    464 :    27.582821170017130
 Root    465 :    27.808953690399820
 Root    466 :    27.877912832059550
 Root    467 :    28.088727249123740
 Root    468 :    28.105758328479350
 Root    469 :    28.198042646787710
 Root    470 :    28.265315126670890
 Root    471 :    28.272997731572450
 Root    472 :    28.394116676954070
 Root    473 :    28.398520674843040
 Root    474 :    28.511247596105270
 Root    475 :    28.639231028751950
 Root    476 :    28.663979556492830
 Root    477 :    28.704078808886160
 Root    478 :    28.808318672062410
 Root    479 :    28.948644638910870
 Root    480 :    28.987436747318320
 Root    481 :    29.134578363928430
 Root    482 :    29.148300652782610
 Root    483 :    29.164081746628820
 Root    484 :    29.238704943427390
 Root    485 :    29.266481426719440
 Root    486 :    29.277078185546850
 Root    487 :    29.389486083101180
 Root    488 :    29.433201465145700
 Root    489 :    29.471031605621600
 Root    490 :    29.585985039803860
 Root    491 :    29.646115040407160
 Root    492 :    29.668741227441530
 Root    493 :    29.715446010453170
 Root    494 :    29.767966127193390
 Root    495 :    29.778453786631200
 Root    496 :    29.888575564004640
 Root    497 :    29.922410577327750
 Root    498 :    29.945711461696060
 Root    499 :    30.343070390710060
 Root    500 :    30.387163513878380
 Root    501 :    30.398984021165290
 Root    502 :    30.584589512915250
 Root    503 :    30.624920390373910
 Root    504 :    30.637060103862020
 Root    505 :    30.677768687754580
 Root    506 :    30.702314043983220
 Root    507 :    30.869521480712400
 Root    508 :    30.992696016748060
 Root    509 :    31.043947227637570
 Root    510 :    31.076423344340920
 Root    511 :    31.145971466378050
 Root    512 :    31.188772718642730
 Root    513 :    31.324814000576290
 Root    514 :    31.379089909435170
 Root    515 :    31.389963385748880
 Root    516 :    31.448990555812360
 Root    517 :    31.453615180632290
 Root    518 :    31.466466107153310
 Root    519 :    31.638257481226340
 Root    520 :    31.702879974893250
 Root    521 :    31.728609873451260
 Root    522 :    31.745724632112920
 Root    523 :    31.893261442033430
 Root    524 :    31.922106274520200
 Root    525 :    31.973093649573660
 Root    526 :    31.986977050769940
 Root    527 :    32.053009459088860
 Root    528 :    32.153631220242940
 Root    529 :    32.179099672691830
 Root    530 :    32.199587817241750
 Root    531 :    32.322018373951900
 Root    532 :    32.379142495180740
 Root    533 :    32.403692756107260
 Root    534 :    32.434662775038350
 Root    535 :    32.496802018180940
 Root    536 :    32.503922168817600
 Root    537 :    32.673522012863320
 Root    538 :    32.800011280102150
 Root    539 :    32.886881476084000
 Root    540 :    33.064905922991610
 Root    541 :    33.065524132967620
 Root    542 :    33.210434317423460
 Root    543 :    33.224590452865830
 Root    544 :    33.256201301251930
 Root    545 :    33.453405811371290
 Root    546 :    33.505049439792980
 Root    547 :    33.510761368367350
 Root    548 :    33.607771236968130
 Root    549 :    33.724809908712280
 Root    550 :    33.753378032402640
 Root    551 :    33.825712845882560
 Root    552 :    33.968594272159540
 Root    553 :    34.054406456790080
 Root    554 :    34.097989396954850
 Root    555 :    34.128564956846560
 Root    556 :    34.133810129581600
 Root    557 :    34.156802625881140
 Root    558 :    34.212288333348230
 Root    559 :    34.267902057576710
 Root    560 :    34.274147777204600
 Root    561 :    34.283498658522050
 Root    562 :    34.309862312772890
 Root    563 :    34.347730862854210
 Root    564 :    34.368621572384510
 Root    565 :    34.370815604703970
 Root    566 :    34.404463182829670
 Root    567 :    34.598540006097170
 Root    568 :    34.810921077020820
 Root    569 :    34.814819882067130
 Root    570 :    34.826740266650400
 Root    571 :    34.861673134756920
 Root    572 :    35.288934584798170
 Root    573 :    35.293916363167940
 Root    574 :    35.327042877137130
 Root    575 :    35.429691421216840
 Root    576 :    35.484151612712930
 Root    577 :    35.491786309900640
[...]
     15   0.000000D+00 -0.168878D+00  0.000000D+00 -0.974564D-01  0.626511D-01
     16   0.000000D+00  0.000000D+00  0.000000D+00  0.000000D+00  0.000000D+00
              1041          1042          1043          1044          1045 
      1  -0.115743D+03 -0.115735D+03 -0.115724D+03 -0.115715D+03 -0.115712D+03
      2   0.000000D+00 -0.701999D-01  0.000000D+00  0.000000D+00 -0.751171D-01
      3   0.000000D+00  0.000000D+00  0.000000D+00 -0.498074D-02  0.000000D+00
      4   0.407009D-01  0.000000D+00  0.522421D-01  0.000000D+00  0.000000D+00
      5   0.000000D+00  0.177881D+00  0.000000D+00  0.000000D+00  0.196997D+00
      6   0.000000D+00  0.000000D+00  0.000000D+00  0.217322D-01  0.000000D+00
      7  -0.126673D+00  0.000000D+00 -0.160781D+00  0.000000D+00  0.000000D+00
      8   0.000000D+00  0.000000D+00  0.000000D+00 -0.772646D+00  0.000000D+00
      9   0.000000D+00 -0.197469D-01  0.000000D+00  0.000000D+00  0.259951D+00
     10   0.000000D+00  0.000000D+00  0.000000D+00  0.000000D+00  0.000000D+00
     11  -0.246713D-01  0.000000D+00  0.465477D-01  0.000000D+00  0.000000D+00
     12   0.592205D+00  0.000000D+00  0.142989D+01  0.000000D+00  0.000000D+00
     13   0.215402D-01  0.000000D+00 -0.604540D+00  0.000000D+00  0.000000D+00
     14   0.000000D+00  0.000000D+00  0.000000D+00  0.000000D+00  0.000000D+00
     15   0.000000D+00  0.540008D-01  0.000000D+00  0.000000D+00  0.102543D+00
     16   0.000000D+00  0.000000D+00  0.000000D+00 -0.683670D+00  0.000000D+00
              1046          1047          1048          1049          1050 
      1  -0.115701D+03 -0.115700D+03 -0.115699D+03 -0.115698D+03 -0.115690D+03
      2   0.000000D+00  0.000000D+00  0.000000D+00  0.000000D+00  0.000000D+00
      3   0.000000D+00  0.450188D-02  0.000000D+00  0.000000D+00  0.647810D-01
      4   0.000000D+00  0.000000D+00  0.117023D-01  0.469883D-02  0.000000D+00
      5   0.000000D+00  0.000000D+00  0.000000D+00  0.000000D+00  0.000000D+00
      6   0.000000D+00 -0.826483D-02  0.000000D+00  0.000000D+00 -0.194969D+00
      7   0.000000D+00  0.000000D+00 -0.316872D-01 -0.293551D-01  0.000000D+00
      8   0.000000D+00 -0.411820D+00  0.000000D+00  0.000000D+00  0.761401D+00
      9   0.000000D+00  0.000000D+00  0.000000D+00  0.000000D+00  0.000000D+00
     10   0.706353D+00  0.000000D+00  0.000000D+00  0.000000D+00  0.000000D+00
     11   0.000000D+00  0.000000D+00  0.363752D-01  0.399538D-01  0.000000D+00
     12   0.000000D+00  0.000000D+00  0.820373D-01  0.604524D+00  0.000000D+00
     13   0.000000D+00  0.000000D+00  0.215286D-01  0.559343D+00  0.000000D+00
     14  -0.708489D+00  0.000000D+00  0.000000D+00  0.000000D+00  0.000000D+00
     15   0.000000D+00  0.000000D+00  0.000000D+00  0.000000D+00  0.000000D+00
     16   0.000000D+00  0.962614D-01  0.000000D+00  0.000000D+00  0.371783D+00
              1051          1052          1053          1054          1055 
      1  -0.115675D+03 -0.115674D+03 -0.115671D+03 -0.115664D+03 -0.115661D+03
      2   0.000000D+00  0.000000D+00  0.000000D+00  0.798417D-01  0.000000D+00
      3   0.151850D-01  0.000000D+00  0.000000D+00  0.000000D+00 -0.755897D-01
      4   0.000000D+00  0.000000D+00  0.000000D+00  0.000000D+00  0.000000D+00
      5   0.000000D+00  0.000000D+00  0.000000D+00 -0.206222D+00  0.000000D+00
      6  -0.567908D-01  0.000000D+00  0.000000D+00  0.000000D+00  0.223833D+00
      7   0.000000D+00  0.000000D+00  0.000000D+00  0.000000D+00  0.000000D+00
      8  -0.259182D-02  0.000000D+00  0.000000D+00  0.000000D+00 -0.268788D+00
      9   0.000000D+00  0.000000D+00  0.000000D+00 -0.118069D+00  0.000000D+00
     10   0.000000D+00 -0.461544D+00  0.264131D+00  0.000000D+00  0.000000D+00
     11   0.000000D+00  0.000000D+00  0.000000D+00  0.000000D+00  0.000000D+00
     12   0.000000D+00  0.000000D+00  0.000000D+00  0.000000D+00  0.000000D+00
     13   0.000000D+00  0.000000D+00  0.000000D+00  0.000000D+00  0.000000D+00
     14   0.000000D+00  0.685322D+00 -0.755769D-01  0.000000D+00  0.000000D+00
     15   0.000000D+00  0.000000D+00  0.000000D+00 -0.878355D-01  0.000000D+00
     16  -0.127368D-01  0.000000D+00  0.000000D+00  0.000000D+00 -0.348543D+00
              1056          1057          1058          1059          1060 
      1  -0.115659D+03 -0.115657D+03 -0.115655D+03 -0.115644D+03 -0.115642D+03
      2   0.000000D+00  0.000000D+00  0.000000D+00  0.000000D+00  0.000000D+00
      3   0.000000D+00  0.000000D+00  0.410879D-01  0.000000D+00  0.000000D+00
      4   0.000000D+00  0.122913D+00  0.000000D+00  0.000000D+00  0.128289D+00
      5   0.000000D+00  0.000000D+00  0.000000D+00  0.000000D+00  0.000000D+00
      6   0.000000D+00  0.000000D+00 -0.114491D+00  0.000000D+00  0.000000D+00
      7   0.000000D+00 -0.344008D+00  0.000000D+00  0.000000D+00 -0.342786D+00
      8   0.000000D+00  0.000000D+00  0.168863D+00  0.000000D+00  0.000000D+00
      9   0.000000D+00  0.000000D+00  0.000000D+00  0.000000D+00  0.000000D+00
     10   0.568807D-01  0.000000D+00  0.000000D+00 -0.887794D-01  0.000000D+00
     11   0.000000D+00 -0.196764D+00  0.000000D+00  0.000000D+00  0.387908D-01
     12   0.000000D+00 -0.130311D+01  0.000000D+00  0.000000D+00  0.725155D-01
     13   0.000000D+00  0.226852D+00  0.000000D+00  0.000000D+00 -0.392097D-01
     14  -0.254040D+00  0.000000D+00  0.000000D+00 -0.802173D-01  0.000000D+00
     15   0.000000D+00  0.000000D+00  0.000000D+00  0.000000D+00  0.000000D+00
     16   0.000000D+00  0.000000D+00  0.297877D+00  0.000000D+00  0.000000D+00
              1061          1062          1063          1064          1065 
      1  -0.115640D+03 -0.115623D+03 -0.115608D+03 -0.115606D+03 -0.115603D+03
      2   0.000000D+00 -0.989519D-01  0.000000D+00  0.000000D+00  0.000000D+00
      3   0.152819D+00  0.000000D+00 -0.687866D-02  0.000000D+00  0.000000D+00
      4   0.000000D+00  0.000000D+00  0.000000D+00  0.324281D-01  0.123442D-01
      5   0.000000D+00  0.273913D+00  0.000000D+00  0.000000D+00  0.000000D+00
      6  -0.447123D+00  0.000000D+00  0.280921D-01  0.000000D+00  0.000000D+00
      7   0.000000D+00  0.000000D+00  0.000000D+00 -0.906752D-01 -0.418381D-01
      8   0.355528D+00  0.000000D+00  0.498421D+00  0.000000D+00  0.000000D+00
      9   0.000000D+00 -0.125377D+00  0.000000D+00  0.000000D+00  0.000000D+00
     10   0.000000D+00  0.000000D+00  0.000000D+00  0.000000D+00  0.000000D+00
     11   0.000000D+00  0.000000D+00  0.000000D+00 -0.132273D+00 -0.309983D-01
     12   0.000000D+00  0.000000D+00  0.000000D+00  0.157065D+00 -0.125948D+01
     13   0.000000D+00  0.000000D+00  0.000000D+00  0.527285D+00  0.454861D-01
     14   0.000000D+00  0.000000D+00  0.000000D+00  0.000000D+00  0.000000D+00
     15   0.000000D+00 -0.544845D-01  0.000000D+00  0.000000D+00  0.000000D+00
     16   0.173690D+00  0.000000D+00  0.447514D+00  0.000000D+00  0.000000D+00
              1066          1067          1068          1069          1070 
      1  -0.115603D+03 -0.115601D+03 -0.115598D+03 -0.115588D+03 -0.115587D+03
      2  -0.383407D-01  0.000000D+00  0.851655D-01 -0.458196D-01  0.000000D+00
      3   0.000000D+00  0.000000D+00  0.000000D+00  0.000000D+00  0.141060D+00
      4   0.000000D+00  0.000000D+00  0.000000D+00  0.000000D+00  0.000000D+00
      5   0.909179D-01  0.000000D+00 -0.252357D+00  0.113648D+00  0.000000D+00
      6   0.000000D+00  0.000000D+00  0.000000D+00  0.000000D+00 -0.415114D+00
      7   0.000000D+00  0.000000D+00  0.000000D+00  0.000000D+00  0.000000D+00
      8   0.000000D+00  0.000000D+00  0.000000D+00  0.000000D+00 -0.476609D+00
      9  -0.506859D-01  0.000000D+00 -0.222679D-01  0.167139D+00  0.000000D+00
     10   0.000000D+00 -0.784502D+00  0.000000D+00  0.000000D+00  0.000000D+00
     11   0.000000D+00  0.000000D+00  0.000000D+00  0.000000D+00  0.000000D+00
     12   0.000000D+00  0.000000D+00  0.000000D+00  0.000000D+00  0.000000D+00
     13   0.000000D+00  0.000000D+00  0.000000D+00  0.000000D+00  0.000000D+00
     14   0.000000D+00  0.731805D+00  0.000000D+00  0.000000D+00  0.000000D+00
     15  -0.202438D-01  0.000000D+00 -0.105443D+00  0.184713D+00  0.000000D+00
     16   0.000000D+00  0.000000D+00  0.000000D+00  0.000000D+00 -0.323267D+00
              1071          1072          1073          1074          1075 
      1  -0.115586D+03 -0.115566D+03 -0.115565D+03 -0.115562D+03 -0.115560D+03
      2   0.000000D+00  0.000000D+00  0.000000D+00  0.000000D+00  0.000000D+00
      3   0.000000D+00  0.736467D-01  0.000000D+00  0.000000D+00 -0.894883D-02
      4   0.180246D-01  0.000000D+00  0.310731D-02 -0.134035D+00  0.000000D+00
      5   0.000000D+00  0.000000D+00  0.000000D+00  0.000000D+00  0.000000D+00
      6   0.000000D+00 -0.189956D+00  0.000000D+00  0.000000D+00  0.388491D-01
      7  -0.306296D-01  0.000000D+00 -0.156048D-01  0.391510D+00  0.000000D+00
      8   0.000000D+00 -0.510574D+00  0.000000D+00  0.000000D+00 -0.155345D+00
      9   0.000000D+00  0.000000D+00  0.000000D+00  0.000000D+00  0.000000D+00
     10   0.000000D+00  0.000000D+00  0.000000D+00  0.000000D+00  0.000000D+00
     11  -0.770965D-01  0.000000D+00  0.682460D-01  0.483189D-01  0.000000D+00
     12  -0.126999D+00  0.000000D+00 -0.399713D+00 -0.961903D-01  0.000000D+00
     13   0.281160D+00  0.000000D+00 -0.326308D+00  0.225853D+00  0.000000D+00
     14   0.000000D+00  0.000000D+00  0.000000D+00  0.000000D+00  0.000000D+00
     15   0.000000D+00  0.000000D+00  0.000000D+00  0.000000D+00  0.000000D+00
     16   0.000000D+00 -0.129740D+00  0.000000D+00  0.000000D+00 -0.780542D+00
              1076          1077          1078          1079          1080 
      1  -0.115557D+03 -0.115557D+03 -0.115557D+03 -0.115552D+03 -0.115546D+03
      2  -0.148655D+00  0.000000D+00  0.000000D+00  0.000000D+00  0.000000D+00
      3   0.000000D+00  0.000000D+00  0.000000D+00  0.000000D+00  0.000000D+00
      4   0.000000D+00  0.908975D-01  0.000000D+00  0.000000D+00  0.000000D+00
      5   0.438496D+00  0.000000D+00  0.000000D+00  0.000000D+00  0.000000D+00
      6   0.000000D+00  0.000000D+00  0.000000D+00  0.000000D+00  0.000000D+00
      7   0.000000D+00 -0.264671D+00  0.000000D+00  0.000000D+00  0.000000D+00
      8   0.000000D+00  0.000000D+00  0.000000D+00  0.000000D+00  0.000000D+00
      9   0.105648D+00  0.000000D+00  0.000000D+00  0.000000D+00  0.000000D+00
     10   0.000000D+00  0.000000D+00 -0.161654D+00 -0.705095D+00  0.171492D+00
     11   0.000000D+00  0.166322D+00  0.000000D+00  0.000000D+00  0.000000D+00
     12   0.000000D+00  0.314224D+00  0.000000D+00  0.000000D+00  0.000000D+00
     13   0.000000D+00  0.243734D+00  0.000000D+00  0.000000D+00  0.000000D+00
     14   0.000000D+00  0.000000D+00  0.110480D+00  0.643297D+00 -0.194099D+00
     15   0.904615D-01  0.000000D+00  0.000000D+00  0.000000D+00  0.000000D+00
     16   0.000000D+00  0.000000D+00  0.000000D+00  0.000000D+00  0.000000D+00
              1081          1082          1083          1084          1085 
      1  -0.115545D+03 -0.115537D+03 -0.115529D+03 -0.115513D+03 -0.115509D+03
      2   0.499471D-01 -0.630807D-01  0.000000D+00  0.000000D+00  0.000000D+00
      3   0.000000D+00  0.000000D+00  0.196987D-01  0.141403D-02  0.000000D+00
      4   0.000000D+00  0.000000D+00  0.000000D+00  0.000000D+00  0.000000D+00
      5  -0.141885D+00  0.176699D+00  0.000000D+00  0.000000D+00  0.000000D+00
      6   0.000000D+00  0.000000D+00 -0.590954D-01 -0.125046D-01  0.000000D+00
      7   0.000000D+00  0.000000D+00  0.000000D+00  0.000000D+00  0.000000D+00
      8   0.000000D+00  0.000000D+00 -0.748843D-01 -0.406416D+00  0.000000D+00
      9   0.211237D+00 -0.230471D-01  0.000000D+00  0.000000D+00  0.000000D+00
     10   0.000000D+00  0.000000D+00  0.000000D+00  0.000000D+00  0.324190D+00
     11   0.000000D+00  0.000000D+00  0.000000D+00  0.000000D+00  0.000000D+00
     12   0.000000D+00  0.000000D+00  0.000000D+00  0.000000D+00  0.000000D+00
     13   0.000000D+00  0.000000D+00  0.000000D+00  0.000000D+00  0.000000D+00
     14   0.000000D+00  0.000000D+00  0.000000D+00  0.000000D+00 -0.179429D+00
     15   0.235128D+00  0.423402D-01  0.000000D+00  0.000000D+00  0.000000D+00
     16   0.000000D+00  0.000000D+00  0.190521D+00 -0.504943D+00  0.000000D+00
              1086          1087          1088          1089          1090 
      1  -0.115498D+03 -0.115496D+03 -0.115487D+03 -0.115478D+03 -0.115477D+03
      2   0.000000D+00  0.000000D+00  0.000000D+00  0.000000D+00 -0.374988D-01
      3   0.000000D+00  0.000000D+00 -0.264683D-01  0.000000D+00  0.000000D+00
      4   0.000000D+00  0.151492D-01  0.000000D+00  0.300348D-01  0.000000D+00
      5   0.000000D+00  0.000000D+00  0.000000D+00  0.000000D+00  0.104940D+00
      6   0.000000D+00  0.000000D+00  0.841857D-01  0.000000D+00  0.000000D+00
      7   0.000000D+00 -0.281541D-01  0.000000D+00 -0.673063D-01  0.000000D+00
      8   0.000000D+00  0.000000D+00 -0.548358D+00  0.000000D+00  0.000000D+00
      9   0.000000D+00  0.000000D+00  0.000000D+00  0.000000D+00 -0.118160D+00
     10   0.254959D+00  0.000000D+00  0.000000D+00  0.000000D+00  0.000000D+00
     11   0.000000D+00  0.447590D-01  0.000000D+00  0.160576D-01  0.000000D+00
     12   0.000000D+00 -0.140696D+01  0.000000D+00 -0.609901D+00  0.000000D+00
     13   0.000000D+00 -0.640824D-01  0.000000D+00 -0.813934D-01  0.000000D+00
     14  -0.276765D+00  0.000000D+00  0.000000D+00  0.000000D+00  0.000000D+00
     15   0.000000D+00  0.000000D+00  0.000000D+00  0.000000D+00 -0.188211D+00
     16   0.000000D+00  0.000000D+00 -0.599819D+00  0.000000D+00  0.000000D+00
              1091          1092          1093          1094          1095 
      1  -0.115474D+03 -0.115461D+03 -0.115448D+03 -0.115442D+03 -0.115440D+03
      2   0.000000D+00 -0.242093D-01  0.000000D+00  0.000000D+00  0.000000D+00
      3   0.000000D+00  0.000000D+00  0.000000D+00  0.000000D+00  0.373161D-01
      4  -0.429740D-01  0.000000D+00  0.000000D+00 -0.268853D-01  0.000000D+00
      5   0.000000D+00  0.581990D-01  0.000000D+00  0.000000D+00  0.000000D+00
      6   0.000000D+00  0.000000D+00  0.000000D+00  0.000000D+00 -0.921095D-01
      7   0.105860D+00  0.000000D+00  0.000000D+00  0.761034D-01  0.000000D+00
      8   0.000000D+00  0.000000D+00  0.000000D+00  0.000000D+00 -0.302517D+00
      9   0.000000D+00  0.276958D+00  0.000000D+00  0.000000D+00  0.000000D+00
     10   0.000000D+00  0.000000D+00  0.665310D+00  0.000000D+00  0.000000D+00
     11   0.239308D+00  0.000000D+00  0.000000D+00  0.998826D-01  0.000000D+00
     12  -0.110397D+01  0.000000D+00  0.000000D+00  0.196441D-02  0.000000D+00
     13  -0.448515D+00  0.000000D+00  0.000000D+00  0.539064D+00  0.000000D+00
     14   0.000000D+00  0.000000D+00 -0.724253D+00  0.000000D+00  0.000000D+00
     15   0.000000D+00  0.316267D+00  0.000000D+00  0.000000D+00  0.000000D+00
     16   0.000000D+00  0.000000D+00  0.000000D+00  0.000000D+00  0.657935D-01
              1096          1097          1098          1099          1100 
      1  -0.115390D+03 -0.115383D+03 -0.115380D+03 -0.115367D+03 -0.115354D+03
      2   0.000000D+00  0.000000D+00  0.000000D+00  0.000000D+00  0.491331D-01
      3  -0.352594D-01  0.515562D-01  0.000000D+00  0.000000D+00  0.000000D+00
      4   0.000000D+00  0.000000D+00  0.000000D+00  0.288491D-01  0.000000D+00
      5   0.000000D+00  0.000000D+00  0.000000D+00  0.000000D+00 -0.138736D+00
      6   0.756299D-01 -0.106852D+00  0.000000D+00  0.000000D+00  0.000000D+00
      7   0.000000D+00  0.000000D+00  0.000000D+00 -0.757359D-01  0.000000D+00
      8   0.128255D+00  0.300856D+00  0.000000D+00  0.000000D+00  0.000000D+00
      9   0.000000D+00  0.000000D+00  0.000000D+00  0.000000D+00  0.233326D+00
     10   0.000000D+00  0.000000D+00 -0.964220D-01  0.000000D+00  0.000000D+00
     11   0.000000D+00  0.000000D+00  0.000000D+00 -0.957304D-01  0.000000D+00
     12   0.000000D+00  0.000000D+00  0.000000D+00 -0.622203D-01  0.000000D+00
     13   0.000000D+00  0.000000D+00  0.000000D+00  0.132572D+00  0.000000D+00
     14   0.000000D+00  0.000000D+00 -0.183640D-01  0.000000D+00  0.000000D+00
     15   0.000000D+00  0.000000D+00  0.000000D+00  0.000000D+00 -0.513915D-01
     16  -0.346588D+00  0.158585D+00  0.000000D+00  0.000000D+00  0.000000D+00
              1101          1102          1103          1104          1105 
      1  -0.115352D+03 -0.115336D+03 -0.115298D+03 -0.115293D+03 -0.115280D+03
      2   0.000000D+00  0.186689D-01  0.000000D+00  0.851859D-01  0.000000D+00
      3   0.000000D+00  0.000000D+00  0.000000D+00  0.000000D+00 -0.349015D-01
      4  -0.680878D-01  0.000000D+00  0.397231D-01  0.000000D+00  0.000000D+00
      5   0.000000D+00 -0.462829D-01  0.000000D+00 -0.243696D+00  0.000000D+00
      6   0.000000D+00  0.000000D+00  0.000000D+00  0.000000D+00  0.116876D+00
      7   0.201847D+00  0.000000D+00 -0.944206D-01  0.000000D+00  0.000000D+00
      8   0.000000D+00  0.000000D+00  0.000000D+00  0.000000D+00  0.588226D+00
      9   0.000000D+00 -0.962461D-01  0.000000D+00  0.142619D+00  0.000000D+00
     10   0.000000D+00  0.000000D+00  0.000000D+00  0.000000D+00  0.000000D+00
     11   0.173634D+00  0.000000D+00  0.174832D+00  0.000000D+00  0.000000D+00
     12   0.685951D+00  0.000000D+00  0.429909D+00  0.000000D+00  0.000000D+00
     13  -0.106691D+00  0.000000D+00 -0.405859D+00  0.000000D+00  0.000000D+00
     14   0.000000D+00  0.000000D+00  0.000000D+00  0.000000D+00  0.000000D+00
     15   0.000000D+00  0.561790D-01  0.000000D+00 -0.483716D-01  0.000000D+00
     16   0.000000D+00  0.000000D+00  0.000000D+00  0.000000D+00  0.512462D+00
              1106          1107          1108          1109          1110 
      1  -0.115257D+03 -0.115245D+03 -0.115198D+03 -0.115186D+03 -0.115154D+03
      2   0.000000D+00  0.000000D+00  0.000000D+00  0.000000D+00  0.104044D+00
      3  -0.611914D-01  0.000000D+00  0.000000D+00  0.000000D+00  0.000000D+00
      4   0.000000D+00  0.000000D+00  0.000000D+00 -0.877513D-01  0.000000D+00
      5   0.000000D+00  0.000000D+00  0.000000D+00  0.000000D+00 -0.303902D+00
      6   0.161263D+00  0.000000D+00  0.000000D+00  0.000000D+00  0.000000D+00
      7   0.000000D+00  0.000000D+00  0.000000D+00  0.247247D+00  0.000000D+00
      8   0.431232D+00  0.000000D+00  0.000000D+00  0.000000D+00  0.000000D+00
      9   0.000000D+00  0.000000D+00  0.000000D+00  0.000000D+00 -0.141577D+00
     10   0.000000D+00  0.386707D+00  0.509804D+00  0.000000D+00  0.000000D+00
     11   0.000000D+00  0.000000D+00  0.000000D+00  0.106194D+00  0.000000D+00
     12   0.000000D+00  0.000000D+00  0.000000D+00  0.418808D+00  0.000000D+00
     13   0.000000D+00  0.000000D+00  0.000000D+00 -0.119195D+00  0.000000D+00
     14   0.000000D+00 -0.301739D+00 -0.569967D+00  0.000000D+00  0.000000D+00
     15   0.000000D+00  0.000000D+00  0.000000D+00  0.000000D+00 -0.903990D-01
     16   0.239484D+00  0.000000D+00  0.000000D+00  0.000000D+00  0.000000D+00
 Unable to Open any file for archive entry.
 1\1\GINC-HEL11\SP\RBLYP TD-FC\Gen\C3H8\SABYASACHI\21-Mar-2022\0\\#P TD
 (Nstates=10000) blyp/Gen SCF(maxcycles=100) Int(Grid=ultrafine)\\xGDB7
 _00001_tier4.com\\0,1\C,0,0.,1.267731,-0.259082\C,0,0.,0.,0.585552\C,0
 ,0.,-1.267731,-0.259082\H,0,0.,2.164308,0.363087\H,0,-0.881453,1.30767
 5,-0.903652\H,0,0.881453,1.307675,-0.903652\H,0,-0.874532,0.,1.242055\
 H,0,0.874532,0.,1.242055\H,0,-0.881453,-1.307675,-0.903652\H,0,0.,-2.1
 64308,0.363087\H,0,0.881453,-1.307675,-0.903652\\Version=EM64L-G16RevC
 .01\State=1-A1\HF=-118.969593\RMSD=2.150e-09\PG=C02V [C2(C1),SGV(C2H2)
 ,SGV'(H2),X(H4)]\\@
 The archive entry for this job was punched.


 Other things may change us, but we start and end with family.
 -- Anthony Brandt
 Job cpu time:       0 days  0 hours 10 minutes 41.7 seconds.
 Elapsed time:       0 days  0 hours  1 minutes 20.5 seconds.
 File lengths (MBytes):  RWF=    620 Int=      0 D2E=      0 Chk=    404 Scr=      1
 Normal termination of Gaussian 16 at Mon Mar 21 20:04:31 2022.
