 Entering Gaussian System, Link 0=g16
 Input=000025.com
 Output=000025.log
 Initial command:
 /home/sabyasachi/g16/l1.exe "/scratch/sabyasachi/PBS_7975928.helios/Gau-30373.inp" -scrdir="/scratch/sabyasachi/PBS_7975928.helios/"
 Entering Link 1 = /home/sabyasachi/g16/l1.exe PID=     30374.
  
 Copyright (c) 1988-2019, Gaussian, Inc.  All Rights Reserved.
  
 This is part of the Gaussian(R) 16 program.  It is based on
 the Gaussian(R) 09 system (copyright 2009, Gaussian, Inc.),
 the Gaussian(R) 03 system (copyright 2003, Gaussian, Inc.),
 the Gaussian(R) 98 system (copyright 1998, Gaussian, Inc.),
 the Gaussian(R) 94 system (copyright 1995, Gaussian, Inc.),
 the Gaussian 92(TM) system (copyright 1992, Gaussian, Inc.),
 the Gaussian 90(TM) system (copyright 1990, Gaussian, Inc.),
 the Gaussian 88(TM) system (copyright 1988, Gaussian, Inc.),
 the Gaussian 86(TM) system (copyright 1986, Carnegie Mellon
 University), and the Gaussian 82(TM) system (copyright 1983,
 Carnegie Mellon University). Gaussian is a federally registered
 trademark of Gaussian, Inc.
  
 This software contains proprietary and confidential information,
 including trade secrets, belonging to Gaussian, Inc.
  
 This software is provided under written license and may be
 used, copied, transmitted, or stored only in accord with that
 written license.
  
 The following legend is applicable only to US Government
 contracts under FAR:
  
                    RESTRICTED RIGHTS LEGEND
  
 Use, reproduction and disclosure by the US Government is
 subject to restrictions as set forth in subparagraphs (a)
 and (c) of the Commercial Computer Software - Restricted
 Rights clause in FAR 52.227-19.
  
 Gaussian, Inc.
 340 Quinnipiac St., Bldg. 40, Wallingford CT 06492
  
  
 ---------------------------------------------------------------
 Warning -- This program may not be used in any manner that
 competes with the business of Gaussian, Inc. or will provide
 assistance to any competitor of Gaussian, Inc.  The licensee
 of this program is prohibited from giving any competitor of
 Gaussian, Inc. access to this program.  By using this program,
 the user acknowledges that Gaussian, Inc. is engaged in the
 business of creating and licensing software in the field of
 computational chemistry and represents and warrants to the
 licensee that it is not a competitor of Gaussian, Inc. and that
 it will not use this program in any manner prohibited above.
 ---------------------------------------------------------------
  

 Cite this work as:
 Gaussian 16, Revision C.01,
 M. J. Frisch, G. W. Trucks, H. B. Schlegel, G. E. Scuseria, 
 M. A. Robb, J. R. Cheeseman, G. Scalmani, V. Barone, 
 G. A. Petersson, H. Nakatsuji, X. Li, M. Caricato, A. V. Marenich, 
 J. Bloino, B. G. Janesko, R. Gomperts, B. Mennucci, H. P. Hratchian, 
 J. V. Ortiz, A. F. Izmaylov, J. L. Sonnenberg, D. Williams-Young, 
 F. Ding, F. Lipparini, F. Egidi, J. Goings, B. Peng, A. Petrone, 
 T. Henderson, D. Ranasinghe, V. G. Zakrzewski, J. Gao, N. Rega, 
 G. Zheng, W. Liang, M. Hada, M. Ehara, K. Toyota, R. Fukuda, 
 J. Hasegawa, M. Ishida, T. Nakajima, Y. Honda, O. Kitao, H. Nakai, 
 T. Vreven, K. Throssell, J. A. Montgomery, Jr., J. E. Peralta, 
 F. Ogliaro, M. J. Bearpark, J. J. Heyd, E. N. Brothers, K. N. Kudin, 
 V. N. Staroverov, T. A. Keith, R. Kobayashi, J. Normand, 
 K. Raghavachari, A. P. Rendell, J. C. Burant, S. S. Iyengar, 
 J. Tomasi, M. Cossi, J. M. Millam, M. Klene, C. Adamo, R. Cammi, 
 J. W. Ochterski, R. L. Martin, K. Morokuma, O. Farkas, 
 J. B. Foresman, and D. J. Fox, Gaussian, Inc., Wallingford CT, 2019.
 
 ******************************************
 Gaussian 16:  EM64L-G16RevC.01  3-Jul-2019
                21-Mar-2022 
 ******************************************
 %mem=64gb
 %nproc=8
 Will use up to    8 processors via shared memory.
 --------------------------------------------------------------------
 #P TD(Nstates=10000) blyp/Gen SCF(maxcycles=100) Int(Grid=ultrafine)
 --------------------------------------------------------------------
 1/38=1,172=1/1;
 2/12=2,17=6,18=5,40=1/2;
 3/5=7,11=9,25=1,30=1,74=402,75=-5/1,2,3,8;
 4//1;
 5/5=2,7=100,38=5/2;
 8/6=1,10=1,108=10000/1;
 9/41=10000,42=1,70=2/14;
 6/7=2,8=2,9=2,10=2/1;
 99/5=1,9=1/99;
 Leave Link    1 at Mon Mar 21 20:06:27 2022, MaxMem=  8589934592 cpu:               0.4 elap:               0.1
 (Enter /home/sabyasachi/g16/l101.exe)
 ---------------------
 xGDB7_00001_tier4.com
 ---------------------
 Symbolic Z-matrix:
 Charge =  0 Multiplicity = 1
 7                    -1.07847  -0.1569    0. 
 6                     0.16196   0.38494   0. 
 8                     1.18917  -0.24546  0. 
 1                    -1.89843   0.41943  0. 
 1                    -1.17812  -1.15707  -0.00001 
 1                     0.14071   1.48995  -0.00001 
 
 ITRead=  0  0  0  0  0  0
 MicOpt= -1 -1 -1 -1 -1 -1
 NAtoms=      6 NQM=        6 NQMF=       0 NMMI=      0 NMMIF=      0
                NMic=       0 NMicF=      0.
                    Isotopes and Nuclear Properties:
 (Nuclear quadrupole moments (NQMom) in fm**2, nuclear magnetic moments (NMagM)
  in nuclear magnetons)

  Atom         1           2           3           4           5           6
 IAtWgt=          14          12          16           1           1           1
 AtmWgt=  14.0030740  12.0000000  15.9949146   1.0078250   1.0078250   1.0078250
 NucSpn=           2           0           0           1           1           1
 AtZEff=  -0.0000000  -0.0000000  -0.0000000  -0.0000000  -0.0000000  -0.0000000
 NQMom=    2.0440000   0.0000000   0.0000000   0.0000000   0.0000000   0.0000000
 NMagM=    0.4037610   0.0000000   0.0000000   2.7928460   2.7928460   2.7928460
 AtZNuc=   7.0000000   6.0000000   8.0000000   1.0000000   1.0000000   1.0000000
 Leave Link  101 at Mon Mar 21 20:06:27 2022, MaxMem=  8589934592 cpu:               0.6 elap:               0.1
 (Enter /home/sabyasachi/g16/l202.exe)
                          Input orientation:                          
 ---------------------------------------------------------------------
 Center     Atomic      Atomic             Coordinates (Angstroms)
 Number     Number       Type             X           Y           Z
 ---------------------------------------------------------------------
      1          7           0       -1.078471   -0.156900    0.000001
      2          6           0        0.161963    0.384944    0.000002
      3          8           0        1.189170   -0.245458   -0.000001
      4          1           0       -1.898427    0.419427   -0.000004
      5          1           0       -1.178124   -1.157073   -0.000005
      6          1           0        0.140706    1.489948   -0.000007
 ---------------------------------------------------------------------
                    Distance matrix (angstroms):
                    1          2          3          4          5
     1  N    0.000000
     2  C    1.353614   0.000000
     3  O    2.269370   1.205222   0.000000
     4  H    1.002238   2.060679   3.158374   0.000000
     5  H    1.005125   2.042951   2.536754   1.733260   0.000000
     6  H    2.049024   1.105208   2.027538   2.303059   2.957369
                    6
     6  H    0.000000
 Stoichiometry    CH3NO
 Framework group  C1[X(CH3NO)]
 Deg. of freedom    12
 Full point group                 C1      NOp   1
 Largest Abelian subgroup         C1      NOp   1
 Largest concise Abelian subgroup C1      NOp   1
                         Standard orientation:                         
 ---------------------------------------------------------------------
 Center     Atomic      Atomic             Coordinates (Angstroms)
 Number     Number       Type             X           Y           Z
 ---------------------------------------------------------------------
      1          7           0        1.078471   -0.156900   -0.000001
      2          6           0       -0.161963    0.384944   -0.000002
      3          8           0       -1.189170   -0.245458    0.000001
      4          1           0        1.898427    0.419427    0.000004
      5          1           0        1.178124   -1.157073    0.000005
      6          1           0       -0.140706    1.489948    0.000007
 ---------------------------------------------------------------------
 Rotational constants (GHZ):          74.0566602          11.4602930           9.9244769
 Leave Link  202 at Mon Mar 21 20:06:27 2022, MaxMem=  8589934592 cpu:               0.1 elap:               0.0
 (Enter /home/sabyasachi/g16/l301.exe)
 General basis read from cards:  (5D, 7F)
 Centers:       4      5      6
 S 3 1.00
     Exponent=  1.3010701000D+01 Coefficients=  1.9682158000D-02
     Exponent=  1.9622572000D+00 Coefficients=  1.3796524000D-01
     Exponent=  4.4453796000D-01 Coefficients=  4.7831935000D-01
 S 1 1.00
     Exponent=  1.2194962000D-01 Coefficients=  1.0000000000D+00
 P 1 1.00
     Exponent=  8.0000000000D-01 Coefficients=  1.0000000000D+00
 P 1 1.00
     Exponent=  1.1704099050D-01 Coefficients=  1.0000000000D+00
 ****
 Centers:       2
 S 5 1.00
     Exponent=  1.2384016938D+03 Coefficients=  5.4568832082D-03
     Exponent=  1.8629004992D+02 Coefficients=  4.0638409211D-02
     Exponent=  4.2251176346D+01 Coefficients=  1.8025593888D-01
     Exponent=  1.1676557932D+01 Coefficients=  4.6315121755D-01
     Exponent=  3.5930506482D+00 Coefficients=  4.4087173314D-01
 S 1 1.00
     Exponent=  4.0245147363D-01 Coefficients=  1.0000000000D+00
 S 1 1.00
     Exponent=  1.3090182668D-01 Coefficients=  1.0000000000D+00
 S 1 1.00
     Exponent=  6.7053540256D-02 Coefficients=  1.0000000000D+00
 P 3 1.00
     Exponent=  9.4680970621D+00 Coefficients=  3.8387871728D-02
     Exponent=  2.0103545142D+00 Coefficients=  2.1117025112D-01
     Exponent=  5.4771004707D-01 Coefficients=  5.1328172114D-01
 P 1 1.00
     Exponent=  1.5268613795D-01 Coefficients=  1.0000000000D+00
 D 1 1.00
     Exponent=  8.0000000000D-01 Coefficients=  1.0000000000D+00
 D 1 1.00
     Exponent=  1.1713185140D-01 Coefficients=  1.0000000000D+00
 ****
 Centers:       1
 S 5 1.00
     Exponent=  1.7128415853D+03 Coefficients= -5.3934125305D-03
     Exponent=  2.5764812677D+02 Coefficients= -4.0221581118D-02
     Exponent=  5.8458245853D+01 Coefficients= -1.7931144990D-01
     Exponent=  1.6198367905D+01 Coefficients= -4.6376317823D-01
     Exponent=  5.0052600809D+00 Coefficients= -4.4171422662D-01
 S 1 1.00
     Exponent=  5.8731856571D-01 Coefficients=  1.0000000000D+00
 S 1 1.00
     Exponent=  1.8764592253D-01 Coefficients=  1.0000000000D+00
 S 1 1.00
     Exponent=  9.6171241529D-02 Coefficients=  1.0000000000D+00
 P 3 1.00
     Exponent=  1.3571470233D+01 Coefficients= -4.0072398852D-02
     Exponent=  2.9257372874D+00 Coefficients= -2.1807045028D-01
     Exponent=  7.9927750754D-01 Coefficients= -5.1294466049D-01
 P 1 1.00
     Exponent=  2.1954348034D-01 Coefficients=  1.0000000000D+00
 D 1 1.00
     Exponent=  1.0000000000D+00 Coefficients=  1.0000000000D+00
 D 1 1.00
     Exponent=  1.6697708112D-01 Coefficients=  1.0000000000D+00
 ****
 Centers:       3
 S 5 1.00
     Exponent=  2.2661767785D+03 Coefficients= -5.3431809926D-03
     Exponent=  3.4087010191D+02 Coefficients= -3.9890039230D-02
     Exponent=  7.7363135167D+01 Coefficients= -1.7853911985D-01
     Exponent=  2.1479644940D+01 Coefficients= -4.6427684959D-01
     Exponent=  6.6589433124D+00 Coefficients= -4.4309745172D-01
 S 1 1.00
     Exponent=  8.0975975668D-01 Coefficients=  1.0000000000D+00
 S 1 1.00
     Exponent=  2.5530772234D-01 Coefficients=  1.0000000000D+00
 S 1 1.00
     Exponent=  7.6572453250D-02 Coefficients=  1.0000000000D+00
 P 3 1.00
     Exponent=  1.7721504317D+01 Coefficients=  4.3394573193D-02
     Exponent=  3.8635505440D+00 Coefficients=  2.3094120765D-01
     Exponent=  1.0480920883D+00 Coefficients=  5.1375311064D-01
 P 1 1.00
     Exponent=  2.7641544411D-01 Coefficients=  1.0000000000D+00
 P 1 1.00
     Exponent=  6.9002276350D-02 Coefficients=  1.0000000000D+00
 D 1 1.00
     Exponent=  1.2000000000D+00 Coefficients=  1.0000000000D+00
 D 1 1.00
     Exponent=  1.7992024323D-01 Coefficients=  1.0000000000D+00
 ****
 Ernie: Thresh=  0.10000D-02 Tol=  0.10000D-05 Strict=F.
 There are    93 symmetry adapted cartesian basis functions of A   symmetry.
 There are    87 symmetry adapted basis functions of A   symmetry.
    87 basis functions,   129 primitive gaussians,    93 cartesian basis functions
    12 alpha electrons       12 beta electrons
       nuclear repulsion energy        71.5209938297 Hartrees.
 IExCor=  402 DFT=T Ex=B Corr=LYP ExCW=0 ScaHFX=  0.000000
 ScaDFX=  1.000000  1.000000  1.000000  1.000000 ScalE2=  1.000000  1.000000
 IRadAn=      5 IRanWt=     -1 IRanGd=            0 ICorTp=0 IEmpDi=  4
 NAtoms=    6 NActive=    6 NUniq=    6 SFac= 1.00D+00 NAtFMM=   60 NAOKFM=F Big=F
 Integral buffers will be    131072 words long.
 Regular integral format.
 Two-electron integral symmetry is turned on.
 Leave Link  301 at Mon Mar 21 20:06:27 2022, MaxMem=  8589934592 cpu:               0.6 elap:               0.1
 (Enter /home/sabyasachi/g16/l302.exe)
 NPDir=0 NMtPBC=     1 NCelOv=     1 NCel=       1 NClECP=     1 NCelD=      1
         NCelK=      1 NCelE2=     1 NClLst=     1 CellRange=     0.0.
 One-electron integrals computed using PRISM.
 One-electron integral symmetry used in STVInt
 NBasis=    87 RedAO= T EigKep=  2.36D-04  NBF=    87
 NBsUse=    87 1.00D-06 EigRej= -1.00D+00 NBFU=    87
 Precomputing XC quadrature grid using
 IXCGrd= 4 IRadAn=           5 IRanWt=          -1 IRanGd=           0 AccXCQ= 0.00D+00.
 Generated NRdTot=       0 NPtTot=           0 NUsed=           0 NTot=          32
 NSgBfM=    93    93    93    93    93 MxSgAt=     6 MxSgA2=     6.
 Leave Link  302 at Mon Mar 21 20:06:27 2022, MaxMem=  8589934592 cpu:               0.9 elap:               0.1
 (Enter /home/sabyasachi/g16/l303.exe)
 DipDrv:  MaxL=1.
 Leave Link  303 at Mon Mar 21 20:06:27 2022, MaxMem=  8589934592 cpu:               0.2 elap:               0.0
 (Enter /home/sabyasachi/g16/l308.exe)
 Leave Link  308 at Mon Mar 21 20:06:27 2022, MaxMem=  8589934592 cpu:               0.2 elap:               0.1
 (Enter /home/sabyasachi/g16/l401.exe)
 ExpMin= 6.71D-02 ExpMax= 2.27D+03 ExpMxC= 3.41D+02 IAcc=3 IRadAn=         5 AccDes= 0.00D+00
 Harris functional with IExCor=  402 and IRadAn=       5 diagonalized for initial guess.
 HarFok:  IExCor=  402 AccDes= 0.00D+00 IRadAn=         5 IDoV= 1 UseB2=F ITyADJ=14
 ICtDFT=  3500011 ScaDFX=  1.000000  1.000000  1.000000  1.000000
 FoFCou: FMM=F IPFlag=           0 FMFlag=      100000 FMFlg1=           0
         NFxFlg=           0 DoJE=T BraDBF=F KetDBF=T FulRan=T
         wScrn=  0.000000 ICntrl=       500 IOpCl=  0 I1Cent=   200000004 NGrid=           0
         NMat0=    1 NMatS0=      1 NMatT0=    0 NMatD0=    1 NMtDS0=    0 NMtDT0=    0
 Petite list used in FoFCou.
 Harris En= -169.799344731342    
 JPrj=0 DoOrth=F DoCkMO=F.
 Leave Link  401 at Mon Mar 21 20:06:27 2022, MaxMem=  8589934592 cpu:               2.3 elap:               0.3
 (Enter /home/sabyasachi/g16/l502.exe)
 Keep J ints in memory in canonical form, NReq=14676030.
 FoFCou: FMM=F IPFlag=           0 FMFlag=           0 FMFlg1=           0
         NFxFlg=           0 DoJE=F BraDBF=F KetDBF=F FulRan=T
         wScrn=  0.000000 ICntrl=       600 IOpCl=  0 I1Cent=           0 NGrid=           0
         NMat0=    1 NMatS0=   3828 NMatT0=    0 NMatD0=    1 NMtDS0=    0 NMtDT0=    0
 Symmetry not used in FoFCou.
 Two-electron integral symmetry not used.
 Closed shell SCF:
 Using DIIS extrapolation, IDIIS=  1040.
 NGot=  8589934592 LenX=  8582586684 LenY=  8582577594
 Requested convergence on RMS density matrix=1.00D-08 within 100 cycles.
 Requested convergence on MAX density matrix=1.00D-06.
 Requested convergence on             energy=1.00D-06.
 No special actions if energy rises.
 Integral accuracy reduced to 1.0D-05 until final iterations.

 Cycle   1  Pass 0  IDiag  1:
 E= -169.640781311657    
 DIIS: error= 3.53D-02 at cycle   1 NSaved=   1.
 NSaved= 1 IEnMin= 1 EnMin= -169.640781311657     IErMin= 1 ErrMin= 3.53D-02
 ErrMax= 3.53D-02  0.00D+00 EMaxC= 1.00D-01 BMatC= 1.19D-01 BMatP= 1.19D-01
 IDIUse=3 WtCom= 6.47D-01 WtEn= 3.53D-01
 Coeff-Com:  0.100D+01
 Coeff-En:   0.100D+01
 Coeff:      0.100D+01
 Gap=     0.178 Goal=   None    Shift=    0.000
 GapD=    0.178 DampG=1.000 DampE=0.500 DampFc=0.5000 IDamp=-1.
 Damping current iteration by 5.00D-01
 RMSDP=3.82D-02 MaxDP=1.81D+00              OVMax= 4.96D-01

 Cycle   2  Pass 0  IDiag  1:
 E= -169.525163159635     Delta-E=        0.115618152022 Rises=F Damp=T
 DIIS: error= 2.78D-02 at cycle   2 NSaved=   2.
 NSaved= 2 IEnMin= 1 EnMin= -169.640781311657     IErMin= 2 ErrMin= 2.78D-02
 ErrMax= 2.78D-02  0.00D+00 EMaxC= 1.00D-01 BMatC= 1.15D-01 BMatP= 1.19D-01
 IDIUse=3 WtCom= 7.22D-01 WtEn= 2.78D-01
 Coeff-Com:  0.495D+00 0.505D+00
 Coeff-En:   0.698D+00 0.302D+00
 Coeff:      0.551D+00 0.449D+00
 Gap=     0.161 Goal=   None    Shift=    0.000
 RMSDP=1.74D-02 MaxDP=8.37D-01 DE= 1.16D-01 OVMax= 4.13D-01

 Cycle   3  Pass 0  IDiag  1:
 E= -169.710323030329     Delta-E=       -0.185159870694 Rises=F Damp=F
 DIIS: error= 1.83D-02 at cycle   3 NSaved=   3.
 NSaved= 3 IEnMin= 3 EnMin= -169.710323030329     IErMin= 3 ErrMin= 1.83D-02
 ErrMax= 1.83D-02  0.00D+00 EMaxC= 1.00D-01 BMatC= 3.81D-02 BMatP= 1.15D-01
 IDIUse=3 WtCom= 8.17D-01 WtEn= 1.83D-01
 Coeff-Com:  0.321D+00 0.335D+00 0.345D+00
 Coeff-En:   0.151D+00 0.000D+00 0.849D+00
 Coeff:      0.290D+00 0.273D+00 0.437D+00
 Gap=     0.233 Goal=   None    Shift=    0.000
 RMSDP=2.42D-03 MaxDP=7.86D-02 DE=-1.85D-01 OVMax= 1.24D-01

 Cycle   4  Pass 0  IDiag  1:
 E= -169.736754134909     Delta-E=       -0.026431104581 Rises=F Damp=F
 DIIS: error= 1.03D-02 at cycle   4 NSaved=   4.
 NSaved= 4 IEnMin= 4 EnMin= -169.736754134909     IErMin= 4 ErrMin= 1.03D-02
 ErrMax= 1.03D-02  0.00D+00 EMaxC= 1.00D-01 BMatC= 9.15D-03 BMatP= 3.81D-02
 IDIUse=3 WtCom= 8.97D-01 WtEn= 1.03D-01
 Coeff-Com:  0.881D-01 0.506D-01 0.314D+00 0.547D+00
 Coeff-En:   0.000D+00 0.000D+00 0.245D+00 0.755D+00
 Coeff:      0.791D-01 0.454D-01 0.307D+00 0.568D+00
 Gap=     0.195 Goal=   None    Shift=    0.000
 RMSDP=9.21D-04 MaxDP=2.58D-02 DE=-2.64D-02 OVMax= 4.54D-02

 Cycle   5  Pass 0  IDiag  1:
 E= -169.744447818954     Delta-E=       -0.007693684045 Rises=F Damp=F
 DIIS: error= 7.56D-04 at cycle   5 NSaved=   5.
 NSaved= 5 IEnMin= 5 EnMin= -169.744447818954     IErMin= 5 ErrMin= 7.56D-04
 ErrMax= 7.56D-04  0.00D+00 EMaxC= 1.00D-01 BMatC= 1.28D-04 BMatP= 9.15D-03
 IDIUse=3 WtCom= 9.92D-01 WtEn= 7.56D-03
 Coeff-Com:  0.102D-01-0.480D-03 0.102D+00 0.249D+00 0.639D+00
 Coeff-En:   0.000D+00 0.000D+00 0.000D+00 0.000D+00 0.100D+01
 Coeff:      0.102D-01-0.476D-03 0.101D+00 0.247D+00 0.642D+00
 Gap=     0.195 Goal=   None    Shift=    0.000
 RMSDP=1.75D-04 MaxDP=3.38D-03 DE=-7.69D-03 OVMax= 4.98D-03

 Cycle   6  Pass 0  IDiag  1:
 E= -169.744555069538     Delta-E=       -0.000107250583 Rises=F Damp=F
 DIIS: error= 3.14D-04 at cycle   6 NSaved=   6.
 NSaved= 6 IEnMin= 6 EnMin= -169.744555069538     IErMin= 6 ErrMin= 3.14D-04
 ErrMax= 3.14D-04  0.00D+00 EMaxC= 1.00D-01 BMatC= 1.48D-05 BMatP= 1.28D-04
 IDIUse=3 WtCom= 9.97D-01 WtEn= 3.14D-03
 Coeff-Com:  0.223D-02-0.174D-02 0.309D-01 0.792D-01 0.336D+00 0.554D+00
 Coeff-En:   0.000D+00 0.000D+00 0.000D+00 0.000D+00 0.936D-01 0.906D+00
 Coeff:      0.222D-02-0.174D-02 0.308D-01 0.790D-01 0.335D+00 0.555D+00
 Gap=     0.195 Goal=   None    Shift=    0.000
 RMSDP=4.91D-05 MaxDP=1.09D-03 DE=-1.07D-04 OVMax= 1.49D-03

 Cycle   7  Pass 0  IDiag  1:
 E= -169.744570482292     Delta-E=       -0.000015412754 Rises=F Damp=F
 DIIS: error= 5.13D-05 at cycle   7 NSaved=   7.
 NSaved= 7 IEnMin= 7 EnMin= -169.744570482292     IErMin= 7 ErrMin= 5.13D-05
 ErrMax= 5.13D-05  0.00D+00 EMaxC= 1.00D-01 BMatC= 3.56D-07 BMatP= 1.48D-05
 IDIUse=1 WtCom= 1.00D+00 WtEn= 0.00D+00
 Coeff-Com:  0.618D-03-0.760D-03 0.523D-02 0.140D-01 0.892D-01 0.201D+00
 Coeff-Com:  0.690D+00
 Coeff:      0.618D-03-0.760D-03 0.523D-02 0.140D-01 0.892D-01 0.201D+00
 Coeff:      0.690D+00
 Gap=     0.195 Goal=   None    Shift=    0.000
 RMSDP=7.58D-06 MaxDP=1.27D-04 DE=-1.54D-05 OVMax= 1.54D-04

 Initial convergence to 1.0D-05 achieved.  Increase integral accuracy.
 Cycle   8  Pass 1  IDiag  1:
 E= -169.744568284031     Delta-E=        0.000002198261 Rises=F Damp=F
 DIIS: error= 9.03D-06 at cycle   1 NSaved=   1.
 NSaved= 1 IEnMin= 1 EnMin= -169.744568284031     IErMin= 1 ErrMin= 9.03D-06
 ErrMax= 9.03D-06  0.00D+00 EMaxC= 1.00D-01 BMatC= 8.16D-09 BMatP= 8.16D-09
 IDIUse=1 WtCom= 1.00D+00 WtEn= 0.00D+00
 Coeff-Com:  0.100D+01
 Coeff:      0.100D+01
 Gap=     0.195 Goal=   None    Shift=    0.000
 RMSDP=7.58D-06 MaxDP=1.27D-04 DE= 2.20D-06 OVMax= 7.40D-05

 Cycle   9  Pass 1  IDiag  1:
 E= -169.744568278209     Delta-E=        0.000000005822 Rises=F Damp=F
 DIIS: error= 1.13D-05 at cycle   2 NSaved=   2.
 NSaved= 2 IEnMin= 1 EnMin= -169.744568284031     IErMin= 1 ErrMin= 9.03D-06
 ErrMax= 1.13D-05  0.00D+00 EMaxC= 1.00D-01 BMatC= 1.63D-08 BMatP= 8.16D-09
 IDIUse=1 WtCom= 1.00D+00 WtEn= 0.00D+00
 Coeff-Com:  0.592D+00 0.408D+00
 Coeff:      0.592D+00 0.408D+00
 Gap=     0.195 Goal=   None    Shift=    0.000
 RMSDP=1.90D-06 MaxDP=4.08D-05 DE= 5.82D-09 OVMax= 5.17D-05

 Cycle  10  Pass 1  IDiag  1:
 E= -169.744568290731     Delta-E=       -0.000000012522 Rises=F Damp=F
 DIIS: error= 5.55D-06 at cycle   3 NSaved=   3.
 NSaved= 3 IEnMin= 3 EnMin= -169.744568290731     IErMin= 3 ErrMin= 5.55D-06
 ErrMax= 5.55D-06  0.00D+00 EMaxC= 1.00D-01 BMatC= 2.91D-09 BMatP= 8.16D-09
 IDIUse=1 WtCom= 1.00D+00 WtEn= 0.00D+00
 Coeff-Com:  0.341D+00 0.303D+00 0.356D+00
 Coeff:      0.341D+00 0.303D+00 0.356D+00
 Gap=     0.195 Goal=   None    Shift=    0.000
 RMSDP=5.64D-07 MaxDP=1.59D-05 DE=-1.25D-08 OVMax= 2.65D-05

 Cycle  11  Pass 1  IDiag  1:
 E= -169.744568292852     Delta-E=       -0.000000002121 Rises=F Damp=F
 DIIS: error= 1.71D-06 at cycle   4 NSaved=   4.
 NSaved= 4 IEnMin= 4 EnMin= -169.744568292852     IErMin= 4 ErrMin= 1.71D-06
 ErrMax= 1.71D-06  0.00D+00 EMaxC= 1.00D-01 BMatC= 2.92D-10 BMatP= 2.91D-09
 IDIUse=1 WtCom= 1.00D+00 WtEn= 0.00D+00
 Coeff-Com:  0.122D+00 0.131D+00 0.245D+00 0.502D+00
 Coeff:      0.122D+00 0.131D+00 0.245D+00 0.502D+00
 Gap=     0.195 Goal=   None    Shift=    0.000
 RMSDP=1.71D-07 MaxDP=4.75D-06 DE=-2.12D-09 OVMax= 7.59D-06

 Cycle  12  Pass 1  IDiag  1:
 E= -169.744568293077     Delta-E=       -0.000000000225 Rises=F Damp=F
 DIIS: error= 3.51D-07 at cycle   5 NSaved=   5.
 NSaved= 5 IEnMin= 5 EnMin= -169.744568293077     IErMin= 5 ErrMin= 3.51D-07
 ErrMax= 3.51D-07  0.00D+00 EMaxC= 1.00D-01 BMatC= 2.01D-11 BMatP= 2.92D-10
 IDIUse=1 WtCom= 1.00D+00 WtEn= 0.00D+00
 Coeff-Com:  0.356D-01 0.451D-01 0.983D-01 0.286D+00 0.535D+00
 Coeff:      0.356D-01 0.451D-01 0.983D-01 0.286D+00 0.535D+00
 Gap=     0.195 Goal=   None    Shift=    0.000
 RMSDP=5.54D-08 MaxDP=1.56D-06 DE=-2.25D-10 OVMax= 2.32D-06

 Cycle  13  Pass 1  IDiag  1:
 E= -169.744568293091     Delta-E=       -0.000000000014 Rises=F Damp=F
 DIIS: error= 1.50D-07 at cycle   6 NSaved=   6.
 NSaved= 6 IEnMin= 6 EnMin= -169.744568293091     IErMin= 6 ErrMin= 1.50D-07
 ErrMax= 1.50D-07  0.00D+00 EMaxC= 1.00D-01 BMatC= 2.80D-12 BMatP= 2.01D-11
 IDIUse=1 WtCom= 1.00D+00 WtEn= 0.00D+00
 Coeff-Com:  0.357D-02 0.754D-02 0.231D-01 0.948D-01 0.326D+00 0.545D+00
 Coeff:      0.357D-02 0.754D-02 0.231D-01 0.948D-01 0.326D+00 0.545D+00
 Gap=     0.195 Goal=   None    Shift=    0.000
 RMSDP=1.86D-08 MaxDP=4.33D-07 DE=-1.42D-11 OVMax= 6.56D-07

 Cycle  14  Pass 1  IDiag  1:
 E= -169.744568293095     Delta-E=       -0.000000000004 Rises=F Damp=F
 DIIS: error= 2.14D-08 at cycle   7 NSaved=   7.
 NSaved= 7 IEnMin= 7 EnMin= -169.744568293095     IErMin= 7 ErrMin= 2.14D-08
 ErrMax= 2.14D-08  0.00D+00 EMaxC= 1.00D-01 BMatC= 5.76D-14 BMatP= 2.80D-12
 IDIUse=1 WtCom= 1.00D+00 WtEn= 0.00D+00
 Coeff-Com: -0.425D-03 0.644D-03 0.495D-02 0.218D-01 0.103D+00 0.222D+00
 Coeff-Com:  0.648D+00
 Coeff:     -0.425D-03 0.644D-03 0.495D-02 0.218D-01 0.103D+00 0.222D+00
 Coeff:      0.648D+00
 Gap=     0.195 Goal=   None    Shift=    0.000
 RMSDP=3.89D-09 MaxDP=5.97D-08 DE=-3.69D-12 OVMax= 1.03D-07

 SCF Done:  E(RB-LYP) =  -169.744568293     A.U. after   14 cycles
            NFock= 14  Conv=0.39D-08     -V/T= 2.0086
 KE= 1.682894958388D+02 PE=-5.403333732926D+02 EE= 1.307783153310D+02
 Leave Link  502 at Mon Mar 21 20:06:29 2022, MaxMem=  8589934592 cpu:              14.7 elap:               2.0
 (Enter /home/sabyasachi/g16/l801.exe)
 DoSCS=F DFT=T ScalE2(SS,OS)=  1.000000  1.000000
 ExpMin= 6.71D-02 ExpMax= 2.27D+03 ExpMxC= 3.41D+02 IAcc=3 IRadAn=         5 AccDes= 0.00D+00
 HarFok:  IExCor=  205 AccDes= 0.00D+00 IRadAn=         5 IDoV=-2 UseB2=F ITyADJ=14
 ICtDFT= 12500011 ScaDFX=  1.000000  1.000000  1.000000  1.000000
 Largest valence mixing into a core orbital is  6.72D-05
 Largest core mixing into a valence orbital is  1.16D-05
 Range of M.O.s used for correlation:     4    87
 NBasis=    87 NAE=    12 NBE=    12 NFC=     3 NFV=     0
 NROrb=     84 NOA=     9 NOB=     9 NVA=    75 NVB=    75

 **** Warning!!: The largest alpha MO coefficient is  0.22507633D+02

 Leave Link  801 at Mon Mar 21 20:06:30 2022, MaxMem=  8589934592 cpu:               0.5 elap:               0.1
 (Enter /home/sabyasachi/g16/l914.exe)
 RHF ground state
 Keep J ints in memory in canonical form, NReq=499019162.
 FoFCou: FMM=F IPFlag=           0 FMFlag=           0 FMFlg1=           0
         NFxFlg=           0 DoJE=F BraDBF=F KetDBF=F FulRan=T
         wScrn=  0.000000 ICntrl=       600 IOpCl=  0 I1Cent=           0 NGrid=           0
         NMat0=    1 NMatS0=   3828 NMatT0=    0 NMatD0=    1 NMtDS0=    0 NMtDT0=    0
 Symmetry not used in FoFCou.
 Two-electron integral symmetry not used.
 MDV=  8589934592 DFT=T DoStab=F Mixed=F DoRPA=T DoScal=T NonHer=F
 Making orbital integer symmetry assigments:
 Orbital symmetries:
       Occupied  (A) (A) (A) (A) (A) (A) (A) (A) (A) (A) (A) (A)
       Virtual   (A) (A) (A) (A) (A) (A) (A) (A) (A) (A) (A) (A)
                 (A) (A) (A) (A) (A) (A) (A) (A) (A) (A) (A) (A)
                 (A) (A) (A) (A) (A) (A) (A) (A) (A) (A) (A) (A)
                 (A) (A) (A) (A) (A) (A) (A) (A) (A) (A) (A) (A)
                 (A) (A) (A) (A) (A) (A) (A) (A) (A) (A) (A) (A)
                 (A) (A) (A) (A) (A) (A) (A) (A) (A) (A) (A) (A)
                 (A) (A) (A)
   675 initial guesses have been made.
 Convergence on wavefunction:    0.001000000000000
 Davidson Disk Diagonalization:  ConvIn= 1.00D-03 SkipCon=T Conv= 1.00D-03.
 Max sub-space:  2700 roots to seek:  1350 dimension of matrix:         1350
 *** WARNING: Number of orthogonal guesses is          675
 Iteration     1 Dimension   675 NMult     0 NNew    675
 CISAX will form   675 AO SS matrices at one time.
 NMat=   675 NSing=   675 JSym2X= 0.
 New state      3 was old state      4
 New state      4 was old state      5
 New state      5 was old state      6
 New state      6 was old state      3
 New state      8 was old state      9
 New state      9 was old state      8
 New state     13 was old state     16
 New state     15 was old state     17
 New state     16 was old state     13
 New state     17 was old state     18
 New state     18 was old state     19
 New state     19 was old state     20
 New state     20 was old state     21
 New state     21 was old state     22
 New state     22 was old state     23
 New state     23 was old state     24
 New state     24 was old state     25
 New state     25 was old state     26
 New state     26 was old state     27
 New state     27 was old state     29
 New state     28 was old state     15
 New state     29 was old state     30
 New state     30 was old state     28
 New state     31 was old state     34
 New state     32 was old state     31
 New state     33 was old state     32
 New state     34 was old state     33
 New state     38 was old state     40
 New state     40 was old state     38
 New state     43 was old state     44
 New state     44 was old state     45
 New state     45 was old state     43
 New state     49 was old state     50
 New state     50 was old state     49
 New state     54 was old state     55
 New state     55 was old state     54
 New state     57 was old state     58
 New state     58 was old state     57
 New state     61 was old state     63
 New state     62 was old state     61
 New state     63 was old state     62
 New state     64 was old state     66
 New state     65 was old state     67
 New state     66 was old state     64
 New state     67 was old state     70
 New state     70 was old state     71
 New state     71 was old state     74
 New state     74 was old state     65
 New state     75 was old state     76
 New state     76 was old state     77
 New state     77 was old state     78
 New state     78 was old state     79
 New state     79 was old state     80
 New state     80 was old state     75
 New state     81 was old state     82
 New state     82 was old state     83
 New state     83 was old state     85
 New state     84 was old state     87
 New state     85 was old state     88
 New state     87 was old state     84
 New state     88 was old state     89
 New state     89 was old state     81
 New state     90 was old state     92
 New state     91 was old state     90
 New state     92 was old state     94
 New state     94 was old state     95
 New state     95 was old state     96
 New state     96 was old state     97
 New state     97 was old state     91
 New state    102 was old state    103
 New state    103 was old state    102
 New state    105 was old state    106
 New state    106 was old state    107
 New state    107 was old state    109
 New state    108 was old state    110
 New state    109 was old state    105
 New state    110 was old state    112
 New state    111 was old state    114
 New state    112 was old state    113
 New state    113 was old state    115
 New state    114 was old state    108
 New state    115 was old state    118
 New state    116 was old state    117
 New state    117 was old state    119
 New state    118 was old state    121
 New state    119 was old state    122
 New state    121 was old state    123
 New state    122 was old state    116
 New state    123 was old state    124
 New state    124 was old state    125
 New state    125 was old state    126
 New state    126 was old state    127
 New state    127 was old state    128
 New state    128 was old state    129
 New state    129 was old state    130
 New state    130 was old state    133
 New state    131 was old state    132
 New state    132 was old state    131
 New state    133 was old state    141
 New state    134 was old state    136
 New state    136 was old state    139
 New state    137 was old state    138
 New state    138 was old state    137
 New state    139 was old state    140
 New state    140 was old state    134
 New state    141 was old state    144
 New state    142 was old state    146
 New state    144 was old state    145
 New state    145 was old state    142
 New state    146 was old state    148
 New state    148 was old state    149
 New state    149 was old state    155
 New state    152 was old state    154
 New state    153 was old state    152
 New state    154 was old state    156
 New state    155 was old state    153
 New state    156 was old state    159
 New state    157 was old state    161
 New state    158 was old state    162
 New state    159 was old state    160
 New state    160 was old state    165
 New state    161 was old state    157
 New state    162 was old state    164
 New state    164 was old state    166
 New state    165 was old state    167
 New state    166 was old state    197
 New state    167 was old state    170
 New state    169 was old state    172
 New state    170 was old state    173
 New state    171 was old state    169
 New state    172 was old state    174
 New state    173 was old state    171
 New state    174 was old state    175
 New state    175 was old state    178
 New state    178 was old state    179
 New state    179 was old state    182
 New state    181 was old state    184
 New state    182 was old state    183
 New state    183 was old state    185
 New state    184 was old state    186
 New state    185 was old state    187
 New state    186 was old state    181
 New state    187 was old state    189
 New state    189 was old state    191
 New state    190 was old state    192
 New state    191 was old state    190
 New state    192 was old state    194
 New state    193 was old state    196
 New state    194 was old state    195
 New state    195 was old state    199
 New state    196 was old state    198
 New state    197 was old state    201
 New state    198 was old state    203
 New state    199 was old state    202
 New state    201 was old state    205
 New state    202 was old state    207
 New state    203 was old state    206
 New state    204 was old state    211
 New state    205 was old state    209
 New state    206 was old state    208
 New state    207 was old state    213
 New state    208 was old state    212
 New state    209 was old state    210
 New state    210 was old state    193
 New state    211 was old state    204
 New state    212 was old state    214
 New state    213 was old state    215
 New state    214 was old state    219
 New state    215 was old state    222
 New state    216 was old state    217
 New state    217 was old state    218
 New state    218 was old state    216
 New state    219 was old state    223
 New state    221 was old state    224
 New state    222 was old state    232
 New state    223 was old state    229
 New state    224 was old state    225
 New state    225 was old state    226
 New state    226 was old state    227
 New state    227 was old state    230
 New state    229 was old state    221
 New state    230 was old state    231
 New state    231 was old state    234
 New state    232 was old state    233
 New state    233 was old state    235
 New state    234 was old state    242
 New state    235 was old state    241
 New state    239 was old state    240
 New state    240 was old state    244
 New state    241 was old state    245
 New state    242 was old state    243
 New state    243 was old state    247
 New state    244 was old state    255
 New state    245 was old state    239
 New state    246 was old state    248
 New state    247 was old state    246
 New state    248 was old state    249
 New state    249 was old state    252
 New state    252 was old state    253
 New state    253 was old state    256
 New state    255 was old state    265
 New state    256 was old state    257
 New state    257 was old state    258
 New state    258 was old state    260
 New state    260 was old state    262
 New state    261 was old state    264
 New state    262 was old state    266
 New state    264 was old state    278
 New state    265 was old state    268
 New state    266 was old state    267
 New state    267 was old state    270
 New state    268 was old state    269
 New state    269 was old state    271
 New state    270 was old state    261
 New state    271 was old state    305
 New state    272 was old state    273
 New state    273 was old state    274
 New state    274 was old state    272
 New state    276 was old state    277
 New state    277 was old state    276
 New state    278 was old state    280
 New state    280 was old state    282
 New state    282 was old state    283
 New state    283 was old state    284
 New state    284 was old state    285
 New state    285 was old state    286
 New state    286 was old state    288
 New state    288 was old state    289
 New state    289 was old state    297
 New state    290 was old state    291
 New state    291 was old state    292
 New state    292 was old state    290
 New state    294 was old state    296
 No map to state    295
 New state    296 was old state    295
 New state    297 was old state    294
 New state    298 was old state    299
 New state    299 was old state    298
 New state    303 was old state    306
 New state    304 was old state    303
 New state    305 was old state    307
 New state    306 was old state    304
 New state    307 was old state    309
 New state    308 was old state    321
 New state    309 was old state    310
 New state    310 was old state    312
 New state    311 was old state    313
 New state    312 was old state    314
 New state    313 was old state    311
 New state    314 was old state    315
 New state    315 was old state    308
 New state    316 was old state    317
 New state    317 was old state    318
 New state    318 was old state    319
 New state    319 was old state    320
 New state    320 was old state    323
 New state    321 was old state    322
 New state    322 was old state    324
 New state    323 was old state    325
 New state    324 was old state    326
 New state    325 was old state    327
 New state    326 was old state    329
 New state    327 was old state    328
 New state    328 was old state    330
 New state    329 was old state    332
 New state    330 was old state    331
 New state    331 was old state    334
 New state    332 was old state    337
 New state    334 was old state    336
 New state    336 was old state    339
 New state    337 was old state    341
 New state    339 was old state    340
 New state    340 was old state    342
 New state    341 was old state    347
 No map to state    342
 New state    344 was old state    346
 New state    345 was old state    344
 New state    346 was old state    345
 New state    347 was old state    349
 New state    349 was old state    350
 New state    350 was old state    351
 New state    351 was old state    354
 New state    353 was old state    355
 New state    354 was old state    353
 New state    355 was old state    358
 New state    356 was old state    357
 New state    357 was old state    356
 New state    358 was old state    360
 New state    360 was old state    361
 New state    361 was old state    363
 New state    363 was old state    365
 New state    364 was old state    366
 New state    365 was old state    364
 New state    366 was old state    367
 New state    367 was old state    370
 New state    368 was old state    369
 New state    369 was old state    368
 New state    370 was old state    372
 New state    372 was old state    374
 New state    374 was old state    377
 New state    376 was old state    378
 New state    377 was old state    376
 New state    378 was old state    381
 New state    379 was old state    380
 New state    380 was old state    382
 New state    381 was old state    379
 New state    382 was old state    384
 New state    384 was old state    386
 New state    386 was old state    388
 New state    388 was old state    389
 New state    389 was old state    390
 New state    390 was old state    395
 New state    391 was old state    392
 New state    392 was old state    391
 New state    394 was old state    396
 New state    395 was old state    394
 New state    396 was old state    398
 New state    398 was old state    401
 New state    401 was old state    402
 New state    402 was old state    404
 New state    403 was old state    406
 New state    404 was old state    405
 New state    405 was old state    403
 New state    406 was old state    407
 New state    407 was old state    408
 New state    408 was old state    409
 New state    409 was old state    411
 New state    411 was old state    413
 New state    412 was old state    415
 New state    413 was old state    414
 New state    414 was old state    416
 New state    415 was old state    412
 New state    416 was old state    418
 New state    417 was old state    421
 New state    418 was old state    417
 New state    419 was old state    420
 New state    420 was old state    422
 New state    421 was old state    425
 New state    422 was old state    424
 New state    423 was old state    426
 New state    424 was old state    427
 New state    425 was old state    419
 New state    426 was old state    429
 New state    427 was old state    428
 New state    428 was old state    423
 New state    429 was old state    430
 New state    430 was old state    431
 New state    431 was old state    441
 New state    432 was old state    433
 New state    433 was old state    434
 New state    434 was old state    432
 New state    437 was old state    438
 New state    438 was old state    437
 New state    439 was old state    440
 New state    440 was old state    442
 New state    441 was old state    439
 New state    442 was old state    445
 New state    443 was old state    444
 New state    444 was old state    446
 New state    445 was old state    443
 New state    446 was old state    447
 New state    447 was old state    448
 New state    448 was old state    451
 New state    450 was old state    454
 New state    451 was old state    450
 New state    452 was old state    453
 New state    453 was old state    452
 New state    454 was old state    456
 New state    456 was old state    457
 New state    457 was old state    458
 New state    458 was old state    459
 New state    459 was old state    460
 New state    460 was old state    464
 New state    463 was old state    466
 New state    464 was old state    465
 New state    465 was old state    463
 New state    466 was old state    467
 New state    467 was old state    470
 New state    470 was old state    472
 New state    472 was old state    473
 New state    473 was old state    475
 New state    474 was old state    476
 New state    475 was old state    481
 New state    476 was old state    477
 New state    477 was old state    480
 New state    479 was old state    483
 New state    480 was old state    479
 New state    481 was old state    474
 New state    483 was old state    485
 New state    485 was old state    486
 New state    486 was old state    487
 New state    487 was old state    488
 New state    488 was old state    493
 New state    489 was old state    491
 New state    490 was old state    492
 New state    491 was old state    490
 New state    492 was old state    489
 New state    493 was old state    512
 New state    498 was old state    500
 New state    499 was old state    498
 New state    500 was old state    502
 New state    501 was old state    499
 New state    502 was old state    501
 New state    504 was old state    505
 New state    505 was old state    504
 New state    509 was old state    511
 New state    511 was old state    514
 New state    512 was old state    513
 New state    513 was old state    509
 New state    514 was old state    516
 New state    516 was old state    517
 New state    517 was old state    519
 New state    519 was old state    524
 New state    524 was old state    539
 New state    527 was old state    529
 New state    529 was old state    527
 New state    536 was old state    537
 New state    537 was old state    536
 New state    539 was old state    540
 No map to state    540
 New state    543 was old state    544
 New state    544 was old state    543
 New state    547 was old state    548
 New state    548 was old state    549
 New state    549 was old state    550
 New state    550 was old state    551
 New state    551 was old state    547
 New state    555 was old state    556
 New state    556 was old state    558
 New state    558 was old state    559
 New state    559 was old state    555
 New state    560 was old state    561
 New state    561 was old state    560
 New state    565 was old state    566
 New state    566 was old state    569
 New state    567 was old state    565
 New state    568 was old state    567
 New state    569 was old state    568
 New state    571 was old state    573
 New state    572 was old state    574
 New state    573 was old state    572
 New state    574 was old state    575
 New state    575 was old state    571
 New state    582 was old state    583
 New state    583 was old state    582
 New state    585 was old state    586
 New state    586 was old state    587
 New state    587 was old state    588
 New state    588 was old state    589
 New state    589 was old state    591
 New state    590 was old state    592
 New state    591 was old state    593
 New state    592 was old state    585
 New state    593 was old state    594
 New state    594 was old state    595
 New state    595 was old state    590
 New state    598 was old state    599
 New state    599 was old state    601
 New state    600 was old state    602
 New state    601 was old state    600
 New state    602 was old state    605
 New state    605 was old state    606
 New state    606 was old state    607
 New state    607 was old state    598
 New state    608 was old state    609
 New state    609 was old state    608
 New state    611 was old state    612
 New state    612 was old state    611
 New state    616 was old state    617
 New state    617 was old state    616
 New state    618 was old state    619
 New state    619 was old state    618
 New state    623 was old state    625
 New state    625 was old state    626
 New state    626 was old state    623
 New state    629 was old state    630
 New state    630 was old state    629
 New state    638 was old state    639
 New state    639 was old state    638
 New state    642 was old state    643
 New state    643 was old state    642
 New state    645 was old state    646
 New state    646 was old state    645
 New state    647 was old state    649
 New state    648 was old state    647
 New state    649 was old state    648
 New state    653 was old state    654
 New state    654 was old state    655
 New state    655 was old state    656
 New state    656 was old state    657
 New state    657 was old state    658
 New state    658 was old state    653
 New state    661 was old state    662
 New state    662 was old state    664
 New state    664 was old state    661
 New state    665 was old state    666
 New state    666 was old state    667
 New state    667 was old state    665
 Excitation Energies [eV] at current iteration:
 Root      1 :     5.478946586305782
 Root      2 :     5.931969858597037
 Root      3 :     6.637253729029441
 Root      4 :     6.683586259823867
 Root      5 :     7.394156854846286
 Root      6 :     7.603875250225857
 Root      7 :     7.675773707382563
 Root      8 :     8.402285068752127
 Root      9 :     8.523103116746677
 Root     10 :     8.555619292959532
 Root     11 :     8.948324335311202
 Root     12 :     9.134620195562334
 Root     13 :     9.386247729655111
 Root     14 :     9.485040312611332
 Root     15 :     9.627210040257779
 Root     16 :     9.680984816287426
 Root     17 :     9.843141789916475
 Root     18 :     9.912784892288581
 Root     19 :    10.074681188256810
 Root     20 :    10.215489318356730
 Root     21 :    10.378787600440030
 Root     22 :    10.542405710893040
 Root     23 :    10.680352966636320
 Root     24 :    10.696463991475580
 Root     25 :    10.734505630018280
 Root     26 :    10.879561242531010
 Root     27 :    11.152974666777480
 Root     28 :    11.194461827789970
 Root     29 :    11.303388324850960
 Root     30 :    11.459274066284940
 Root     31 :    11.733140278080680
 Root     32 :    11.772301900194230
 Root     33 :    11.841137030710920
 Root     34 :    11.958722714867440
 Root     35 :    12.426004746773290
 Root     36 :    12.447152874633360
 Root     37 :    12.503497814668910
 Root     38 :    12.569370565628750
 Root     39 :    12.605399818986950
 Root     40 :    12.663401674384580
 Root     41 :    12.852128161894220
 Root     42 :    12.914779384119160
 Root     43 :    12.961431694887700
 Root     44 :    13.226369173934860
 Root     45 :    13.266179617150130
 Root     46 :    13.350519984832550
 Root     47 :    13.400374509897250
 Root     48 :    13.512048139391580
 Root     49 :    13.584822914591090
 Root     50 :    13.675288973310240
 Root     51 :    13.765444634002430
 Root     52 :    14.009666707816740
 Root     53 :    14.083054990542310
 Root     54 :    14.170974021087360
 Root     55 :    14.340275755060500
 Root     56 :    14.380459182573360
 Root     57 :    14.411136269226580
 Root     58 :    14.465930483238540
 Root     59 :    14.467869202170600
 Root     60 :    14.507229889194010
 Root     61 :    14.604272287926140
 Root     62 :    14.605783266399080
 Root     63 :    14.715072558142430
 Root     64 :    14.878365492115690
 Root     65 :    14.922491926239650
 Root     66 :    14.981217180068760
 Root     67 :    15.001928376983860
 Root     68 :    15.060915034521050
 Root     69 :    15.115034473465170
 Root     70 :    15.192131587278270
 Root     71 :    15.301501367556610
 Root     72 :    15.321142787193430
 Root     73 :    15.463710177725630
 Root     74 :    15.629332102522730
 Root     75 :    15.675011453102570
 Root     76 :    15.705104771736070
 Root     77 :    15.868622381213320
 Root     78 :    15.903475027518480
 Root     79 :    15.919776321835750
 Root     80 :    16.027418144797760
 Root     81 :    16.345943515819190
 Root     82 :    16.360770038517150
 Root     83 :    16.410912443316200
 Root     84 :    16.467986882615710
 Root     85 :    16.536539595307850
 Root     86 :    16.542376853398280
 Root     87 :    16.590116023763930
 Root     88 :    16.631394954723580
 Root     89 :    16.688721570177310
 Root     90 :    16.726665514130230
 Root     91 :    16.746208558840380
 Root     92 :    16.906725816248570
 Root     93 :    17.027289112930280
 Root     94 :    17.103948961406490
 Root     95 :    17.210067134819330
 Root     96 :    17.264888679990780
 Root     97 :    17.494011088303900
 Root     98 :    17.523497263546300
 Root     99 :    17.559051033133840
 Root    100 :    17.667853473805990
 Root    101 :    18.037778818301490
 Root    102 :    18.084615593023510
 Root    103 :    18.104835955323140
 Root    104 :    18.204879187318070
 Root    105 :    18.281500684679720
 Root    106 :    18.338310526902600
 Root    107 :    18.428058701236310
 Root    108 :    18.432612980667550
 Root    109 :    18.464767527715650
 Root    110 :    18.490185906908760
 Root    111 :    18.586270336369360
 Root    112 :    18.613368090596970
 Root    113 :    18.620133043078170
 Root    114 :    18.639389599911290
 Root    115 :    18.772696835649590
 Root    116 :    18.853161884438010
 Root    117 :    18.949601658029620
 Root    118 :    19.011209077786400
 Root    119 :    19.074057682209590
 Root    120 :    19.144348725517990
 Root    121 :    19.175380354116450
 Root    122 :    19.239205642332030
 Root    123 :    19.251605175440130
 Root    124 :    19.273376459762490
 Root    125 :    19.584689419635160
 Root    126 :    19.690117393422500
 Root    127 :    19.826452926789130
 Root    128 :    19.892559999758590
 Root    129 :    19.962351632259020
 Root    130 :    20.001326929162990
 Root    131 :    20.115744338971730
 Root    132 :    20.160058305181740
 Root    133 :    20.229433286126270
 Root    134 :    20.394180427994200
 Root    135 :    20.398809623707010
 Root    136 :    20.516361892730770
 Root    137 :    20.541747405888000
 Root    138 :    20.558621300151300
 Root    139 :    20.565574419752630
 Root    140 :    20.631262418373120
 Root    141 :    20.739446248411030
 Root    142 :    20.820470526793300
 Root    143 :    20.835069599424890
 Root    144 :    20.863196664018580
 Root    145 :    20.993263543749000
 Root    146 :    21.016815980637310
 Root    147 :    21.075661769106470
 Root    148 :    21.088184973905680
 Root    149 :    21.149535216715410
 Root    150 :    21.437278471143490
 Root    151 :    21.588386441146130
 Root    152 :    21.644158937758990
 Root    153 :    21.724983125144650
 Root    154 :    21.753305185593860
 Root    155 :    21.853738019961900
 Root    156 :    22.124669424061240
 Root    157 :    22.146648961820120
 Root    158 :    22.179269977433820
 Root    159 :    22.237284849492290
 Root    160 :    22.308635139657300
 Root    161 :    22.409882922317690
 Root    162 :    22.482563159089780
 Root    163 :    22.502654244109700
 Root    164 :    22.532798394253760
 Root    165 :    22.606681662172000
 Root    166 :    22.635779948599980
 Root    167 :    22.819749863568420
 Root    168 :    22.850896684168640
 Root    169 :    22.899803644933870
 Root    170 :    22.942635980095980
 Root    171 :    22.955304280595170
 Root    172 :    23.074471539278360
 Root    173 :    23.244784429835630
 Root    174 :    23.310046677341700
 Root    175 :    23.345963906324450
 Root    176 :    23.396126889328080
 Root    177 :    23.571317660984640
 Root    178 :    23.671020810322510
 Root    179 :    23.744427261351470
 Root    180 :    23.781165902478550
 Root    181 :    23.870784943840300
 Root    182 :    23.890579924681630
 Root    183 :    23.992078880336210
 Root    184 :    24.048292545376680
 Root    185 :    24.150406858530650
 Root    186 :    24.225283566896120
 Root    187 :    24.246376145284760
 Root    188 :    24.274995276934290
 Root    189 :    24.380874788880660
 Root    190 :    24.422987562783910
 Root    191 :    24.452357444377040
 Root    192 :    24.497003262114560
 Root    193 :    24.539724385468370
 Root    194 :    24.620454809166230
 Root    195 :    24.631584561412970
 Root    196 :    24.720733061316510
 Root    197 :    24.757393246465550
 Root    198 :    24.874702928841120
 Root    199 :    24.981539826189800
 Root    200 :    24.997165616459880
 Root    201 :    25.210656038093060
 Root    202 :    25.261304721535790
 Root    203 :    25.270568012348620
 Root    204 :    25.341984346240830
 Root    205 :    25.447826604363660
 Root    206 :    25.540655719422980
 Root    207 :    25.545806877037240
 Root    208 :    25.602424134136700
 Root    209 :    25.607137644630590
 Root    210 :    25.660828776256600
 Root    211 :    25.811958355232840
 Root    212 :    25.964919846941620
 Root    213 :    26.029245838368420
 Root    214 :    26.055941030845650
 Root    215 :    26.073291861405090
 Root    216 :    26.120047913093450
 Root    217 :    26.166608308851200
 Root    218 :    26.209594457185880
 Root    219 :    26.296539076487950
 Root    220 :    26.306248671837620
 Root    221 :    26.378952248667120
 Root    222 :    26.416685223866750
 Root    223 :    26.514150480634460
 Root    224 :    26.656231862892930
 Root    225 :    26.690376005324520
 Root    226 :    26.752362255457530
 Root    227 :    27.027316052039310
 Root    228 :    27.041166124787020
 Root    229 :    27.103346640010760
 Root    230 :    27.123127276774330
 Root    231 :    27.252803335903540
 Root    232 :    27.316721186283500
 Root    233 :    27.463582268484280
 Root    234 :    27.521549114989760
 Root    235 :    27.581990020339420
 Root    236 :    27.618867216388030
 Root    237 :    27.746762822243690
 Root    238 :    27.798435354463800
 Root    239 :    27.823638276661330
 Root    240 :    28.023949630969200
 Root    241 :    28.030897666619130
 Root    242 :    28.063639031847510
 Root    243 :    28.192037760323520
 Root    244 :    28.286785814207240
 Root    245 :    28.398548390348220
 Root    246 :    28.404781978558690
 Root    247 :    28.508821053087130
 Root    248 :    28.652252846899640
 Root    249 :    28.702323399222740
 Root    250 :    28.721879164133720
 Root    251 :    28.742738095781000
 Root    252 :    28.759216641676440
 Root    253 :    28.843873950725680
 Root    254 :    28.913256026410330
 Root    255 :    29.011074717707600
 Root    256 :    29.166631839340340
 Root    257 :    29.208571192823470
 Root    258 :    29.289363651356180
 Root    259 :    29.376554421196690
 Root    260 :    29.418583417231430
 Root    261 :    29.426328383044080
 Root    262 :    29.511005584475250
 Root    263 :    29.539176971750120
 Root    264 :    29.865879451616890
 Root    265 :    29.881648613155120
 Root    266 :    29.902645949083640
 Root    267 :    29.994062640527520
 Root    268 :    30.043236247662290
 Root    269 :    30.089349421710210
 Root    270 :    30.092537270315800
 Root    271 :    30.143227398967500
 Root    272 :    30.169626101011690
 Root    273 :    30.336467780662260
 Root    274 :    30.403020742758510
 Root    275 :    30.449399333147040
 Root    276 :    30.577530173754870
 Root    277 :    30.680244087490370
 Root    278 :    31.096221274734190
 Root    279 :    31.216336490145520
 Root    280 :    31.282826486136160
 Root    281 :    31.312606210235100
 Root    282 :    31.383069530551440
 Root    283 :    31.476880367512370
 Root    284 :    31.602720030466890
 Root    285 :    31.693284687648710
 Root    286 :    31.811636217746940
 Root    287 :    31.839358149204540
 Root    288 :    31.910702588752230
 Root    289 :    31.992602210549890
 Root    290 :    31.993124515012000
 Root    291 :    32.061408818334450
 Root    292 :    32.127046177971350
 Root    293 :    32.209825138344190
 Root    294 :    32.379979204341800
 Root    295 :    32.403467492198250
 Root    296 :    32.429153380662630
 Root    297 :    32.523404223037250
 Root    298 :    32.740846981501180
 Root    299 :    32.902012168384030
 Root    300 :    33.013906450447410
 Root    301 :    33.131302285089210
 Root    302 :    33.330573673143320
 Root    303 :    33.386504829619310
 Root    304 :    33.606532718799720
 Root    305 :    33.691347613162870
 Root    306 :    33.833575608300340
 Root    307 :    33.937295687755120
 Root    308 :    34.005445255450370
 Root    309 :    34.186852321570970
 Root    310 :    34.266175546118080
 Root    311 :    34.301758155561400
 Root    312 :    34.344573180174710
 Root    313 :    34.427532127965630
 Root    314 :    34.501013360676570
 Root    315 :    34.653092117174410
 Root    316 :    34.827304528551520
 Root    317 :    34.914373521820510
 Root    318 :    34.980628826922580
 Root    319 :    35.135371016055640
 Root    320 :    35.201133155194110
 Root    321 :    35.238296906653160
 Root    322 :    35.371199232432050
 Root    323 :    35.571358190900480
 Root    324 :    35.951264244903260
 Root    325 :    36.056211010156120
 Root    326 :    36.340133229210840
 Root    327 :    36.400423255105910
 Root    328 :    36.406577942939660
 Root    329 :    36.595087387664830
 Root    330 :    36.713663209500340
 Root    331 :    36.803604751803200
 Root    332 :    37.041691549299800
 Root    333 :    37.185838749832750
 Root    334 :    37.278744601195680
 Root    335 :    37.437209229831770
 Root    336 :    37.465099113848620
 Root    337 :    37.583146892353200
 Root    338 :    37.590119768119160
 Root    339 :    37.664005946660400
 Root    340 :    37.810580139582950
 Root    341 :    37.843996894178180
 Root    342 :    37.875502533252950
 Root    343 :    38.068040028489480
 Root    344 :    38.237992338567000
 Root    345 :    38.385986938871680
 Root    346 :    38.520720315674820
 Root    347 :    38.751200166047900
 Root    348 :    38.790137898558170
 Root    349 :    39.113617083994750
 Root    350 :    39.306653700544150
 Root    351 :    39.492862218318360
 Root    352 :    39.570790837841570
 Root    353 :    39.813585790416820
 Root    354 :    39.904529893799240
 Root    355 :    40.097962655118480
 Root    356 :    40.100992689302260
 Root    357 :    40.136278035491500
 Root    358 :    40.379934206150490
 Root    359 :    40.420751470365260
 Root    360 :    40.486762867973000
 Root    361 :    40.683508468064620
 Root    362 :    40.684016355506350
 Root    363 :    41.325915555586190
 Root    364 :    41.359653034329260
 Root    365 :    41.397496225035180
 Root    366 :    41.593126805652230
 Root    367 :    41.878988843026410
 Root    368 :    41.935257021724520
 Root    369 :    42.019849232673670
 Root    370 :    42.164388549808630
 Root    371 :    42.364869881973770
 Root    372 :    42.622864485766140
 Root    373 :    42.688009415199500
 Root    374 :    43.135777889129030
 Root    375 :    43.307885541601620
 Root    376 :    43.338996244192750
 Root    377 :    43.514992300793890
 Root    378 :    43.735008777775490
 Root    379 :    43.830771661899100
 Root    380 :    44.125732441693050
 Root    381 :    44.161693816004700
 Root    382 :    44.306617401710920
 Root    383 :    44.573895378761520
 Root    384 :    44.934312256706630
 Root    385 :    45.284368993338180
 Root    386 :    45.631966941655260
 Root    387 :    45.834685166862590
 Root    388 :    46.069020246961280
 Root    389 :    46.428917925051720
 Root    390 :    46.505507281486250
 Root    391 :    46.691574293481860
 Root    392 :    46.762953542600020
 Root    393 :    46.933800287589520
 Root    394 :    47.220961409615510
 Root    395 :    47.291582083134680
 Root    396 :    47.319598400375580
 Root    397 :    47.345466063245770
 Root    398 :    47.596198615872430
 Root    399 :    47.814059620205350
 Root    400 :    47.923914731633370
 Root    401 :    48.604386094561200
 Root    402 :    48.995621787988850
 Root    403 :    49.175986918905360
 Root    404 :    49.236010518301070
 Root    405 :    49.365967056176300
 Root    406 :    49.718374945563730
 Root    407 :    49.739244443930790
 Root    408 :    50.017058296996630
 Root    409 :    50.181641224469610
 Root    410 :    50.266101413862310
 Root    411 :    50.578645856610610
 Root    412 :    50.616269708207950
 Root    413 :    50.656749569796450
 Root    414 :    50.661506317433680
 Root    415 :    50.737861929707190
 Root    416 :    50.883977910537160
 Root    417 :    51.043826946870300
 Root    418 :    51.145078168615870
 Root    419 :    51.414043503710490
 Root    420 :    51.624975864534630
 Root    421 :    51.976114496858660
 Root    422 :    52.011837469850380
 Root    423 :    52.111725498929760
 Root    424 :    52.284841277874550
 Root    425 :    52.387693134726330
 Root    426 :    52.594781675007540
 Root    427 :    52.655969931887390
 Root    428 :    52.662055581976280
 Root    429 :    52.867448195075930
 Root    430 :    52.943933569095360
 Root    431 :    53.079709248865050
 Root    432 :    53.525477453489340
 Root    433 :    53.568387898151750
 Root    434 :    53.588947119900330
 Root    435 :    53.911085767214280
 Root    436 :    54.005765225530270
 Root    437 :    54.043155158620920
 Root    438 :    54.117745530476500
 Root    439 :    54.157848518818920
 Root    440 :    54.201181298269100
 Root    441 :    54.313789993032310
 Root    442 :    54.602306020047810
 Root    443 :    54.785959537794410
 Root    444 :    54.875806030656760
 Root    445 :    54.917930506581160
 Root    446 :    55.322186194152890
 Root    447 :    55.791600128258080
 Root    448 :    55.869269207446500
 Root    449 :    56.215168683523540
 Root    450 :    56.427922298359300
 Root    451 :    56.432087022496980
 Root    452 :    56.501016573708500
 Root    453 :    56.539893799393570
 Root    454 :    56.635036536136400
 Root    455 :    56.686174975750650
 Root    456 :    56.813983230622370
 Root    457 :    56.816459385490940
 Root    458 :    56.983073477594220
 Root    459 :    57.131647240440960
 Root    460 :    57.201402923055870
 Root    461 :    57.563102838190120
 Root    462 :    57.801178555299400
 Root    463 :    58.109915643340540
 Root    464 :    58.317392932608510
 Root    465 :    58.503641797219110
 Root    466 :    58.578082798811810
 Root    467 :    58.651424148808810
 Root    468 :    58.724201679629050
 Root    469 :    58.733286658541650
 Root    470 :    59.129944236152940
 Root    471 :    59.230019877434970
 Root    472 :    59.344113596405430
 Root    473 :    59.770406243911670
 Root    474 :    60.024267479623960
 Root    475 :    60.129314993628060
 Root    476 :    60.167830763836360
 Root    477 :    60.417625968480830
 Root    478 :    60.558688835163940
 Root    479 :    60.657863781292700
 Root    480 :    60.814439041086790
 Root    481 :    60.826981286460300
 Root    482 :    60.928648964019420
 Root    483 :    61.146908617295080
 Root    484 :    61.473953971272380
 Root    485 :    61.963044923397440
 Root    486 :    62.137783547392420
 Root    487 :    62.246711540329040
 Root    488 :    62.252851912867350
 Root    489 :    62.292514084009530
 Root    490 :    62.313543267650130
 Root    491 :    62.396602081463610
 Root    492 :    62.487562946822820
 Root    493 :    62.602057698143770
 Root    494 :    62.635072892510190
 Root    495 :    62.840058536761810
 Root    496 :    62.957045862205710
 Root    497 :    63.181478431282820
 Root    498 :    63.426270673638790
 Root    499 :    63.548023185703760
 Root    500 :    63.791848011981240
 Root    501 :    64.007480659293620
 Root    502 :    64.086615952728720
 Root    503 :    64.212224402713820
 Root    504 :    64.370778398429610
 Root    505 :    64.429975613766530
 Root    506 :    64.937934485641050
 Root    507 :    65.115265445922390
 Root    508 :    65.326006184532060
 Root    509 :    65.483906858604740
 Root    510 :    65.795248592348530
 Root    511 :    65.816956255446910
 Root    512 :    65.830218785874050
 Root    513 :    65.988858930969830
 Root    514 :    66.004546508414220
 Root    515 :    66.106839664071840
 Root    516 :    66.466431722119450
 Root    517 :    66.553051116173850
 Root    518 :    66.894764688621680
 Root    519 :    66.974201593056820
 Root    520 :    67.041346874236100
 Root    521 :    67.217252052114130
 Root    522 :    67.459077456938600
 Root    523 :    67.729087934332850
 Root    524 :    67.811839306962230
 Root    525 :    68.287998689773460
 Root    526 :    68.695978501330090
 Root    527 :    68.821624304147790
 Root    528 :    68.963311582436230
 Root    529 :    69.056933674051170
 Root    530 :    69.423444596021270
 Root    531 :    69.497482295495130
 Root    532 :    69.736002273832400
 Root    533 :    69.946908704285190
 Root    534 :    70.077778140981470
 Root    535 :    70.470297510981820
 Root    536 :    70.665057600037440
 Root    537 :    70.729607336716780
 Root    538 :    70.858726557402290
 Root    539 :    70.908341530664340
 Root    540 :    70.914906119152650
 Root    541 :    72.350451062086260
 Root    542 :    72.419278494569340
 Root    543 :    72.808581948778380
 Root    544 :    72.969939937316640
 Root    545 :    73.037010769343100
 Root    546 :    73.215655339614400
 Root    547 :    73.841707099255910
 Root    548 :    73.946347187724710
 Root    549 :    74.279201441631600
 Root    550 :    74.678848165753020
 Root    551 :    74.817391201520830
 Root    552 :    75.199443586628480
 Root    553 :    75.653318564417090
 Root    554 :    76.114703110208180
 Root    555 :    76.130161057584320
 Root    556 :    76.266611278108120
 Root    557 :    76.342044841543770
 Root    558 :    76.559794665009860
 Root    559 :    76.787061735047500
 Root    560 :    76.911409841701230
 Root    561 :    77.420154572816190
 Root    562 :    77.925660832831210
 Root    563 :    78.088951399472660
 Root    564 :    78.112216899376790
 Root    565 :    79.146145432678280
 Root    566 :    79.250639207584440
 Root    567 :    79.506720528773290
 Root    568 :    79.692588484568940
 Root    569 :    79.892939875657280
 Root    570 :    79.936849825370790
 Root    571 :    80.112848289508630
 Root    572 :    80.136093654347530
 Root    573 :    80.491173442214860
 Root    574 :    80.794203723973420
 Root    575 :    81.046591289500040
 Root    576 :    81.130456872737000
 Root    577 :    81.500417062403780
 Root    578 :    81.602664463010510
 Root    579 :    81.777337080532800
 Root    580 :    82.020740291487830
 Root    581 :    82.718674955152040
 Root    582 :    82.927256985627120
 Root    583 :    83.296140311271700
 Root    584 :    83.469571506429530
 Root    585 :    83.864052099550210
 Root    586 :    83.981549034799780
 Root    587 :    84.056957807187100
 Root    588 :    84.139675764458990
 Root    589 :    84.965908404385910
 Root    590 :    85.071069720935980
 Root    591 :    85.325130646274420
 Root    592 :    85.356371490277990
 Root    593 :    85.642396055844930
 Root    594 :    85.904130561670660
 Root    595 :    86.093259123721820
 Root    596 :    86.519335927830100
 Root    597 :    87.013869082920790
 Root    598 :    87.282343130182170
 Root    599 :    87.395330865648890
 Root    600 :    87.915864280773310
 Root    601 :    87.924632134211890
 Root    602 :    88.697668126523820
 Root    603 :    88.735462098634980
 Root    604 :    89.288361087444270
 Root    605 :    89.495969699113180
 Root    606 :    89.616455804357090
 Root    607 :    90.174750744979700
 Root    608 :    90.885028963333620
 Root    609 :    90.966501996365540
 Root    610 :    91.299617175061970
 Root    611 :    91.541598898182630
 Root    612 :    91.802803192377230
 Root    613 :    92.086262861405900
 Root    614 :    92.124379296295300
 Root    615 :    92.508359640333940
 Root    616 :    92.814956477718640
 Root    617 :    92.873704646930620
 Root    618 :    92.882819642285710
 Root    619 :    93.179245948279740
 Root    620 :    93.503675373791680
 Root    621 :    93.756182040567710
 Root    622 :    95.042762272775690
 Root    623 :    95.340292901214870
 Root    624 :    95.507984827099780
 Root    625 :    95.830628601675710
 Root    626 :    96.364365625616440
 Root    627 :    96.402284101599630
 Root    628 :    96.677434785060840
 Root    629 :    96.845635900101270
 Root    630 :    97.112866602403070
 Root    631 :    97.291916349497110
 Root    632 :    97.397152689116550
 Root    633 :    97.942426276551000
 Root    634 :    98.575911244839620
 Root    635 :    98.666872461068720
 Root    636 :    99.034219571766680
 Root    637 :    99.667020438861800
 Root    638 :   100.003394785017500
 Root    639 :   100.421807988210600
 Root    640 :   100.610531191697500
 Root    641 :   100.939296781079600
 Root    642 :   101.776541561285200
 Root    643 :   101.882466332411200
 Root    644 :   102.251446892498700
 Root    645 :   103.326502014647800
 Root    646 :   103.387813746370900
 Root    647 :   103.642884675278600
 Root    648 :   103.670377578988100
 Root    649 :   103.923652960204100
 Root    650 :   104.170059859800700
 Root    651 :   105.848878696793000
 Root    652 :   106.236561578741300
 Root    653 :   106.807386693697600
 Root    654 :   107.149705529890100
 Root    655 :   107.236079046154700
 Root    656 :   107.343593692107400
 Root    657 :   107.706281433677600
 Root    658 :   108.039705283542500
 Root    659 :   108.973250477646500
 Root    660 :   109.530801661076100
 Root    661 :   110.276920863113300
 Root    662 :   110.903712352773600
 Root    663 :   111.412961882951600
 Root    664 :   111.614537083964200
 Root    665 :   112.367629227494000
 Root    666 :   112.657642575150100
 Root    667 :   112.811665903860100
 Root    668 :   114.272691616002300
 Root    669 :   114.389828808795700
 Root    670 :   115.805278353115400
 Root    671 :   117.617123240489400
 Root    672 :   119.475654109642700
 Root    673 :   122.737754362166800
 Root    674 :   122.880658660645100
 Root    675 :   126.441051660395600
 Convergence achieved for final wavefunctions.
 ***********************************************************************
 Excited states from <AA,BB:AA,BB> singles matrix:
 ***********************************************************************
 
 1PDM for each excited state written to RWF  633
 Ground to excited state transition densities written to RWF  633
 Ground to excited state transition electric dipole moments (Au):
       state          X           Y           Z        Dip. S.      Osc.
         1        -0.0000      0.0000      0.0694      0.0048      0.0006
         2         0.3859      0.0664      0.0000      0.1533      0.0223
         3        -0.0000      0.0000      0.2496      0.0623      0.0101
         4        -0.1030     -0.6807     -0.0000      0.4740      0.0776
         5        -0.0000     -0.0000      0.1277      0.0163      0.0030
         6        -1.2501      0.2049     -0.0000      1.6048      0.2990
         7        -0.2354     -0.3287     -0.0000      0.1634      0.0307
         8        -0.0000     -0.0000     -0.1403      0.0197      0.0041
         9        -0.1391     -0.3827     -0.0000      0.1658      0.0346
        10        -0.0000     -0.0000      0.2311      0.0534      0.0112
        11        -0.0059      0.1717     -0.0000      0.0295      0.0065
        12        -0.0000     -0.0000     -0.0964      0.0093      0.0021
        13        -0.1105      0.0782     -0.0000      0.0183      0.0042
        14         0.2490      0.0725      0.0000      0.0672      0.0156
        15         0.0000      0.0000      0.1249      0.0156      0.0037
        16        -0.0000     -0.0001     -0.0492      0.0024      0.0006
        17        -0.2184     -0.0569     -0.0000      0.0510      0.0123
        18         0.0000     -0.0000     -0.3819      0.1458      0.0354
        19        -0.0000     -0.0000      0.0031      0.0000      0.0000
        20        -0.0000     -0.0000      0.2870      0.0824      0.0206
        21         0.0353      0.1454      0.0000      0.0224      0.0057
        22         0.1719      0.3731     -0.0000      0.1687      0.0436
        23         0.3405     -0.3427      0.0000      0.2334      0.0611
        24        -0.0002      0.0001      0.0631      0.0040      0.0010
        25         0.2387     -0.2146      0.0000      0.1030      0.0271
        26        -0.0000      0.0000      0.1251      0.0156      0.0042
        27         0.0000      0.0000      0.1622      0.0263      0.0072
        28         0.2743      0.4943     -0.0000      0.3196      0.0876
        29         0.0000     -0.0000     -0.0565      0.0032      0.0009
        30        -0.0000     -0.0000     -0.1003      0.0101      0.0028
        31         0.0000      0.0000     -0.3802      0.1445      0.0415
        32         0.0944     -0.0562      0.0001      0.0121      0.0035
        33         0.0163      0.2919     -0.0000      0.0855      0.0248
        34        -0.1510     -0.2829      0.0000      0.1028      0.0301
        35        -0.4957     -0.2181     -0.0000      0.2932      0.0893
        36         0.3110      0.0566      0.0000      0.0999      0.0305
        37         0.0000      0.0000     -0.0494      0.0024      0.0007
        38         0.0000      0.0000     -0.0106      0.0001      0.0000
        39        -0.0000     -0.0000      0.4242      0.1800      0.0556
        40        -0.3767      0.5913     -0.0000      0.4915      0.1525
        41         0.1788     -0.0799     -0.0000      0.0384      0.0121
        42         0.0708      0.3739     -0.0000      0.1448      0.0458
        43        -0.0000     -0.0000     -0.0194      0.0004      0.0001
        44        -0.0000     -0.0000      0.3511      0.1232      0.0399
        45        -0.5613     -0.4646      0.0000      0.5310      0.1726
        46         0.0000      0.0000     -0.0254      0.0006      0.0002
        47         0.3182     -0.0991     -0.0000      0.1111      0.0365
        48         0.3261      0.0359     -0.0001      0.1076      0.0356
        49        -0.0000     -0.0000     -0.5718      0.3269      0.1088
        50         0.2377      0.2024      0.0000      0.0975      0.0327
        51         0.0000     -0.0000      0.3795      0.1440      0.0486
        52        -0.2313     -0.3357     -0.0000      0.1662      0.0571
        53        -0.0000     -0.0000     -0.2050      0.0420      0.0145
        54        -0.2666     -0.3944      0.0000      0.2266      0.0787
        55        -0.2114     -0.2121      0.0000      0.0897      0.0315
        56         0.0970     -0.0552      0.0000      0.0125      0.0044
        57         0.0000     -0.0000     -0.1622      0.0263      0.0093
        58         0.1120      0.1348      0.0002      0.0307      0.0109
        59        -0.0004     -0.0007      0.0691      0.0048      0.0017
        60        -0.0404      0.0225     -0.0000      0.0021      0.0008
        61         0.0003     -0.0001     -0.0120      0.0001      0.0001
        62         0.1016      0.0021      0.0001      0.0103      0.0037
        63        -0.1818      0.1259      0.0000      0.0489      0.0176
        64        -0.0000      0.0000     -0.0099      0.0001      0.0000
        65         0.1672      0.0938      0.0000      0.0368      0.0134
        66         0.0830     -0.0783     -0.0000      0.0130      0.0048
        67        -0.0000     -0.0000      0.0372      0.0014      0.0005
        68        -0.0000      0.0000     -0.3958      0.1567      0.0578
        69         0.0265      0.2455      0.0000      0.0610      0.0226
        70        -0.3507     -0.0230      0.0000      0.1235      0.0460
        71        -0.0000     -0.0000     -0.0456      0.0021      0.0008
        72        -0.1651      0.0908     -0.0000      0.0355      0.0133
        73         0.0971     -0.2289     -0.0000      0.0618      0.0234
        74        -0.0000      0.0000     -0.5378      0.2892      0.1107
        75        -0.0000      0.0000      0.4153      0.1725      0.0662
        76         0.4164      0.0590     -0.0000      0.1768      0.0680
        77         0.1088     -0.3842     -0.0000      0.1595      0.0620
        78        -0.0000      0.0000      0.0595      0.0035      0.0014
        79         0.0000     -0.0000     -0.0520      0.0027      0.0011
        80         0.2487     -0.0472      0.0000      0.0641      0.0252
        81        -0.4370     -0.0386     -0.0000      0.1925      0.0771
        82        -0.0940     -0.0208     -0.0000      0.0093      0.0037
        83         0.0190      0.0608     -0.0000      0.0041      0.0016
        84         0.0000     -0.0000     -0.0162      0.0003      0.0001
        85        -0.0000      0.0000     -0.1591      0.0253      0.0103
        86         0.0000     -0.0000     -0.0591      0.0035      0.0014
        87        -0.1030      0.3961     -0.0000      0.1675      0.0681
        88         0.0000     -0.0000      0.1789      0.0320      0.0130
        89        -0.5922      0.4495      0.0000      0.5527      0.2260
        90         0.0000     -0.0000     -0.1992      0.0397      0.0163
        91        -0.3121      0.0669     -0.0000      0.1019      0.0418
        92        -0.0593     -0.1062      0.0000      0.0148      0.0061
        93         0.1020      0.2911     -0.0000      0.0951      0.0397
        94        -0.0000      0.0000      0.3613      0.1306      0.0547
        95        -0.0729     -0.1519     -0.0000      0.0284      0.0120
        96         0.4011     -0.2913      0.0000      0.2457      0.1039
        97        -0.1098      0.3484      0.0000      0.1334      0.0572
        98        -0.0000     -0.0000     -0.1637      0.0268      0.0115
        99        -0.0000     -0.0000      0.1242      0.0154      0.0066
       100         0.2059     -0.0719      0.0000      0.0476      0.0206
       101         0.1776      0.2973      0.0000      0.1199      0.0530
       102         0.0000      0.0000     -0.1315      0.0173      0.0077
       103        -0.0000     -0.0000     -0.3971      0.1577      0.0700
       104         0.0678     -0.0086      0.0000      0.0047      0.0021
       105        -0.0000      0.0000      0.0437      0.0019      0.0009
       106         0.0828     -0.0618      0.0000      0.0107      0.0048
       107        -0.0361      0.0266      0.0000      0.0020      0.0009
       108        -0.0000     -0.0000      0.2505      0.0628      0.0283
       109         0.3869     -0.2422     -0.0001      0.2083      0.0942
       110        -0.0001      0.0000     -0.3956      0.1565      0.0709
[...]
     14   0.646801D-04  0.666426D+00  0.207716D-04 -0.411621D-04  0.605355D-01
     15  -0.836484D+00 -0.437286D-04 -0.163012D+01 -0.167965D+01  0.119201D-04
     16  -0.505220D-02 -0.107980D-04 -0.129746D+00  0.231536D+00 -0.101318D-04
               606           607           608           609           610 
      1  -0.166451D+03 -0.166431D+03 -0.166405D+03 -0.166402D+03 -0.166389D+03
      2   0.301660D-01  0.204120D+00  0.000000D+00  0.249477D-05  0.383947D-01
      3   0.190255D-01  0.276540D+00  0.000000D+00  0.502771D-05 -0.959720D-02
      4  -0.162710D-05 -0.752491D-05 -0.403173D-01  0.671719D-01  0.000000D+00
      5  -0.948872D-01 -0.582293D+00  0.367220D-05 -0.730537D-05 -0.120406D+00
      6  -0.550286D-01 -0.772974D+00 -0.233894D-05 -0.145463D-04  0.333066D-01
      7   0.499188D-05  0.241573D-04  0.109609D+00 -0.197481D+00  0.234820D-05
      8  -0.104957D-04 -0.160412D-04 -0.147164D-01  0.614483D-01  0.000000D+00
      9  -0.153581D-04 -0.529344D-04 -0.499937D-01  0.397029D+00 -0.136813D-04
     10  -0.401677D+00 -0.162750D+01 -0.302322D-05 -0.276737D-04  0.405352D-01
     11  -0.819689D+00 -0.183665D+01  0.147244D-05  0.976814D-05  0.246589D+00
     12   0.383665D+00  0.510906D+00  0.000000D+00  0.148772D-04  0.492601D-01
     13  -0.441076D-01 -0.114555D+00 -0.289828D-05  0.115864D-04  0.961444D-01
     14  -0.302209D+00 -0.129500D+01 -0.219221D-04 -0.259402D-05  0.262027D+00
     15   0.142361D-04  0.630336D-04 -0.497430D-01 -0.531088D+00  0.165985D-04
     16  -0.149789D-04 -0.212956D-04 -0.102887D+00 -0.470223D-02 -0.439717D-05
               611           612           613           614           615 
      1  -0.166380D+03 -0.166371D+03 -0.166360D+03 -0.166359D+03 -0.166345D+03
      2   0.420670D-05 -0.150753D+00 -0.360259D-05  0.727616D-01 -0.266798D-05
      3   0.117871D-04 -0.201916D+00 -0.647313D-05 -0.555866D-01 -0.481373D-05
      4   0.114800D+00  0.652145D-05 -0.188079D-01 -0.334734D-05 -0.208271D-01
      5  -0.129452D-04  0.434592D+00  0.104466D-04 -0.214839D+00  0.879000D-05
      6  -0.341515D-04  0.585797D+00  0.177834D-04  0.191413D+00  0.131120D-04
      7  -0.323331D+00 -0.181795D-04  0.611232D-01  0.113169D-04  0.605615D-01
      8   0.275343D+00  0.284743D-04  0.180294D-01 -0.149281D-05 -0.429522D-01
      9  -0.104000D+00  0.125313D-04 -0.271890D+00 -0.148977D-04  0.207172D+00
     10  -0.828662D-04  0.121501D+01 -0.202421D-04 -0.617936D-01 -0.230662D-04
     11   0.116339D-04  0.149942D+01  0.714732D-05 -0.128341D+01  0.174172D-04
     12   0.362552D-04 -0.620249D+00  0.308020D-04 -0.312678D+00  0.282326D-04
     13   0.121446D-04 -0.118060D+00 -0.385100D-04  0.158681D+00 -0.187854D-04
     14  -0.635353D-04  0.102056D+01 -0.267279D-04  0.137314D+00 -0.416766D-04
     15   0.269203D+00 -0.766756D-05  0.236925D+00  0.235864D-04 -0.176193D+00
     16   0.282930D+00  0.263732D-04 -0.114142D+00  0.332290D-05 -0.204752D-01
               616           617           618           619           620 
      1  -0.166334D+03 -0.166332D+03 -0.166331D+03 -0.166320D+03 -0.166308D+03
      2  -0.162882D-01  0.125535D-05  0.156013D-01  0.796858D-01 -0.396576D-01
      3  -0.673675D-01 -0.128884D-03  0.735523D-01 -0.404064D-01 -0.109981D+00
      4   0.218998D-04  0.255412D-01  0.566586D-04 -0.265889D-05  0.303769D-05
      5   0.475933D-01 -0.392870D-04 -0.331251D-01 -0.268401D+00  0.104140D+00
      6   0.194934D+00  0.355916D-03 -0.205430D+00  0.133623D+00  0.347403D+00
      7  -0.648865D-04 -0.765852D-01 -0.168620D-03  0.848343D-05 -0.905425D-05
      8   0.245758D-04  0.250958D-01  0.502264D-04  0.562427D-05  0.100952D-04
      9  -0.140203D-04 -0.495267D-01 -0.272173D-04  0.193353D-04  0.956414D-05
     10  -0.699600D-01  0.250542D-03 -0.687939D-01  0.704700D+00  0.325293D+00
     11   0.436760D+00  0.148362D-02 -0.799189D+00 -0.190722D+00 -0.206470D+01
     12   0.606530D-01 -0.278136D-03  0.911549D-01 -0.397908D+00 -0.101998D+00
     13  -0.180178D+00  0.962974D-04  0.355452D-01  0.977974D-01 -0.121720D+00
     14  -0.222624D+00  0.666849D-03 -0.183805D+00  0.807769D+00  0.659649D+00
     15   0.873894D-04  0.151535D+00  0.252568D-03 -0.164262D-04  0.154053D-05
     16  -0.148785D-03 -0.209250D+00 -0.511788D-03 -0.667861D-05  0.189419D-04
               621           622           623           624           625 
      1  -0.166299D+03 -0.166252D+03 -0.166241D+03 -0.166235D+03 -0.166223D+03
      2   0.496511D-05  0.771979D-05 -0.592620D-02  0.158819D+00 -0.611626D-05
      3   0.000000D+00  0.000000D+00 -0.444234D-01 -0.101617D+00 -0.673907D-05
      4   0.177864D+00  0.734531D-01  0.000000D+00 -0.213794D-04 -0.507530D-01
      5  -0.184158D-04 -0.272583D-04  0.252509D-01 -0.525891D+00  0.175419D-04
      6   0.243469D-05  0.438392D-05  0.146949D+00  0.324800D+00  0.203948D-04
      7  -0.540206D+00 -0.207244D+00  0.149863D-05  0.674656D-04  0.150389D+00
      8   0.152638D+00 -0.238726D-03 -0.639803D-05 -0.211443D-04 -0.184950D-01
      9  -0.124829D+01  0.132630D+00  0.624331D-05 -0.132778D-03  0.342928D-01
     10  -0.413112D-04 -0.334511D-04 -0.465529D+00  0.561777D+00  0.172523D-04
     11  -0.449851D-04 -0.256978D-04 -0.194646D+00 -0.189355D+01  0.853589D-04
     12   0.000000D+00 -0.177786D-04 -0.407270D-01 -0.170269D+00 -0.866025D-05
     13  -0.780202D-05  0.000000D+00  0.978839D-01 -0.912905D-01 -0.202108D-04
     14  -0.188900D-04  0.395754D-04 -0.580632D+00  0.717578D+00  0.204650D-04
     15   0.116862D+01 -0.983051D-01 -0.991506D-05  0.179747D-03  0.159590D+00
     16   0.190276D+00 -0.274731D+00  0.000000D+00 -0.250699D-04  0.180521D+00
               626           627           628           629           630 
      1  -0.166203D+03 -0.166202D+03 -0.166192D+03 -0.166186D+03 -0.166176D+03
      2   0.142040D-04  0.888785D-01  0.201439D-01  0.629742D-05 -0.689502D-01
      3   0.317943D-05  0.517478D-02  0.420667D-01  0.680701D-05 -0.123139D+00
      4   0.156025D+00 -0.104242D-04 -0.146397D-05 -0.242605D-01 -0.254245D-05
      5  -0.462759D-04 -0.298168D+00 -0.697593D-01 -0.197658D-04  0.220397D+00
      6  -0.822456D-05  0.544696D-02 -0.110681D+00 -0.217763D-04  0.380924D+00
      7  -0.477745D+00  0.308294D-04  0.282522D-05  0.818214D-01  0.789861D-05
      8   0.267327D+00 -0.182673D-04 -0.780365D-05 -0.112055D-02  0.000000D+00
      9   0.139808D+01 -0.364364D-04 -0.191252D-04  0.121043D+01  0.526527D-04
     10   0.422816D-05 -0.278704D+00  0.215181D+00 -0.164391D-04  0.842262D+00
     11  -0.988548D-04 -0.112443D+01 -0.850716D+00 -0.128589D-03  0.155205D+01
     12  -0.779610D-05 -0.785696D-01 -0.242779D+00  0.455726D-04 -0.659807D+00
     13   0.179955D-04 -0.124875D+00  0.139478D+00  0.578210D-05  0.527867D-01
     14   0.412689D-04  0.192172D+00  0.309513D+00  0.621053D-05  0.748448D+00
     15  -0.178522D+01  0.317932D-04  0.202050D-04 -0.131753D+01 -0.569542D-04
     16   0.450059D+00 -0.309098D-04 -0.106866D-04  0.798944D-01  0.803742D-05
               631           632           633           634           635 
      1  -0.166169D+03 -0.166165D+03 -0.166145D+03 -0.166122D+03 -0.166119D+03
      2   0.741857D-01  0.949095D-05  0.593196D-01 -0.399196D-05 -0.832926D-02
      3   0.621665D-01  0.349851D-05  0.443808D-01 -0.245102D-05 -0.508260D-01
      4  -0.555842D-05  0.242782D+00  0.000000D+00 -0.180397D+00  0.000000D+00
      5  -0.261046D+00 -0.320876D-04 -0.183477D+00  0.140234D-04  0.236308D-01
      6  -0.198265D+00 -0.957220D-05 -0.106596D+00  0.768573D-05  0.174155D+00
      7   0.164424D-04 -0.759224D+00  0.127607D-05  0.567903D+00  0.161152D-05
      8  -0.912852D-05  0.369147D+00 -0.169303D-05 -0.270124D+00  0.456292D-05
      9  -0.212373D-04  0.115470D+01 -0.399007D-04 -0.723371D+00 -0.106618D-04
     10   0.200531D+00 -0.148996D-04  0.152370D+00  0.267901D-04  0.606338D+00
     11   0.101003D+01 -0.722038D-04 -0.210650D+01  0.354698D-04 -0.543616D+00
     12   0.144034D+00  0.000000D+00  0.192794D-01 -0.117222D-04 -0.406347D+00
     13  -0.220047D+00  0.998291D-05  0.279700D-01 -0.363771D-05  0.612208D-01
     14   0.737758D+00  0.351745D-04  0.303401D+00 -0.109499D-04  0.604327D+00
     15   0.924585D-05 -0.145676D+01  0.568287D-04  0.894114D+00  0.153052D-04
     16  -0.181775D-04  0.741148D+00 -0.118899D-04 -0.295443D+00  0.642638D-05
               636           637           638           639           640 
      1  -0.166105D+03 -0.166082D+03 -0.166070D+03 -0.166054D+03 -0.166047D+03
      2  -0.362561D-05 -0.132185D-05 -0.249800D-01 -0.150664D-02 -0.126725D-05
      3  -0.195189D-05  0.000000D+00 -0.296455D-01  0.114854D+00  0.259040D-05
      4  -0.882209D-01 -0.169073D-01  0.182159D-05  0.000000D+00  0.458789D-01
      5   0.125271D-04  0.358666D-05  0.777817D-01  0.223203D-01  0.488215D-05
      6   0.565174D-05  0.177150D-05  0.108260D+00 -0.363622D+00 -0.857694D-05
      7   0.284483D+00  0.582431D-01 -0.694962D-05  0.322809D-05 -0.135744D+00
      8  -0.129274D+00 -0.509131D-01  0.101529D-05  0.625490D-05 -0.328946D-01
      9  -0.480925D+00 -0.127005D+00  0.000000D+00  0.463009D-05  0.458832D+00
     10   0.717496D-05  0.111562D-04  0.343633D+00 -0.351379D+00 -0.517378D-05
     11   0.116544D-04  0.673783D-05 -0.305012D+00  0.258380D+00 -0.381967D-04
     12  -0.589797D-05  0.632252D-05  0.743560D-01  0.180610D+00  0.163906D-04
     13   0.000000D+00 -0.160795D-04 -0.141129D+00 -0.567552D+00 -0.988862D-05
     14  -0.704179D-05  0.330255D-05  0.325673D+00 -0.365171D+00  0.000000D+00
     15   0.684972D+00  0.328786D+00 -0.653286D-05 -0.502991D-05 -0.553234D+00
     16  -0.121820D+00  0.129457D+00 -0.979678D-05 -0.550144D-05 -0.662769D-01
               641           642           643           644           645 
      1  -0.166035D+03 -0.166004D+03 -0.166000D+03 -0.165987D+03 -0.165947D+03
      2   0.716141D-01 -0.338632D-05 -0.461904D-03  0.214076D-01  0.542860D-01
      3  -0.950284D-01 -0.106863D-05 -0.156593D-01 -0.168398D-01 -0.466293D-01
      4  -0.147391D-05 -0.494112D-01 -0.123106D-05 -0.398989D-05 -0.311500D-05
      5  -0.231460D+00  0.113832D-04 -0.660455D-02 -0.723787D-01 -0.191976D+00
      6   0.300094D+00  0.330844D-05  0.417905D-01  0.382935D-01  0.158622D+00
      7   0.670260D-05  0.161043D+00  0.347717D-05  0.138511D-04  0.108935D-04
      8  -0.728323D-05 -0.801095D-01 -0.118887D-05 -0.242607D-05  0.199550D-05
      9  -0.305161D-05 -0.605048D+00 -0.225007D-04 -0.111772D-05 -0.205057D-04
     10  -0.484488D+00 -0.328726D-04  0.554239D+00  0.100215D+00  0.728927D+00
     11   0.594790D+00  0.867209D-05  0.281324D+00  0.519157D+00 -0.941366D+00
     12  -0.152849D+00  0.350622D-04 -0.465837D+00  0.834484D-01 -0.585036D+00
     13   0.111491D+00 -0.154832D-04  0.113251D+00  0.892669D-01  0.175572D+00
     14  -0.364596D+00 -0.560367D-04  0.680834D+00  0.154624D+00  0.105321D+01
     15   0.000000D+00  0.703008D+00  0.238616D-04 -0.528528D-05  0.330686D-04
     16   0.733318D-05 -0.279352D+00 -0.157557D-04 -0.566898D-05  0.675440D-05
               646           647           648           649           650 
      1  -0.165945D+03 -0.165936D+03 -0.165935D+03 -0.165925D+03 -0.165916D+03
      2  -0.106059D-05  0.160205D-05 -0.142782D-01  0.845327D-01 -0.365157D-01
      3   0.000000D+00  0.100031D-05  0.125711D+00 -0.132701D+00  0.569486D-01
      4  -0.105847D-01  0.527574D-01  0.156594D-05 -0.569010D-05  0.000000D+00
      5   0.406421D-05 -0.530967D-05  0.673510D-01 -0.309381D+00  0.988452D-01
      6  -0.386589D-05 -0.353799D-05 -0.416439D+00  0.470346D+00 -0.203842D+00
      7   0.338190D-01 -0.179803D+00 -0.553624D-05  0.220143D-04  0.000000D+00
      8  -0.118269D-01  0.946197D-01  0.101004D-05 -0.269160D-05 -0.132285D-05
      9  -0.172833D-01  0.678780D+00  0.124025D-04 -0.261117D-04  0.173138D-05
     10  -0.897018D-05  0.341864D-05 -0.468143D+00 -0.120315D+00  0.108037D+00
     11  -0.161605D-05 -0.183079D-04  0.825038D-01 -0.373071D+00 -0.109907D+00
     12  -0.252735D-04  0.000000D+00 -0.181382D+00 -0.593303D+00  0.986673D-01
     13   0.300904D-04  0.580235D-05  0.313134D+00  0.475541D-01  0.805688D-01
     14  -0.125855D-04  0.244923D-04 -0.965624D+00  0.996592D-01  0.162164D+00
     15  -0.260341D+00 -0.729816D+00 -0.283978D-05  0.364343D-04 -0.336964D-05
     16  -0.470482D+00  0.945464D-01  0.306448D-04  0.117183D-05 -0.134280D-04
               651           652           653           654           655 
      1  -0.165855D+03 -0.165840D+03 -0.165819D+03 -0.165807D+03 -0.165804D+03
      2   0.978232D-01  0.210595D-01  0.830118D-05 -0.173973D-05 -0.438342D-01
      3   0.880060D-01  0.686457D-01  0.103910D-05 -0.313065D-05 -0.161241D-01
      4  -0.204513D-05  0.191708D-05  0.350042D-01 -0.979943D-01 -0.150724D-05
      5  -0.357551D+00 -0.716569D-01 -0.303289D-04  0.587668D-05  0.118037D+00
      6  -0.310691D+00 -0.256117D+00 -0.203828D-05  0.104403D-04  0.594169D-01
      7   0.649119D-05 -0.578814D-05 -0.102282D+00  0.341426D+00  0.520715D-05
      8   0.000000D+00  0.345614D-05  0.100361D+00 -0.156845D+00  0.000000D+00
      9  -0.492873D-05  0.373948D-05  0.120092D+00 -0.936821D+00 -0.443762D-05
     10   0.214283D+00 -0.580083D+00 -0.521087D-04  0.121788D-04  0.286099D+00
     11   0.980694D+00 -0.403732D+00 -0.181216D-03  0.551259D-04  0.217325D+00
     12   0.236678D+00  0.436927D-01  0.451452D-04 -0.136831D-04 -0.187800D+00
     13   0.731489D-01 -0.443814D-01  0.119804D-04 -0.729218D-05  0.728104D-01
     14   0.391899D+00 -0.652461D+00 -0.927113D-05 -0.877109D-05  0.376205D+00
     15  -0.112957D-04 -0.603330D-05 -0.227222D+00  0.116256D+01  0.777300D-05
     16  -0.682442D-05  0.422119D-05  0.110939D+00 -0.300902D+00  0.000000D+00
               656           657           658           659           660 
      1  -0.165800D+03 -0.165786D+03 -0.165774D+03 -0.165740D+03 -0.165719D+03
      2  -0.253657D-01  0.000000D+00 -0.194017D+00 -0.356835D-01 -0.302027D-01
      3   0.740659D-01 -0.117504D-05 -0.427875D-01 -0.725047D-01  0.322766D-01
      4   0.236202D-05  0.157063D-02  0.643682D-05  0.296743D-05  0.152387D-05
      5   0.982962D-01  0.201556D-05  0.711620D+00  0.104271D+00  0.103916D+00
      6  -0.250841D+00  0.368508D-05  0.136137D+00  0.241920D+00 -0.113852D+00
      7  -0.975822D-05  0.122862D-01 -0.228852D-04 -0.112811D-04 -0.617365D-05
      8   0.702823D-05 -0.838151D-01  0.153954D-04  0.813286D-05  0.000000D+00
      9  -0.634557D-05 -0.186946D+00  0.363802D-04  0.180178D-04  0.206395D-05
     10   0.323065D+00  0.330123D-05  0.112234D+01  0.127400D+01  0.147009D-01
     11  -0.110059D+01 -0.182231D-04  0.222625D+01  0.219974D+01 -0.610003D+00
     12   0.105233D+00  0.208218D-05 -0.722634D+00 -0.406497D+00  0.165094D+00
     13   0.140917D+00 -0.387978D-05 -0.417000D-01 -0.376457D-01 -0.263213D+00
     14   0.313332D+00 -0.201742D-05  0.678842D+00  0.941092D+00 -0.117526D-01
     15   0.806282D-05  0.188226D+00 -0.483274D-04 -0.396009D-04  0.432410D-05
     16   0.103036D-04 -0.912619D-01  0.134870D-04  0.743318D-05  0.335960D-05
               661           662           663           664           665 
      1  -0.165692D+03 -0.165669D+03 -0.165650D+03 -0.165643D+03 -0.165615D+03
      2  -0.932841D-05 -0.695282D-01  0.436370D-05  0.632029D-01 -0.305615D-02
      3   0.612902D-05  0.576845D-01  0.138348D-05 -0.115013D+00 -0.829842D-01
      4  -0.549053D-01  0.509971D-05  0.102397D+00 -0.584409D-05 -0.214667D-05
      5   0.359140D-04  0.258963D+00 -0.167412D-04 -0.246876D+00  0.222959D-01
      6  -0.230213D-04 -0.215168D+00 -0.451047D-05  0.426056D+00  0.319700D+00
      7   0.197832D+00 -0.202222D-04 -0.357795D+00  0.226180D-04  0.840533D-05
      8  -0.167880D+00  0.826197D-05  0.158604D+00 -0.104079D-05 -0.152506D-05
      9  -0.465072D+00  0.142257D-04  0.784677D+00 -0.454026D-04 -0.861355D-05
     10  -0.530497D-04  0.244282D+00 -0.106786D-04  0.735766D+00  0.110393D+00
     11   0.211099D-03 -0.577723D+00 -0.209648D-04 -0.195303D+01 -0.951256D+00
     12   0.316973D-04  0.442590D+00 -0.109123D-04 -0.593862D+00 -0.214765D+00
     13  -0.134513D-04 -0.353184D-01  0.246590D-04  0.464776D-01 -0.436611D-01
     14  -0.127596D-03 -0.254769D-01  0.320590D-04  0.113521D+01  0.154620D+00
     15   0.615168D+00 -0.186709D-04 -0.698505D+00  0.669448D-04  0.167017D-04
     16  -0.278337D+00  0.103010D-04  0.116636D+00 -0.467778D-05  0.190628D-05
               666           667           668           669           670 
      1  -0.165604D+03 -0.165599D+03 -0.165545D+03 -0.165541D+03 -0.165489D+03
      2  -0.263947D-01  0.175233D+00 -0.544408D-01 -0.364557D-02 -0.126860D-01
      3  -0.130772D-01 -0.555822D-01  0.260252D-01  0.834350D-01 -0.309515D-01
      4   0.100241D-05 -0.927472D-05  0.272546D-05  0.000000D+00 -0.263345D-05
      5   0.888009D-01 -0.684833D+00  0.222070D+00  0.294641D-01  0.311566D-01
      6   0.483520D-01  0.223297D+00 -0.941567D-01 -0.290935D+00  0.135862D+00
      7  -0.408243D-05  0.353527D-04 -0.111677D-04 -0.107449D-05  0.113800D-04
      8   0.535325D-05 -0.284136D-05  0.100182D-05  0.219218D-05 -0.462466D-05
      9   0.235078D-05 -0.564104D-04  0.764107D-05  0.165078D-05 -0.273338D-05
     10   0.465408D+00  0.759209D+00 -0.242521D+00  0.420202D+00 -0.267845D+00
     11   0.538104D-01 -0.345997D+01 -0.528348D+00  0.237056D+00 -0.814827D+00
     12  -0.234312D-01 -0.198417D+00  0.354425D+00  0.174832D+00 -0.322561D+00
     13  -0.121232D+00  0.159069D+00 -0.781778D-01  0.481479D-01  0.150959D+00
     14   0.405097D+00  0.176208D+01 -0.480958D+00  0.406726D+00  0.236434D+00
     15   0.190235D-05  0.780100D-04 -0.562782D-05 -0.515998D-05  0.129683D-04
     16   0.303454D-05 -0.816893D-05  0.294674D-05 -0.164716D-05 -0.445276D-05
               671           672           673           674           675 
      1  -0.165422D+03 -0.165354D+03 -0.165234D+03 -0.165229D+03 -0.165098D+03
      2   0.169278D-01  0.382868D-01  0.522704D-02 -0.289909D-02 -0.109440D-01
      3   0.137661D-01 -0.100044D-01 -0.469309D-02 -0.841220D-02  0.522310D-02
      4   0.000000D+00 -0.129389D-05  0.000000D+00  0.143503D-05 -0.318040D-05
      5  -0.626068D-01 -0.134309D+00  0.586209D-02  0.367179D-01 -0.155894D-02
      6  -0.306294D-01  0.383795D-01  0.210045D-01  0.296023D-01  0.122863D-01
      7   0.000000D+00  0.523160D-05 -0.307973D-05 -0.607072D-05  0.141765D-04
      8   0.000000D+00 -0.245529D-05  0.458976D-05  0.122357D-05  0.000000D+00
      9  -0.101569D-04 -0.418500D-05  0.420771D-05  0.782902D-05 -0.104868D-04
     10   0.356855D+00 -0.242074D+00  0.226417D+00 -0.119842D+00 -0.188835D-01
     11  -0.516040D+00  0.459602D+00  0.574795D+00  0.521937D+00 -0.173446D+00
     12  -0.180503D+00  0.750302D-02 -0.797980D-01 -0.146579D+00 -0.241045D+00
     13   0.331113D-01 -0.146828D-01 -0.221650D-02  0.499782D-01 -0.546215D-01
     14   0.440101D+00 -0.534298D-01 -0.564334D-01 -0.573683D-01  0.105620D+00
     15   0.136287D-04  0.198197D-05 -0.718679D-05 -0.974837D-05  0.192120D-04
     16  -0.789505D-05 -0.193099D-05  0.522049D-05  0.379471D-05 -0.242065D-05
 Unable to Open any file for archive entry.
 1\1\GINC-HEL22\SP\RBLYP TD-FC\Gen\C1H3N1O1\SABYASACHI\21-Mar-2022\0\\#
 P TD(Nstates=10000) blyp/Gen SCF(maxcycles=100) Int(Grid=ultrafine)\\x
 GDB7_00001_tier4.com\\0,1\N,0,-1.078471,-0.1569,0.000001\C,0,0.161963,
 0.384944,0.000002\O,0,1.18917,-0.245458,-0.000001\H,0,-1.898427,0.4194
 27,-0.000004\H,0,-1.178124,-1.157073,-0.000005\H,0,0.140706,1.489948,-
 0.000007\\Version=EM64L-G16RevC.01\State=1-A\HF=-169.7445683\RMSD=3.88
 9e-09\PG=C01 [X(C1H3N1O1)]\\@
 The archive entry for this job was punched.


 THE FIRST AND LAST THING REQUIRED OF GENIUS IS THE LOVE OF TRUTH.

                          -- GOETHE
 Job cpu time:       0 days  0 hours  8 minutes  2.1 seconds.
 Elapsed time:       0 days  0 hours  1 minutes  0.6 seconds.
 File lengths (MBytes):  RWF=    227 Int=      0 D2E=      0 Chk=    127 Scr=      1
 Normal termination of Gaussian 16 at Mon Mar 21 20:07:27 2022.
