 Entering Gaussian System, Link 0=g16
 Input=000024.com
 Output=000024.log
 Initial command:
 /home/sabyasachi/g16/l1.exe "/scratch/sabyasachi/PBS_7975927.helios/Gau-106497.inp" -scrdir="/scratch/sabyasachi/PBS_7975927.helios/"
 Entering Link 1 = /home/sabyasachi/g16/l1.exe PID=    106498.
  
 Copyright (c) 1988-2019, Gaussian, Inc.  All Rights Reserved.
  
 This is part of the Gaussian(R) 16 program.  It is based on
 the Gaussian(R) 09 system (copyright 2009, Gaussian, Inc.),
 the Gaussian(R) 03 system (copyright 2003, Gaussian, Inc.),
 the Gaussian(R) 98 system (copyright 1998, Gaussian, Inc.),
 the Gaussian(R) 94 system (copyright 1995, Gaussian, Inc.),
 the Gaussian 92(TM) system (copyright 1992, Gaussian, Inc.),
 the Gaussian 90(TM) system (copyright 1990, Gaussian, Inc.),
 the Gaussian 88(TM) system (copyright 1988, Gaussian, Inc.),
 the Gaussian 86(TM) system (copyright 1986, Carnegie Mellon
 University), and the Gaussian 82(TM) system (copyright 1983,
 Carnegie Mellon University). Gaussian is a federally registered
 trademark of Gaussian, Inc.
  
 This software contains proprietary and confidential information,
 including trade secrets, belonging to Gaussian, Inc.
  
 This software is provided under written license and may be
 used, copied, transmitted, or stored only in accord with that
 written license.
  
 The following legend is applicable only to US Government
 contracts under FAR:
  
                    RESTRICTED RIGHTS LEGEND
  
 Use, reproduction and disclosure by the US Government is
 subject to restrictions as set forth in subparagraphs (a)
 and (c) of the Commercial Computer Software - Restricted
 Rights clause in FAR 52.227-19.
  
 Gaussian, Inc.
 340 Quinnipiac St., Bldg. 40, Wallingford CT 06492
  
  
 ---------------------------------------------------------------
 Warning -- This program may not be used in any manner that
 competes with the business of Gaussian, Inc. or will provide
 assistance to any competitor of Gaussian, Inc.  The licensee
 of this program is prohibited from giving any competitor of
 Gaussian, Inc. access to this program.  By using this program,
 the user acknowledges that Gaussian, Inc. is engaged in the
 business of creating and licensing software in the field of
 computational chemistry and represents and warrants to the
 licensee that it is not a competitor of Gaussian, Inc. and that
 it will not use this program in any manner prohibited above.
 ---------------------------------------------------------------
  

 Cite this work as:
 Gaussian 16, Revision C.01,
 M. J. Frisch, G. W. Trucks, H. B. Schlegel, G. E. Scuseria, 
 M. A. Robb, J. R. Cheeseman, G. Scalmani, V. Barone, 
 G. A. Petersson, H. Nakatsuji, X. Li, M. Caricato, A. V. Marenich, 
 J. Bloino, B. G. Janesko, R. Gomperts, B. Mennucci, H. P. Hratchian, 
 J. V. Ortiz, A. F. Izmaylov, J. L. Sonnenberg, D. Williams-Young, 
 F. Ding, F. Lipparini, F. Egidi, J. Goings, B. Peng, A. Petrone, 
 T. Henderson, D. Ranasinghe, V. G. Zakrzewski, J. Gao, N. Rega, 
 G. Zheng, W. Liang, M. Hada, M. Ehara, K. Toyota, R. Fukuda, 
 J. Hasegawa, M. Ishida, T. Nakajima, Y. Honda, O. Kitao, H. Nakai, 
 T. Vreven, K. Throssell, J. A. Montgomery, Jr., J. E. Peralta, 
 F. Ogliaro, M. J. Bearpark, J. J. Heyd, E. N. Brothers, K. N. Kudin, 
 V. N. Staroverov, T. A. Keith, R. Kobayashi, J. Normand, 
 K. Raghavachari, A. P. Rendell, J. C. Burant, S. S. Iyengar, 
 J. Tomasi, M. Cossi, J. M. Millam, M. Klene, C. Adamo, R. Cammi, 
 J. W. Ochterski, R. L. Martin, K. Morokuma, O. Farkas, 
 J. B. Foresman, and D. J. Fox, Gaussian, Inc., Wallingford CT, 2019.
 
 ******************************************
 Gaussian 16:  EM64L-G16RevC.01  3-Jul-2019
                21-Mar-2022 
 ******************************************
 %mem=64gb
 %nproc=8
 Will use up to    8 processors via shared memory.
 --------------------------------------------------------------------
 #P TD(Nstates=10000) blyp/Gen SCF(maxcycles=100) Int(Grid=ultrafine)
 --------------------------------------------------------------------
 1/38=1,172=1/1;
 2/12=2,17=6,18=5,40=1/2;
 3/5=7,11=9,25=1,30=1,74=402,75=-5/1,2,3,8;
 4//1;
 5/5=2,7=100,38=5/2;
 8/6=1,10=1,108=10000/1;
 9/41=10000,42=1,70=2/14;
 6/7=2,8=2,9=2,10=2/1;
 99/5=1,9=1/99;
 Leave Link    1 at Mon Mar 21 19:58:38 2022, MaxMem=  8589934592 cpu:               0.3 elap:               0.0
 (Enter /home/sabyasachi/g16/l101.exe)
 ---------------------
 xGDB7_00001_tier4.com
 ---------------------
 Symbolic Z-matrix:
 Charge =  0 Multiplicity = 1
 7                     1.11103  -0.17705  -0.05247 
 6                    -0.12201   0.41959   0.00177 
 7                    -1.26761  -0.12144   0.0081 
 1                     1.92056   0.3678    0.1801 
 1                     1.1807   -1.16562   0.11531 
 1                    -0.0657    1.50881   0.00405 
 1                    -1.2075   -1.13913   0.00048 
 
 ITRead=  0  0  0  0  0  0  0
 MicOpt= -1 -1 -1 -1 -1 -1 -1
 NAtoms=      7 NQM=        7 NQMF=       0 NMMI=      0 NMMIF=      0
                NMic=       0 NMicF=      0.
                    Isotopes and Nuclear Properties:
 (Nuclear quadrupole moments (NQMom) in fm**2, nuclear magnetic moments (NMagM)
  in nuclear magnetons)

  Atom         1           2           3           4           5           6           7
 IAtWgt=          14          12          14           1           1           1           1
 AtmWgt=  14.0030740  12.0000000  14.0030740   1.0078250   1.0078250   1.0078250   1.0078250
 NucSpn=           2           0           2           1           1           1           1
 AtZEff=  -0.0000000  -0.0000000  -0.0000000  -0.0000000  -0.0000000  -0.0000000  -0.0000000
 NQMom=    2.0440000   0.0000000   2.0440000   0.0000000   0.0000000   0.0000000   0.0000000
 NMagM=    0.4037610   0.0000000   0.4037610   2.7928460   2.7928460   2.7928460   2.7928460
 AtZNuc=   7.0000000   6.0000000   7.0000000   1.0000000   1.0000000   1.0000000   1.0000000
 Leave Link  101 at Mon Mar 21 19:58:38 2022, MaxMem=  8589934592 cpu:               0.7 elap:               0.1
 (Enter /home/sabyasachi/g16/l202.exe)
                          Input orientation:                          
 ---------------------------------------------------------------------
 Center     Atomic      Atomic             Coordinates (Angstroms)
 Number     Number       Type             X           Y           Z
 ---------------------------------------------------------------------
      1          7           0        1.111035   -0.177046   -0.052467
      2          6           0       -0.122009    0.419593    0.001774
      3          7           0       -1.267607   -0.121443    0.008098
      4          1           0        1.920558    0.367802    0.180104
      5          1           0        1.180700   -1.165617    0.115308
      6          1           0       -0.065701    1.508813    0.004046
      7          1           0       -1.207497   -1.139126    0.000481
 ---------------------------------------------------------------------
                    Distance matrix (angstroms):
                    1          2          3          4          5
     1  N    0.000000
     2  C    1.370882   0.000000
     3  N    2.380063   1.266947   0.000000
     4  H    1.003133   2.050991   3.230069   0.000000
     5  H    1.005124   2.054953   2.663832   1.703808   0.000000
     6  H    2.056702   1.090677   2.025421   2.297418   2.952706
     7  H    2.510775   1.899445   1.019485   3.476755   2.391103
                    6          7
     6  H    0.000000
     7  H    2.883625   0.000000
 Stoichiometry    CH4N2
 Framework group  C1[X(CH4N2)]
 Deg. of freedom    15
 Full point group                 C1      NOp   1
 Largest Abelian subgroup         C1      NOp   1
 Largest concise Abelian subgroup C1      NOp   1
                         Standard orientation:                         
 ---------------------------------------------------------------------
 Center     Atomic      Atomic             Coordinates (Angstroms)
 Number     Number       Type             X           Y           Z
 ---------------------------------------------------------------------
      1          7           0        1.111035   -0.177046   -0.052467
      2          6           0       -0.122009    0.419593    0.001774
      3          7           0       -1.267607   -0.121443    0.008098
      4          1           0        1.920558    0.367802    0.180104
      5          1           0        1.180700   -1.165617    0.115308
      6          1           0       -0.065701    1.508813    0.004046
      7          1           0       -1.207497   -1.139126    0.000481
 ---------------------------------------------------------------------
 Rotational constants (GHZ):          63.7190558          10.8501695           9.2980229
 Leave Link  202 at Mon Mar 21 19:58:38 2022, MaxMem=  8589934592 cpu:               0.1 elap:               0.0
 (Enter /home/sabyasachi/g16/l301.exe)
 General basis read from cards:  (5D, 7F)
 Centers:       4      5      6      7
 S 3 1.00
     Exponent=  1.3010701000D+01 Coefficients=  1.9682158000D-02
     Exponent=  1.9622572000D+00 Coefficients=  1.3796524000D-01
     Exponent=  4.4453796000D-01 Coefficients=  4.7831935000D-01
 S 1 1.00
     Exponent=  1.2194962000D-01 Coefficients=  1.0000000000D+00
 P 1 1.00
     Exponent=  8.0000000000D-01 Coefficients=  1.0000000000D+00
 P 1 1.00
     Exponent=  1.1704099050D-01 Coefficients=  1.0000000000D+00
 ****
 Centers:       2
 S 5 1.00
     Exponent=  1.2384016938D+03 Coefficients=  5.4568832082D-03
     Exponent=  1.8629004992D+02 Coefficients=  4.0638409211D-02
     Exponent=  4.2251176346D+01 Coefficients=  1.8025593888D-01
     Exponent=  1.1676557932D+01 Coefficients=  4.6315121755D-01
     Exponent=  3.5930506482D+00 Coefficients=  4.4087173314D-01
 S 1 1.00
     Exponent=  4.0245147363D-01 Coefficients=  1.0000000000D+00
 S 1 1.00
     Exponent=  1.3090182668D-01 Coefficients=  1.0000000000D+00
 S 1 1.00
     Exponent=  6.7053540256D-02 Coefficients=  1.0000000000D+00
 P 3 1.00
     Exponent=  9.4680970621D+00 Coefficients=  3.8387871728D-02
     Exponent=  2.0103545142D+00 Coefficients=  2.1117025112D-01
     Exponent=  5.4771004707D-01 Coefficients=  5.1328172114D-01
 P 1 1.00
     Exponent=  1.5268613795D-01 Coefficients=  1.0000000000D+00
 D 1 1.00
     Exponent=  8.0000000000D-01 Coefficients=  1.0000000000D+00
 D 1 1.00
     Exponent=  1.1713185140D-01 Coefficients=  1.0000000000D+00
 ****
 Centers:       1      3
 S 5 1.00
     Exponent=  1.7128415853D+03 Coefficients= -5.3934125305D-03
     Exponent=  2.5764812677D+02 Coefficients= -4.0221581118D-02
     Exponent=  5.8458245853D+01 Coefficients= -1.7931144990D-01
     Exponent=  1.6198367905D+01 Coefficients= -4.6376317823D-01
     Exponent=  5.0052600809D+00 Coefficients= -4.4171422662D-01
 S 1 1.00
     Exponent=  5.8731856571D-01 Coefficients=  1.0000000000D+00
 S 1 1.00
     Exponent=  1.8764592253D-01 Coefficients=  1.0000000000D+00
 S 1 1.00
     Exponent=  9.6171241529D-02 Coefficients=  1.0000000000D+00
 P 3 1.00
     Exponent=  1.3571470233D+01 Coefficients= -4.0072398852D-02
     Exponent=  2.9257372874D+00 Coefficients= -2.1807045028D-01
     Exponent=  7.9927750754D-01 Coefficients= -5.1294466049D-01
 P 1 1.00
     Exponent=  2.1954348034D-01 Coefficients=  1.0000000000D+00
 D 1 1.00
     Exponent=  1.0000000000D+00 Coefficients=  1.0000000000D+00
 D 1 1.00
     Exponent=  1.6697708112D-01 Coefficients=  1.0000000000D+00
 ****
 Ernie: Thresh=  0.10000D-02 Tol=  0.10000D-05 Strict=F.
 There are    98 symmetry adapted cartesian basis functions of A   symmetry.
 There are    92 symmetry adapted basis functions of A   symmetry.
    92 basis functions,   136 primitive gaussians,    98 cartesian basis functions
    12 alpha electrons       12 beta electrons
       nuclear repulsion energy        72.2566541207 Hartrees.
 IExCor=  402 DFT=T Ex=B Corr=LYP ExCW=0 ScaHFX=  0.000000
 ScaDFX=  1.000000  1.000000  1.000000  1.000000 ScalE2=  1.000000  1.000000
 IRadAn=      5 IRanWt=     -1 IRanGd=            0 ICorTp=0 IEmpDi=  4
 NAtoms=    7 NActive=    7 NUniq=    7 SFac= 1.00D+00 NAtFMM=   60 NAOKFM=F Big=F
 Integral buffers will be    131072 words long.
 Regular integral format.
 Two-electron integral symmetry is turned on.
 Leave Link  301 at Mon Mar 21 19:58:38 2022, MaxMem=  8589934592 cpu:               0.6 elap:               0.1
 (Enter /home/sabyasachi/g16/l302.exe)
 NPDir=0 NMtPBC=     1 NCelOv=     1 NCel=       1 NClECP=     1 NCelD=      1
         NCelK=      1 NCelE2=     1 NClLst=     1 CellRange=     0.0.
 One-electron integrals computed using PRISM.
 One-electron integral symmetry used in STVInt
 NBasis=    92 RedAO= T EigKep=  3.07D-04  NBF=    92
 NBsUse=    92 1.00D-06 EigRej= -1.00D+00 NBFU=    92
 Precomputing XC quadrature grid using
 IXCGrd= 4 IRadAn=           5 IRanWt=          -1 IRanGd=           0 AccXCQ= 0.00D+00.
 Generated NRdTot=       0 NPtTot=           0 NUsed=           0 NTot=          32
 NSgBfM=    98    98    98    98    98 MxSgAt=     7 MxSgA2=     7.
 Leave Link  302 at Mon Mar 21 19:58:38 2022, MaxMem=  8589934592 cpu:               1.0 elap:               0.1
 (Enter /home/sabyasachi/g16/l303.exe)
 DipDrv:  MaxL=1.
 Leave Link  303 at Mon Mar 21 19:58:38 2022, MaxMem=  8589934592 cpu:               0.2 elap:               0.0
 (Enter /home/sabyasachi/g16/l308.exe)
 Leave Link  308 at Mon Mar 21 19:58:38 2022, MaxMem=  8589934592 cpu:               0.2 elap:               0.1
 (Enter /home/sabyasachi/g16/l401.exe)
 ExpMin= 6.71D-02 ExpMax= 1.71D+03 ExpMxC= 2.58D+02 IAcc=3 IRadAn=         5 AccDes= 0.00D+00
 Harris functional with IExCor=  402 and IRadAn=       5 diagonalized for initial guess.
 HarFok:  IExCor=  402 AccDes= 0.00D+00 IRadAn=         5 IDoV= 1 UseB2=F ITyADJ=14
 ICtDFT=  3500011 ScaDFX=  1.000000  1.000000  1.000000  1.000000
 FoFCou: FMM=F IPFlag=           0 FMFlag=      100000 FMFlg1=           0
         NFxFlg=           0 DoJE=T BraDBF=F KetDBF=T FulRan=T
         wScrn=  0.000000 ICntrl=       500 IOpCl=  0 I1Cent=   200000004 NGrid=           0
         NMat0=    1 NMatS0=      1 NMatT0=    0 NMatD0=    1 NMtDS0=    0 NMtDT0=    0
 Petite list used in FoFCou.
 Harris En= -149.916914608512    
 JPrj=0 DoOrth=F DoCkMO=F.
 Leave Link  401 at Mon Mar 21 19:58:39 2022, MaxMem=  8589934592 cpu:               2.5 elap:               0.3
 (Enter /home/sabyasachi/g16/l502.exe)
 Keep J ints in memory in canonical form, NReq=16534063.
 FoFCou: FMM=F IPFlag=           0 FMFlag=           0 FMFlg1=           0
         NFxFlg=           0 DoJE=F BraDBF=F KetDBF=F FulRan=T
         wScrn=  0.000000 ICntrl=       600 IOpCl=  0 I1Cent=           0 NGrid=           0
         NMat0=    1 NMatS0=   4278 NMatT0=    0 NMatD0=    1 NMtDS0=    0 NMtDT0=    0
 Symmetry not used in FoFCou.
 Two-electron integral symmetry not used.
 Closed shell SCF:
 Using DIIS extrapolation, IDIIS=  1040.
 NGot=  8589934592 LenX=  8580760569 LenY=  8580750524
 Requested convergence on RMS density matrix=1.00D-08 within 100 cycles.
 Requested convergence on MAX density matrix=1.00D-06.
 Requested convergence on             energy=1.00D-06.
 No special actions if energy rises.
 Integral accuracy reduced to 1.0D-05 until final iterations.

 Cycle   1  Pass 0  IDiag  1:
 E= -149.748390689651    
 DIIS: error= 2.43D-02 at cycle   1 NSaved=   1.
 NSaved= 1 IEnMin= 1 EnMin= -149.748390689651     IErMin= 1 ErrMin= 2.43D-02
 ErrMax= 2.43D-02  0.00D+00 EMaxC= 1.00D-01 BMatC= 1.12D-01 BMatP= 1.12D-01
 IDIUse=3 WtCom= 7.57D-01 WtEn= 2.43D-01
 Coeff-Com:  0.100D+01
 Coeff-En:   0.100D+01
 Coeff:      0.100D+01
 Gap=     0.164 Goal=   None    Shift=    0.000
 GapD=    0.164 DampG=1.000 DampE=0.500 DampFc=0.5000 IDamp=-1.
 Damping current iteration by 5.00D-01
 RMSDP=5.18D-02 MaxDP=1.71D+00              OVMax= 3.83D-01

 Cycle   2  Pass 0  IDiag  1:
 E= -149.720679160035     Delta-E=        0.027711529616 Rises=F Damp=T
 DIIS: error= 1.50D-02 at cycle   2 NSaved=   2.
 NSaved= 2 IEnMin= 1 EnMin= -149.748390689651     IErMin= 2 ErrMin= 1.50D-02
 ErrMax= 1.50D-02  0.00D+00 EMaxC= 1.00D-01 BMatC= 4.35D-02 BMatP= 1.12D-01
 IDIUse=3 WtCom= 8.50D-01 WtEn= 1.50D-01
 Coeff-Com:  0.371D+00 0.629D+00
 Coeff-En:   0.574D+00 0.426D+00
 Coeff:      0.402D+00 0.598D+00
 Gap=     0.198 Goal=   None    Shift=    0.000
 RMSDP=2.09D-02 MaxDP=6.24D-01 DE= 2.77D-02 OVMax= 3.16D-01

 Cycle   3  Pass 0  IDiag  1:
 E= -149.828597957814     Delta-E=       -0.107918797779 Rises=F Damp=F
 DIIS: error= 1.22D-02 at cycle   3 NSaved=   3.
 NSaved= 3 IEnMin= 3 EnMin= -149.828597957814     IErMin= 3 ErrMin= 1.22D-02
 ErrMax= 1.22D-02  0.00D+00 EMaxC= 1.00D-01 BMatC= 2.86D-02 BMatP= 4.35D-02
 IDIUse=3 WtCom= 8.78D-01 WtEn= 1.22D-01
 Coeff-Com:  0.231D+00 0.450D+00 0.318D+00
 Coeff-En:   0.000D+00 0.000D+00 0.100D+01
 Coeff:      0.203D+00 0.395D+00 0.402D+00
 Gap=     0.209 Goal=   None    Shift=    0.000
 RMSDP=2.67D-03 MaxDP=5.45D-02 DE=-1.08D-01 OVMax= 1.06D-01

 Cycle   4  Pass 0  IDiag  1:
 E= -149.852465117264     Delta-E=       -0.023867159450 Rises=F Damp=F
 DIIS: error= 4.70D-03 at cycle   4 NSaved=   4.
 NSaved= 4 IEnMin= 4 EnMin= -149.852465117264     IErMin= 4 ErrMin= 4.70D-03
 ErrMax= 4.70D-03  0.00D+00 EMaxC= 1.00D-01 BMatC= 4.75D-03 BMatP= 2.86D-02
 IDIUse=3 WtCom= 9.53D-01 WtEn= 4.70D-02
 Coeff-Com:  0.372D-01 0.897D-01 0.288D+00 0.585D+00
 Coeff-En:   0.000D+00 0.000D+00 0.192D+00 0.808D+00
 Coeff:      0.355D-01 0.855D-01 0.283D+00 0.596D+00
 Gap=     0.204 Goal=   None    Shift=    0.000
 RMSDP=8.34D-04 MaxDP=1.78D-02 DE=-2.39D-02 OVMax= 2.89D-02

 Cycle   5  Pass 0  IDiag  1:
 E= -149.856597325586     Delta-E=       -0.004132208322 Rises=F Damp=F
 DIIS: error= 8.31D-04 at cycle   5 NSaved=   5.
 NSaved= 5 IEnMin= 5 EnMin= -149.856597325586     IErMin= 5 ErrMin= 8.31D-04
 ErrMax= 8.31D-04  0.00D+00 EMaxC= 1.00D-01 BMatC= 1.04D-04 BMatP= 4.75D-03
 IDIUse=3 WtCom= 9.92D-01 WtEn= 8.31D-03
 Coeff-Com:  0.145D-02 0.129D-01 0.126D+00 0.314D+00 0.546D+00
 Coeff-En:   0.000D+00 0.000D+00 0.000D+00 0.000D+00 0.100D+01
 Coeff:      0.144D-02 0.128D-01 0.125D+00 0.312D+00 0.549D+00
 Gap=     0.202 Goal=   None    Shift=    0.000
 RMSDP=2.21D-04 MaxDP=6.91D-03 DE=-4.13D-03 OVMax= 4.93D-03

 Cycle   6  Pass 0  IDiag  1:
 E= -149.856688395912     Delta-E=       -0.000091070326 Rises=F Damp=F
 DIIS: error= 3.06D-04 at cycle   6 NSaved=   6.
 NSaved= 6 IEnMin= 6 EnMin= -149.856688395912     IErMin= 6 ErrMin= 3.06D-04
 ErrMax= 3.06D-04  0.00D+00 EMaxC= 1.00D-01 BMatC= 1.30D-05 BMatP= 1.04D-04
 IDIUse=3 WtCom= 9.97D-01 WtEn= 3.06D-03
 Coeff-Com: -0.130D-02 0.663D-05 0.367D-01 0.949D-01 0.304D+00 0.566D+00
 Coeff-En:   0.000D+00 0.000D+00 0.000D+00 0.000D+00 0.871D-01 0.913D+00
 Coeff:     -0.130D-02 0.661D-05 0.366D-01 0.946D-01 0.303D+00 0.567D+00
 Gap=     0.201 Goal=   None    Shift=    0.000
 RMSDP=5.88D-05 MaxDP=1.24D-03 DE=-9.11D-05 OVMax= 1.38D-03

 Cycle   7  Pass 0  IDiag  1:
 E= -149.856701387971     Delta-E=       -0.000012992059 Rises=F Damp=F
 DIIS: error= 4.48D-05 at cycle   7 NSaved=   7.
 NSaved= 7 IEnMin= 7 EnMin= -149.856701387971     IErMin= 7 ErrMin= 4.48D-05
 ErrMax= 4.48D-05  0.00D+00 EMaxC= 1.00D-01 BMatC= 2.85D-07 BMatP= 1.30D-05
 IDIUse=1 WtCom= 1.00D+00 WtEn= 0.00D+00
 Coeff-Com: -0.105D-03-0.467D-03 0.720D-02 0.192D-01 0.883D-01 0.212D+00
 Coeff-Com:  0.674D+00
 Coeff:     -0.105D-03-0.467D-03 0.720D-02 0.192D-01 0.883D-01 0.212D+00
 Coeff:      0.674D+00
 Gap=     0.201 Goal=   None    Shift=    0.000
 RMSDP=8.84D-06 MaxDP=1.28D-04 DE=-1.30D-05 OVMax= 1.82D-04

 Initial convergence to 1.0D-05 achieved.  Increase integral accuracy.
 Cycle   8  Pass 1  IDiag  1:
 E= -149.856701452247     Delta-E=       -0.000000064276 Rises=F Damp=F
 DIIS: error= 6.20D-06 at cycle   1 NSaved=   1.
 NSaved= 1 IEnMin= 1 EnMin= -149.856701452247     IErMin= 1 ErrMin= 6.20D-06
 ErrMax= 6.20D-06  0.00D+00 EMaxC= 1.00D-01 BMatC= 8.53D-09 BMatP= 8.53D-09
 IDIUse=1 WtCom= 1.00D+00 WtEn= 0.00D+00
 Coeff-Com:  0.100D+01
 Coeff:      0.100D+01
 Gap=     0.201 Goal=   None    Shift=    0.000
 RMSDP=8.84D-06 MaxDP=1.28D-04 DE=-6.43D-08 OVMax= 5.61D-05

 Cycle   9  Pass 1  IDiag  1:
 E= -149.856701451029     Delta-E=        0.000000001219 Rises=F Damp=F
 DIIS: error= 7.63D-06 at cycle   2 NSaved=   2.
 NSaved= 2 IEnMin= 1 EnMin= -149.856701452247     IErMin= 1 ErrMin= 6.20D-06
 ErrMax= 7.63D-06  0.00D+00 EMaxC= 1.00D-01 BMatC= 1.15D-08 BMatP= 8.53D-09
 IDIUse=1 WtCom= 1.00D+00 WtEn= 0.00D+00
 Coeff-Com:  0.540D+00 0.460D+00
 Coeff:      0.540D+00 0.460D+00
 Gap=     0.201 Goal=   None    Shift=    0.000
 RMSDP=3.48D-06 MaxDP=1.34D-04 DE= 1.22D-09 OVMax= 4.49D-05

 Cycle  10  Pass 1  IDiag  1:
 E= -149.856701461359     Delta-E=       -0.000000010331 Rises=F Damp=F
 DIIS: error= 2.86D-06 at cycle   3 NSaved=   3.
 NSaved= 3 IEnMin= 3 EnMin= -149.856701461359     IErMin= 3 ErrMin= 2.86D-06
 ErrMax= 2.86D-06  0.00D+00 EMaxC= 1.00D-01 BMatC= 1.68D-09 BMatP= 8.53D-09
 IDIUse=1 WtCom= 1.00D+00 WtEn= 0.00D+00
 Coeff-Com:  0.283D+00 0.302D+00 0.415D+00
 Coeff:      0.283D+00 0.302D+00 0.415D+00
 Gap=     0.201 Goal=   None    Shift=    0.000
 RMSDP=1.08D-06 MaxDP=3.87D-05 DE=-1.03D-08 OVMax= 2.57D-05

 Cycle  11  Pass 1  IDiag  1:
 E= -149.856701462563     Delta-E=       -0.000000001204 Rises=F Damp=F
 DIIS: error= 1.45D-06 at cycle   4 NSaved=   4.
 NSaved= 4 IEnMin= 4 EnMin= -149.856701462563     IErMin= 4 ErrMin= 1.45D-06
 ErrMax= 1.45D-06  0.00D+00 EMaxC= 1.00D-01 BMatC= 4.14D-10 BMatP= 1.68D-09
 IDIUse=1 WtCom= 1.00D+00 WtEn= 0.00D+00
 Coeff-Com:  0.125D+00 0.149D+00 0.318D+00 0.408D+00
 Coeff:      0.125D+00 0.149D+00 0.318D+00 0.408D+00
 Gap=     0.201 Goal=   None    Shift=    0.000
 RMSDP=2.80D-07 MaxDP=6.95D-06 DE=-1.20D-09 OVMax= 1.01D-05

 Cycle  12  Pass 1  IDiag  1:
 E= -149.856701462926     Delta-E=       -0.000000000362 Rises=F Damp=F
 DIIS: error= 3.29D-07 at cycle   5 NSaved=   5.
 NSaved= 5 IEnMin= 5 EnMin= -149.856701462926     IErMin= 5 ErrMin= 3.29D-07
 ErrMax= 3.29D-07  0.00D+00 EMaxC= 1.00D-01 BMatC= 1.79D-11 BMatP= 4.14D-10
 IDIUse=1 WtCom= 1.00D+00 WtEn= 0.00D+00
 Coeff-Com:  0.220D-01 0.312D-01 0.109D+00 0.225D+00 0.612D+00
 Coeff:      0.220D-01 0.312D-01 0.109D+00 0.225D+00 0.612D+00
 Gap=     0.201 Goal=   None    Shift=    0.000
 RMSDP=6.35D-08 MaxDP=1.42D-06 DE=-3.62D-10 OVMax= 2.08D-06

 Cycle  13  Pass 1  IDiag  1:
 E= -149.856701462940     Delta-E=       -0.000000000014 Rises=F Damp=F
 DIIS: error= 1.15D-07 at cycle   6 NSaved=   6.
 NSaved= 6 IEnMin= 6 EnMin= -149.856701462940     IErMin= 6 ErrMin= 1.15D-07
 ErrMax= 1.15D-07  0.00D+00 EMaxC= 1.00D-01 BMatC= 2.11D-12 BMatP= 1.79D-11
 IDIUse=1 WtCom= 1.00D+00 WtEn= 0.00D+00
 Coeff-Com:  0.259D-02 0.561D-02 0.365D-01 0.899D-01 0.357D+00 0.509D+00
 Coeff:      0.259D-02 0.561D-02 0.365D-01 0.899D-01 0.357D+00 0.509D+00
 Gap=     0.201 Goal=   None    Shift=    0.000
 RMSDP=2.08D-08 MaxDP=3.63D-07 DE=-1.40D-11 OVMax= 6.26D-07

 Cycle  14  Pass 1  IDiag  1:
 E= -149.856701462943     Delta-E=       -0.000000000003 Rises=F Damp=F
 DIIS: error= 3.91D-08 at cycle   7 NSaved=   7.
 NSaved= 7 IEnMin= 7 EnMin= -149.856701462943     IErMin= 7 ErrMin= 3.91D-08
 ErrMax= 3.91D-08  0.00D+00 EMaxC= 1.00D-01 BMatC= 1.77D-13 BMatP= 2.11D-12
 IDIUse=1 WtCom= 1.00D+00 WtEn= 0.00D+00
 Coeff-Com: -0.230D-03 0.811D-03 0.119D-01 0.304D-01 0.153D+00 0.297D+00
 Coeff-Com:  0.507D+00
 Coeff:     -0.230D-03 0.811D-03 0.119D-01 0.304D-01 0.153D+00 0.297D+00
 Coeff:      0.507D+00
 Gap=     0.201 Goal=   None    Shift=    0.000
 RMSDP=6.59D-09 MaxDP=1.54D-07 DE=-3.15D-12 OVMax= 1.81D-07

 SCF Done:  E(RB-LYP) =  -149.856701463     A.U. after   14 cycles
            NFock= 14  Conv=0.66D-08     -V/T= 2.0094
 KE= 1.484665092630D+02 PE=-4.932984220574D+02 EE= 1.227185572108D+02
 Leave Link  502 at Mon Mar 21 19:58:41 2022, MaxMem=  8589934592 cpu:              17.4 elap:               2.4
 (Enter /home/sabyasachi/g16/l801.exe)
 DoSCS=F DFT=T ScalE2(SS,OS)=  1.000000  1.000000
 ExpMin= 6.71D-02 ExpMax= 1.71D+03 ExpMxC= 2.58D+02 IAcc=3 IRadAn=         5 AccDes= 0.00D+00
 HarFok:  IExCor=  205 AccDes= 0.00D+00 IRadAn=         5 IDoV=-2 UseB2=F ITyADJ=14
 ICtDFT= 12500011 ScaDFX=  1.000000  1.000000  1.000000  1.000000
 Largest valence mixing into a core orbital is  6.60D-05
 Largest core mixing into a valence orbital is  1.38D-05
 Range of M.O.s used for correlation:     4    92
 NBasis=    92 NAE=    12 NBE=    12 NFC=     3 NFV=     0
 NROrb=     89 NOA=     9 NOB=     9 NVA=    80 NVB=    80

 **** Warning!!: The largest alpha MO coefficient is  0.20601407D+02

 Leave Link  801 at Mon Mar 21 19:58:41 2022, MaxMem=  8589934592 cpu:               0.5 elap:               0.1
 (Enter /home/sabyasachi/g16/l914.exe)
 RHF ground state
 Keep J ints in memory in canonical form, NReq=583180155.
 FoFCou: FMM=F IPFlag=           0 FMFlag=           0 FMFlg1=           0
         NFxFlg=           0 DoJE=F BraDBF=F KetDBF=F FulRan=T
         wScrn=  0.000000 ICntrl=       600 IOpCl=  0 I1Cent=           0 NGrid=           0
         NMat0=    1 NMatS0=   4278 NMatT0=    0 NMatD0=    1 NMtDS0=    0 NMtDT0=    0
 Symmetry not used in FoFCou.
 Two-electron integral symmetry not used.
 MDV=  8589934592 DFT=T DoStab=F Mixed=F DoRPA=T DoScal=T NonHer=F
 Making orbital integer symmetry assigments:
 Orbital symmetries:
       Occupied  (A) (A) (A) (A) (A) (A) (A) (A) (A) (A) (A) (A)
       Virtual   (A) (A) (A) (A) (A) (A) (A) (A) (A) (A) (A) (A)
                 (A) (A) (A) (A) (A) (A) (A) (A) (A) (A) (A) (A)
                 (A) (A) (A) (A) (A) (A) (A) (A) (A) (A) (A) (A)
                 (A) (A) (A) (A) (A) (A) (A) (A) (A) (A) (A) (A)
                 (A) (A) (A) (A) (A) (A) (A) (A) (A) (A) (A) (A)
                 (A) (A) (A) (A) (A) (A) (A) (A) (A) (A) (A) (A)
                 (A) (A) (A) (A) (A) (A) (A) (A)
   720 initial guesses have been made.
 Convergence on wavefunction:    0.001000000000000
 Davidson Disk Diagonalization:  ConvIn= 1.00D-03 SkipCon=T Conv= 1.00D-03.
 Max sub-space:  2880 roots to seek:  1440 dimension of matrix:         1440
 *** WARNING: Number of orthogonal guesses is          720
 Iteration     1 Dimension   720 NMult     0 NNew    720
 CISAX will form   720 AO SS matrices at one time.
 NMat=   720 NSing=   720 JSym2X= 0.
 New state      1 was old state      3
 New state      3 was old state      4
 New state      4 was old state      5
 New state      5 was old state      6
 New state      6 was old state      1
 New state     12 was old state     14
 New state     14 was old state     15
 New state     15 was old state     16
 New state     16 was old state     17
 New state     17 was old state     19
 New state     18 was old state     20
 New state     19 was old state     18
 New state     20 was old state     21
 New state     21 was old state     12
 New state     22 was old state     23
 New state     23 was old state     24
 New state     24 was old state     22
 New state     25 was old state     26
 New state     26 was old state     25
 New state     27 was old state     28
 New state     28 was old state     27
 New state     32 was old state     33
 New state     33 was old state     32
 New state     36 was old state     37
 New state     37 was old state     36
 New state     38 was old state     40
 New state     40 was old state     38
 New state     41 was old state     42
 New state     42 was old state     43
 New state     43 was old state     44
 New state     44 was old state     41
 New state     47 was old state     49
 New state     49 was old state     51
 New state     51 was old state     47
 New state     53 was old state     54
 New state     54 was old state     56
 New state     55 was old state     58
 New state     56 was old state     57
 New state     57 was old state     59
 New state     58 was old state     60
 New state     59 was old state     61
 New state     60 was old state     55
 New state     61 was old state     62
 New state     62 was old state     63
 New state     63 was old state     64
 New state     64 was old state     65
 New state     65 was old state     66
 New state     66 was old state     68
 New state     67 was old state     69
 New state     68 was old state     72
 New state     69 was old state     67
 New state     70 was old state     73
 New state     71 was old state     76
 New state     72 was old state     71
 New state     73 was old state     74
 New state     74 was old state     75
 New state     75 was old state     79
 New state     76 was old state     77
 New state     77 was old state     80
 New state     79 was old state     82
 New state     80 was old state     83
 New state     81 was old state     70
 New state     82 was old state     81
 New state     83 was old state     84
 New state     84 was old state     85
 New state     85 was old state     88
 New state     88 was old state     89
 New state     89 was old state     92
 New state     90 was old state     91
 New state     91 was old state     90
 New state     92 was old state     93
 New state     93 was old state     94
 New state     94 was old state     97
 New state     95 was old state     96
 New state     96 was old state     95
 New state     97 was old state     99
 New state     99 was old state    100
 New state    100 was old state    102
 New state    102 was old state    103
 New state    103 was old state    104
 New state    104 was old state    108
 New state    106 was old state    110
 New state    108 was old state    106
 New state    110 was old state    111
 New state    111 was old state    113
 New state    112 was old state    114
 New state    113 was old state    112
 New state    114 was old state    116
 New state    116 was old state    118
 New state    117 was old state    119
 New state    118 was old state    117
 New state    119 was old state    120
 New state    120 was old state    123
 New state    122 was old state    124
 New state    123 was old state    125
 New state    124 was old state    126
 New state    125 was old state    122
 New state    126 was old state    129
 New state    129 was old state    131
 New state    131 was old state    132
 No map to state    132
 New state    134 was old state    137
 New state    135 was old state    136
 New state    136 was old state    139
 New state    137 was old state    142
 New state    138 was old state    140
 New state    139 was old state    138
 New state    140 was old state    135
 New state    142 was old state    143
 New state    143 was old state    144
 New state    144 was old state    145
 New state    145 was old state    147
 New state    147 was old state    149
 New state    149 was old state    152
 New state    150 was old state    151
 New state    151 was old state    150
 New state    152 was old state    154
 New state    153 was old state    155
 New state    154 was old state    156
 New state    155 was old state    157
 New state    156 was old state    159
 New state    157 was old state    153
 New state    159 was old state    164
 New state    160 was old state    161
 New state    161 was old state    162
 New state    162 was old state    163
 New state    163 was old state    166
 New state    164 was old state    168
 New state    165 was old state    160
 New state    166 was old state    167
 New state    167 was old state    165
 New state    168 was old state    169
 New state    169 was old state    170
 New state    170 was old state    173
 New state    171 was old state    172
 New state    172 was old state    176
 New state    173 was old state    177
 New state    174 was old state    171
 New state    175 was old state    174
 New state    176 was old state    178
 New state    177 was old state    179
 New state    178 was old state    181
 New state    179 was old state    175
 New state    180 was old state    182
 New state    181 was old state    180
 New state    182 was old state    183
 New state    183 was old state    186
 New state    185 was old state    188
 New state    186 was old state    185
 New state    187 was old state    191
 New state    188 was old state    190
 New state    189 was old state    193
 New state    190 was old state    192
 New state    191 was old state    189
 New state    192 was old state    187
 New state    193 was old state    194
 New state    194 was old state    195
 New state    195 was old state    199
 New state    196 was old state    197
 New state    197 was old state    198
 New state    198 was old state    201
 New state    199 was old state    202
 New state    200 was old state    204
 New state    201 was old state    206
 New state    202 was old state    203
 New state    203 was old state    200
 New state    204 was old state    205
 New state    205 was old state    207
 New state    206 was old state    209
 New state    207 was old state    208
 New state    208 was old state    210
 New state    209 was old state    212
 New state    210 was old state    211
 New state    211 was old state    214
 New state    212 was old state    213
 New state    213 was old state    216
 New state    214 was old state    215
 New state    215 was old state    223
 New state    216 was old state    219
 New state    217 was old state    218
 New state    218 was old state    220
 New state    219 was old state    222
 New state    220 was old state    221
 New state    221 was old state    231
 New state    222 was old state    224
 New state    223 was old state    226
 New state    224 was old state    229
 New state    226 was old state    230
 New state    227 was old state    233
 New state    228 was old state    232
 New state    229 was old state    227
 New state    230 was old state    234
 New state    231 was old state    235
 New state    232 was old state    228
 New state    233 was old state    237
 New state    234 was old state    238
 New state    235 was old state    236
 New state    236 was old state    241
 New state    237 was old state    240
 New state    238 was old state    239
 New state    239 was old state    244
 New state    240 was old state    246
 New state    241 was old state    242
 New state    242 was old state    245
 New state    243 was old state    248
 New state    244 was old state    243
 New state    245 was old state    247
 New state    246 was old state    250
 New state    247 was old state    251
 New state    248 was old state    256
 New state    250 was old state    253
 New state    251 was old state    255
 New state    253 was old state    254
 New state    254 was old state    257
 New state    255 was old state    259
 New state    256 was old state    258
 New state    257 was old state    262
 New state    258 was old state    260
 New state    259 was old state    261
 New state    260 was old state    263
 New state    261 was old state    264
 New state    262 was old state    267
 New state    263 was old state    266
 New state    264 was old state    269
 New state    266 was old state    270
 New state    267 was old state    272
 New state    269 was old state    273
 New state    270 was old state    271
 New state    271 was old state    274
 New state    272 was old state    275
 New state    273 was old state    277
 New state    274 was old state    279
 New state    275 was old state    278
 New state    277 was old state    281
 New state    278 was old state    292
 New state    279 was old state    282
 New state    281 was old state    284
 New state    282 was old state    283
 New state    283 was old state    285
 New state    284 was old state    286
 New state    285 was old state    288
 New state    286 was old state    287
 New state    287 was old state    291
 New state    288 was old state    289
 New state    289 was old state    290
 No map to state    290
 New state    291 was old state    293
 New state    292 was old state    295
 New state    293 was old state    296
 New state    294 was old state    297
 New state    295 was old state    298
 New state    296 was old state    294
 New state    297 was old state    299
 New state    298 was old state    300
 New state    299 was old state    303
 New state    300 was old state    302
 New state    301 was old state    305
 New state    302 was old state    301
 New state    303 was old state    309
 New state    305 was old state    306
 New state    306 was old state    308
 New state    308 was old state    311
 New state    309 was old state    317
 New state    310 was old state    312
 New state    311 was old state    313
 New state    312 was old state    310
 New state    313 was old state    314
 New state    314 was old state    315
 New state    315 was old state    316
 New state    316 was old state    321
 New state    317 was old state    320
 New state    320 was old state    325
 New state    321 was old state    323
 New state    322 was old state    324
 New state    323 was old state    322
 New state    324 was old state    331
 New state    325 was old state    327
 New state    327 was old state    329
 New state    328 was old state    333
 New state    329 was old state    328
 New state    331 was old state    332
 New state    332 was old state    334
 New state    333 was old state    336
 New state    334 was old state    335
 New state    335 was old state    338
 New state    336 was old state    337
 New state    337 was old state    340
 New state    338 was old state    339
 New state    339 was old state    341
 New state    340 was old state    342
 New state    341 was old state    363
 New state    342 was old state    343
 New state    343 was old state    344
 New state    344 was old state    346
 New state    345 was old state    347
 New state    346 was old state    349
 New state    347 was old state    345
 New state    349 was old state    350
 New state    350 was old state    351
 New state    351 was old state    352
 New state    352 was old state    355
 New state    353 was old state    354
 New state    354 was old state    353
 New state    355 was old state    357
 New state    357 was old state    360
 New state    360 was old state    361
 New state    361 was old state    362
 New state    362 was old state    365
 New state    363 was old state    366
 New state    365 was old state    367
 New state    366 was old state    368
 New state    367 was old state    369
 New state    368 was old state    370
 New state    369 was old state    371
 New state    370 was old state    377
 New state    371 was old state    372
 New state    372 was old state    374
 New state    374 was old state    379
 New state    375 was old state    378
 New state    376 was old state    375
 New state    377 was old state    376
 New state    378 was old state    380
 New state    379 was old state    381
 New state    380 was old state    382
 New state    381 was old state    383
 New state    382 was old state    384
 New state    383 was old state    387
 New state    384 was old state    386
 New state    386 was old state    388
 New state    387 was old state    389
 New state    388 was old state    391
 New state    389 was old state    390
 New state    390 was old state    392
 New state    391 was old state    393
 New state    392 was old state    396
 New state    393 was old state    395
 New state    395 was old state    397
 New state    396 was old state    399
 New state    397 was old state    398
 New state    398 was old state    400
 New state    399 was old state    401
 New state    400 was old state    402
 New state    401 was old state    405
 New state    402 was old state    403
 New state    403 was old state    404
 New state    404 was old state    407
 New state    405 was old state    406
 New state    406 was old state    408
 New state    407 was old state    409
 New state    408 was old state    410
 New state    409 was old state    412
 New state    410 was old state    411
 New state    411 was old state    413
 New state    412 was old state    414
 New state    413 was old state    415
 New state    414 was old state    416
 New state    415 was old state    418
 New state    416 was old state    417
 New state    417 was old state    422
 New state    418 was old state    419
 New state    419 was old state    423
 New state    421 was old state    424
 New state    422 was old state    421
 New state    423 was old state    426
 New state    424 was old state    425
 New state    425 was old state    428
 New state    426 was old state    427
 New state    427 was old state    429
 New state    428 was old state    430
 New state    429 was old state    434
 New state    430 was old state    431
 New state    431 was old state    433
 New state    433 was old state    436
 New state    434 was old state    437
 New state    436 was old state    438
 New state    437 was old state    442
 New state    438 was old state    440
 New state    440 was old state    441
 New state    441 was old state    443
 New state    442 was old state    446
 New state    443 was old state    444
 New state    444 was old state    445
 New state    445 was old state    447
 New state    446 was old state    448
 New state    447 was old state    449
 New state    448 was old state    450
 New state    449 was old state    452
 New state    450 was old state    451
 New state    451 was old state    454
 New state    452 was old state    453
 New state    453 was old state    455
 New state    454 was old state    456
 New state    455 was old state    457
 New state    456 was old state    458
 No map to state    457
 New state    458 was old state    461
 New state    461 was old state    462
 New state    462 was old state    465
 New state    463 was old state    464
 New state    464 was old state    463
 New state    465 was old state    470
 New state    466 was old state    467
 New state    467 was old state    469
 New state    469 was old state    473
 New state    470 was old state    466
 New state    473 was old state    474
 New state    474 was old state    475
 New state    475 was old state    476
 New state    476 was old state    477
 New state    477 was old state    478
 New state    478 was old state    480
 New state    480 was old state    487
 New state    483 was old state    485
 New state    484 was old state    483
 New state    485 was old state    486
 New state    486 was old state    484
 New state    487 was old state    490
 New state    488 was old state    489
 New state    489 was old state    491
 New state    490 was old state    493
 New state    491 was old state    488
 New state    493 was old state    500
 New state    500 was old state    501
 New state    501 was old state    502
 New state    502 was old state    504
 New state    504 was old state    505
 New state    505 was old state    506
 New state    506 was old state    507
 New state    507 was old state    508
 New state    508 was old state    509
 New state    509 was old state    512
 New state    510 was old state    513
 New state    511 was old state    510
 New state    512 was old state    511
 New state    513 was old state    516
 New state    516 was old state    521
 New state    517 was old state    519
 New state    518 was old state    517
 New state    519 was old state    518
 New state    521 was old state    523
 New state    523 was old state    525
 New state    524 was old state    528
 New state    525 was old state    524
 New state    528 was old state    529
 New state    529 was old state    536
 New state    531 was old state    534
 New state    532 was old state    531
 New state    533 was old state    535
 New state    534 was old state    533
 New state    535 was old state    532
 New state    536 was old state    537
 New state    537 was old state    539
 New state    539 was old state    543
 New state    540 was old state    541
 New state    541 was old state    540
 New state    543 was old state    544
 New state    544 was old state    546
 New state    546 was old state    549
 New state    549 was old state    553
 New state    553 was old state    554
 New state    554 was old state    555
 New state    555 was old state    558
 New state    558 was old state    559
 New state    559 was old state    561
 New state    561 was old state    562
 New state    562 was old state    563
 New state    563 was old state    564
 New state    564 was old state    565
 New state    565 was old state    568
 New state    567 was old state    570
 New state    568 was old state    567
 New state    570 was old state    571
 New state    571 was old state    573
 New state    572 was old state    574
 New state    573 was old state    572
 New state    574 was old state    575
 New state    575 was old state    576
 New state    576 was old state    584
 New state    578 was old state    579
 New state    579 was old state    578
 New state    580 was old state    581
 New state    581 was old state    582
 New state    582 was old state    580
 New state    584 was old state    585
 New state    585 was old state    589
 New state    587 was old state    588
 New state    588 was old state    587
 New state    589 was old state    590
 New state    590 was old state    597
 New state    592 was old state    593
 New state    593 was old state    592
 New state    595 was old state    596
 New state    596 was old state    595
 New state    597 was old state    598
 New state    598 was old state    600
 New state    599 was old state    601
 New state    600 was old state    604
 New state    601 was old state    602
 New state    602 was old state    599
 New state    604 was old state    606
 New state    606 was old state    607
 New state    607 was old state    608
 New state    608 was old state    609
 New state    609 was old state    611
 New state    611 was old state    612
 New state    612 was old state    613
 New state    613 was old state    615
 New state    614 was old state    617
 New state    615 was old state    614
 New state    617 was old state    620
 New state    620 was old state    621
 New state    621 was old state    624
 New state    624 was old state    625
 New state    625 was old state    630
 New state    627 was old state    628
 New state    628 was old state    627
 New state    630 was old state    631
 New state    631 was old state    634
 New state    633 was old state    635
 New state    634 was old state    639
 New state    635 was old state    633
 New state    638 was old state    642
 New state    639 was old state    638
 New state    642 was old state    643
 New state    643 was old state    646
 New state    646 was old state    647
 New state    647 was old state    648
 New state    648 was old state    650
 New state    650 was old state    651
 New state    651 was old state    652
 New state    652 was old state    653
 No map to state    653
 New state    657 was old state    659
 New state    658 was old state    660
 New state    659 was old state    658
 New state    660 was old state    661
 New state    661 was old state    657
 New state    662 was old state    663
 New state    663 was old state    662
 New state    667 was old state    668
 New state    668 was old state    669
 New state    669 was old state    667
 New state    673 was old state    675
 New state    674 was old state    673
 New state    675 was old state    674
 New state    679 was old state    681
 New state    681 was old state    679
 New state    683 was old state    684
 New state    684 was old state    683
 New state    687 was old state    688
 New state    688 was old state    687
 New state    689 was old state    690
 New state    690 was old state    689
 New state    693 was old state    694
 New state    694 was old state    693
 New state    695 was old state    696
 New state    696 was old state    695
 New state    703 was old state    704
 New state    704 was old state    703
 Excitation Energies [eV] at current iteration:
 Root      1 :     5.659790097699927
 Root      2 :     5.851306846378814
 Root      3 :     6.041515916466107
 Root      4 :     6.463726700472918
 Root      5 :     6.708846442543510
 Root      6 :     6.970448294034509
 Root      7 :     7.161015560862515
 Root      8 :     7.387084588292909
 Root      9 :     8.172828314148534
 Root     10 :     8.360818583053403
 Root     11 :     8.714743324122885
 Root     12 :     8.960642442751281
 Root     13 :     8.986472194138836
 Root     14 :     9.420373774456557
 Root     15 :     9.533899774267971
 Root     16 :     9.546599676212036
 Root     17 :     9.718626385266955
 Root     18 :     9.751953637924313
 Root     19 :     9.760525765679912
 Root     20 :     9.926320505132482
 Root     21 :    10.112775758215930
 Root     22 :    10.295208157362770
 Root     23 :    10.394499347387620
 Root     24 :    10.510390578520320
 Root     25 :    10.630132053394590
 Root     26 :    10.767576784176680
 Root     27 :    10.896874366873330
 Root     28 :    10.930889700207380
 Root     29 :    11.147552757408040
 Root     30 :    11.369003383164310
 Root     31 :    11.433560273149930
 Root     32 :    11.563219489091290
 Root     33 :    11.713185092366110
 Root     34 :    12.062653862393720
 Root     35 :    12.250322407373230
 Root     36 :    12.359991759790620
 Root     37 :    12.415662940458540
 Root     38 :    12.468944985137610
 Root     39 :    12.535440314790070
 Root     40 :    12.572066254587670
 Root     41 :    12.692498286838020
 Root     42 :    12.833488591238560
 Root     43 :    12.874463467961210
 Root     44 :    12.957828485022470
 Root     45 :    13.084178240508240
 Root     46 :    13.190951380279030
 Root     47 :    13.288113163056630
 Root     48 :    13.417412557942600
 Root     49 :    13.457921368779010
 Root     50 :    13.506213474237950
 Root     51 :    13.657566487455270
 Root     52 :    13.801649551181120
 Root     53 :    13.906978981280170
 Root     54 :    14.050077189103530
 Root     55 :    14.104043647254430
 Root     56 :    14.142840673977760
 Root     57 :    14.177081110191320
 Root     58 :    14.208245970366880
 Root     59 :    14.241367715318090
 Root     60 :    14.259376161110120
 Root     61 :    14.357424670261900
 Root     62 :    14.436303916881450
 Root     63 :    14.595514002379260
 Root     64 :    14.698492629913630
 Root     65 :    14.756496682620860
 Root     66 :    14.780902824841580
 Root     67 :    14.846104015983460
 Root     68 :    14.909020271556000
 Root     69 :    14.952991801376880
 Root     70 :    14.981186195773480
 Root     71 :    15.107702310152910
 Root     72 :    15.192711144139360
 Root     73 :    15.314233135773320
 Root     74 :    15.394817602985240
 Root     75 :    15.474973666928420
 Root     76 :    15.522534760988960
 Root     77 :    15.542155682293920
 Root     78 :    15.619589122162350
 Root     79 :    15.660504231226520
 Root     80 :    15.724134021983050
 Root     81 :    15.753316947526980
 Root     82 :    15.808994153201490
 Root     83 :    15.991591115499700
 Root     84 :    16.094644335918030
 Root     85 :    16.233777262107260
 Root     86 :    16.370909882533230
 Root     87 :    16.408126055423000
 Root     88 :    16.490405437512570
 Root     89 :    16.519401310599260
 Root     90 :    16.553863923215080
 Root     91 :    16.730363743410010
 Root     92 :    16.740636225767670
 Root     93 :    16.821753031651920
 Root     94 :    16.865073358192030
 Root     95 :    16.915754451839150
 Root     96 :    17.017594688341060
 Root     97 :    17.101769219675930
 Root     98 :    17.151787147743860
 Root     99 :    17.273874617031480
 Root    100 :    17.329066399319900
 Root    101 :    17.359993137410950
 Root    102 :    17.431659342456470
 Root    103 :    17.630655127264120
 Root    104 :    17.649805015221140
 Root    105 :    17.656020146786860
 Root    106 :    17.687280654641970
 Root    107 :    17.726343755679810
 Root    108 :    17.796556118055720
 Root    109 :    18.004441294911010
 Root    110 :    18.049205743071710
 Root    111 :    18.083836865637720
 Root    112 :    18.185805991212400
 Root    113 :    18.202601352204340
 Root    114 :    18.213357912753350
 Root    115 :    18.282691652532750
 Root    116 :    18.314840326594500
 Root    117 :    18.518895876726710
 Root    118 :    18.600062571351930
 Root    119 :    18.659061937637990
 Root    120 :    18.703524858742810
 Root    121 :    18.766636733674170
 Root    122 :    18.839172293045170
 Root    123 :    18.906058701264910
 Root    124 :    18.947819787689880
 Root    125 :    18.979657507750420
 Root    126 :    19.019012588256590
 Root    127 :    19.097609689136540
 Root    128 :    19.116708806890870
 Root    129 :    19.196290908386790
 Root    130 :    19.309943220541190
 Root    131 :    19.443959641068080
 Root    132 :    19.499898428001260
 Root    133 :    19.612286100767130
 Root    134 :    19.710060537266920
 Root    135 :    19.811790475544130
 Root    136 :    19.854933678834500
 Root    137 :    19.913741210395010
 Root    138 :    19.928888496972680
 Root    139 :    19.958390470141660
 Root    140 :    20.066957275958330
 Root    141 :    20.097397455957160
 Root    142 :    20.188529206797150
 Root    143 :    20.251202919610130
 Root    144 :    20.309824882615490
 Root    145 :    20.568643593899120
 Root    146 :    20.675106546373940
 Root    147 :    20.738330140581050
 Root    148 :    20.796721909466580
 Root    149 :    20.823966935155180
 Root    150 :    20.875730346576440
 Root    151 :    20.940033961000050
 Root    152 :    20.966340051329670
 Root    153 :    21.021316275736540
 Root    154 :    21.101277088069330
 Root    155 :    21.155236517005200
 Root    156 :    21.190947522178480
 Root    157 :    21.243738126154180
 Root    158 :    21.316228348875300
 Root    159 :    21.346497239129590
 Root    160 :    21.480814958800060
 Root    161 :    21.525242206348070
 Root    162 :    21.576206468706480
 Root    163 :    21.614841545527100
 Root    164 :    21.715469527465840
 Root    165 :    21.791098438999460
 Root    166 :    21.816009014431830
 Root    167 :    21.859690635042810
 Root    168 :    21.952841866455940
 Root    169 :    21.968815382639600
 Root    170 :    22.029159667945290
 Root    171 :    22.161751254176380
 Root    172 :    22.206106004518970
 Root    173 :    22.236005301490810
 Root    174 :    22.286496989954990
 Root    175 :    22.328294294088320
 Root    176 :    22.361538063405470
 Root    177 :    22.428194855049690
 Root    178 :    22.445847315794000
 Root    179 :    22.582349045213740
 Root    180 :    22.643543104101530
 Root    181 :    22.688467898893040
 Root    182 :    22.725797751086360
 Root    183 :    22.932969541441900
 Root    184 :    23.039899245277690
 Root    185 :    23.154642138368820
 Root    186 :    23.191038572099410
 Root    187 :    23.250055556816420
 Root    188 :    23.342519192966330
 Root    189 :    23.371736330957820
 Root    190 :    23.467192667691730
 Root    191 :    23.530023650155800
 Root    192 :    23.554324149818890
 Root    193 :    23.599197522931320
 Root    194 :    23.660136860248410
 Root    195 :    23.779163546613090
 Root    196 :    23.820719376558260
 Root    197 :    23.869476159046520
 Root    198 :    23.918203176773050
 Root    199 :    24.038511416464370
 Root    200 :    24.092947261293820
 Root    201 :    24.136953778641340
 Root    202 :    24.164800346760850
 Root    203 :    24.175788224310580
 Root    204 :    24.213487094019920
 Root    205 :    24.259120306273860
 Root    206 :    24.307072998942830
 Root    207 :    24.387930026239250
 Root    208 :    24.452718541422320
 Root    209 :    24.488269550260890
 Root    210 :    24.546294368016130
 Root    211 :    24.592477981505990
 Root    212 :    24.612008374090980
 Root    213 :    24.668979152021940
 Root    214 :    24.743481208311310
 Root    215 :    24.784555675037710
 Root    216 :    24.833362882384250
 Root    217 :    24.892235878992730
 Root    218 :    25.028973579711860
 Root    219 :    25.160551124436420
 Root    220 :    25.233094061592050
 Root    221 :    25.243149366329560
 Root    222 :    25.341804138764520
 Root    223 :    25.553992882884840
 Root    224 :    25.581728101910920
 Root    225 :    25.632089997558100
 Root    226 :    25.692034682792310
 Root    227 :    25.720128976890550
 Root    228 :    25.792453661969770
 Root    229 :    25.804447813411560
 Root    230 :    25.850631402390210
 Root    231 :    25.949136268475500
 Root    232 :    25.990012052968520
 Root    233 :    26.094280613682030
 Root    234 :    26.187825180122760
 Root    235 :    26.250162866600290
 Root    236 :    26.302785895722510
 Root    237 :    26.385251390920740
 Root    238 :    26.442556975569280
 Root    239 :    26.509640635726090
 Root    240 :    26.527043005974030
 Root    241 :    26.630283978433870
 Root    242 :    26.699235072084180
 Root    243 :    26.769702835198240
 Root    244 :    26.822382973913580
 Root    245 :    26.887543811580810
 Root    246 :    26.942083198828880
 Root    247 :    27.073601804445370
 Root    248 :    27.094945196702270
 Root    249 :    27.164656507632300
 Root    250 :    27.370900831289170
 Root    251 :    27.514011954511780
 Root    252 :    27.544853992563560
 Root    253 :    27.636718220269970
 Root    254 :    27.713109241671720
 Root    255 :    27.807353947226700
 Root    256 :    27.842660355352780
 Root    257 :    27.888351349655420
 Root    258 :    27.962591301453250
 Root    259 :    28.130363336779220
 Root    260 :    28.234094954448590
 Root    261 :    28.334197038823000
 Root    262 :    28.405199666704680
 Root    263 :    28.429844236517950
 Root    264 :    28.522162210538440
 Root    265 :    28.585186808708130
 Root    266 :    28.647629694320190
 Root    267 :    28.798226400249070
 Root    268 :    28.864379567840080
 Root    269 :    28.911116072734830
 Root    270 :    28.937876404273970
 Root    271 :    28.991819801415960
 Root    272 :    29.186119495850460
 Root    273 :    29.226003793123430
 Root    274 :    29.316442212630760
 Root    275 :    29.402950949037600
 Root    276 :    29.426858838332670
 Root    277 :    29.535943195554570
 Root    278 :    29.577943637335490
 Root    279 :    29.683302640456270
 Root    280 :    29.802333632905550
 Root    281 :    29.880191932523060
 Root    282 :    29.882590443829030
 Root    283 :    29.953196151025160
 Root    284 :    30.021289079602360
 Root    285 :    30.065846160872100
 Root    286 :    30.109506168984880
 Root    287 :    30.133413090872310
 Root    288 :    30.276171906675420
 Root    289 :    30.388514336670280
 Root    290 :    30.487960681391500
 Root    291 :    30.605150872482200
 Root    292 :    30.705208592073740
 Root    293 :    30.831312217246030
 Root    294 :    30.908783261065170
 Root    295 :    30.969643430589650
 Root    296 :    31.175414001662740
 Root    297 :    31.248289899706580
 Root    298 :    31.341431926416670
 Root    299 :    31.550270986560280
 Root    300 :    31.557337134833930
 Root    301 :    31.627573891445400
 Root    302 :    31.676296831467670
 Root    303 :    31.757381037442740
 Root    304 :    31.810473447358330
 Root    305 :    31.916452511527350
 Root    306 :    31.998888423278400
 Root    307 :    32.023705150910850
 Root    308 :    32.048504991632440
 Root    309 :    32.201880787073260
 Root    310 :    32.271673032733490
 Root    311 :    32.325443113942220
 Root    312 :    32.433568435301690
 Root    313 :    32.565978170175850
 Root    314 :    32.608196859464540
 Root    315 :    32.913445708282910
 Root    316 :    33.025942451407270
 Root    317 :    33.099347687386010
 Root    318 :    33.123694383915040
 Root    319 :    33.233430891855010
 Root    320 :    33.243977906283650
 Root    321 :    33.282439645645470
 Root    322 :    33.360692365844390
 Root    323 :    33.404492158078600
 Root    324 :    33.564439524110500
 Root    325 :    33.582094636295250
 Root    326 :    33.829101859327960
 Root    327 :    34.076259580146060
 Root    328 :    34.142733740563890
 Root    329 :    34.194690935790450
 Root    330 :    34.279382205165200
 Root    331 :    34.400343058719830
 Root    332 :    34.459850391185210
 Root    333 :    34.660000062387780
 Root    334 :    34.808868475026600
 Root    335 :    34.893833651775300
 Root    336 :    34.912731935436190
 Root    337 :    35.063464344280400
 Root    338 :    35.133430486053260
 Root    339 :    35.231321972240670
 Root    340 :    35.437152990461350
 Root    341 :    35.577391036917530
 Root    342 :    35.775917635814300
 Root    343 :    35.852213689940560
 Root    344 :    35.985447837083190
 Root    345 :    36.156325713982680
 Root    346 :    36.233150756364860
 Root    347 :    36.317673910080050
 Root    348 :    36.394066699213660
 Root    349 :    36.506026916619920
 Root    350 :    36.553611421186870
 Root    351 :    36.637829619375510
 Root    352 :    36.770240912303070
 Root    353 :    36.895359865277340
 Root    354 :    36.977171544261010
 Root    355 :    37.154182528207720
 Root    356 :    37.204269728799820
 Root    357 :    37.272038192858590
 Root    358 :    37.384684096090940
 Root    359 :    37.534733418920030
 Root    360 :    37.612100649230880
 Root    361 :    37.686599916401190
 Root    362 :    37.870147675159000
 Root    363 :    38.330828033569540
 Root    364 :    38.339934319133370
 Root    365 :    38.530962311459620
 Root    366 :    38.605748789761030
 Root    367 :    38.844134495349130
 Root    368 :    38.861290385248060
 Root    369 :    38.913626911805790
 Root    370 :    39.029007873416180
 Root    371 :    39.282311450451870
 Root    372 :    39.366890282834530
 Root    373 :    39.446670160680190
 Root    374 :    39.694560742251170
 Root    375 :    39.728970376335600
 Root    376 :    39.740090637697110
 Root    377 :    39.809578164049480
 Root    378 :    39.842131842971610
 Root    379 :    39.931858633732460
 Root    380 :    40.061416433014360
 Root    381 :    40.333715520448280
 Root    382 :    40.498904137105610
 Root    383 :    40.525631525081970
 Root    384 :    40.730769162885810
 Root    385 :    40.802836391903100
 Root    386 :    41.064611464271590
 Root    387 :    41.268219778946810
 Root    388 :    41.471240249996730
 Root    389 :    41.476294206900030
 Root    390 :    41.517017737798850
 Root    391 :    41.795404705895810
 Root    392 :    41.941867919251710
 Root    393 :    42.107719431210970
 Root    394 :    42.260052055940950
 Root    395 :    42.317721175114820
 Root    396 :    42.492436711145760
 Root    397 :    42.803332766214250
 Root    398 :    42.937738944212850
 Root    399 :    43.204973090729730
 Root    400 :    43.262856878865210
 Root    401 :    43.382531261147740
 Root    402 :    43.503415052801150
 Root    403 :    43.623799007422560
 Root    404 :    43.797089628685660
 Root    405 :    43.951576118219850
 Root    406 :    44.036090361749420
 Root    407 :    44.134585041798880
 Root    408 :    44.248345556967880
 Root    409 :    44.352284466834370
 Root    410 :    44.424203903548590
 Root    411 :    44.697695840712020
 Root    412 :    45.054819519164570
 Root    413 :    45.227197154046760
 Root    414 :    45.294697306753890
 Root    415 :    45.529561370832300
 Root    416 :    46.017313758896160
 Root    417 :    46.074772325819480
 Root    418 :    46.536573815709930
 Root    419 :    46.612113408591950
 Root    420 :    46.719239961745390
 Root    421 :    46.751859514229830
 Root    422 :    46.825720312680020
 Root    423 :    46.955551151765190
 Root    424 :    46.970654340106680
 Root    425 :    47.066872115791400
 Root    426 :    47.431327711375100
 Root    427 :    47.557288941035480
 Root    428 :    47.741150029721850
 Root    429 :    47.851075886795440
 Root    430 :    48.271184748587570
 Root    431 :    48.469973077169420
 Root    432 :    48.522607053103230
 Root    433 :    48.573746636716870
 Root    434 :    48.787848561320150
 Root    435 :    48.807796328695550
 Root    436 :    49.235793244490010
 Root    437 :    49.371706054848610
 Root    438 :    49.788315817175050
 Root    439 :    49.861391362637430
 Root    440 :    49.980367631375450
 Root    441 :    50.047753304398550
 Root    442 :    50.306857810772970
 Root    443 :    50.699625395907230
 Root    444 :    50.719999947854060
 Root    445 :    50.770748360861770
 Root    446 :    50.872261382105680
 Root    447 :    50.956984468983020
 Root    448 :    51.070950615207950
 Root    449 :    51.119110551777470
 Root    450 :    51.205772585741460
 Root    451 :    51.357518944636390
 Root    452 :    51.635346774171180
 Root    453 :    51.683047441145130
 Root    454 :    52.003059033870680
 Root    455 :    52.138968611857980
 Root    456 :    52.151439092010410
 Root    457 :    52.305006049917470
 Root    458 :    52.419042091390300
 Root    459 :    52.448466303835690
 Root    460 :    52.647401288821570
 Root    461 :    52.750936279148750
 Root    462 :    52.893581395991600
 Root    463 :    52.961529061461020
 Root    464 :    53.026485313012150
 Root    465 :    53.273467620675260
 Root    466 :    53.353469774006160
 Root    467 :    53.580190300682370
 Root    468 :    53.664493324427890
 Root    469 :    53.872463418568390
 Root    470 :    53.920459525381670
 Root    471 :    54.049931536585870
 Root    472 :    54.081949855812620
 Root    473 :    54.428724159536920
 Root    474 :    54.493938576046710
 Root    475 :    54.748563436617240
 Root    476 :    54.904476488454040
 Root    477 :    55.020935889013210
 Root    478 :    55.084074635170500
 Root    479 :    55.255520499755820
 Root    480 :    55.404528077551030
 Root    481 :    55.625007496651930
 Root    482 :    55.749440677183810
 Root    483 :    56.003901200318840
 Root    484 :    56.188649260907480
 Root    485 :    56.202082278250270
 Root    486 :    56.294163285186830
 Root    487 :    56.420930735209980
 Root    488 :    56.695400166768810
 Root    489 :    56.789637712151920
 Root    490 :    57.133032032617000
 Root    491 :    57.182042805037210
 Root    492 :    57.260339130270720
 Root    493 :    57.640376813439860
 Root    494 :    57.769058471947860
 Root    495 :    57.924307442207190
 Root    496 :    58.052370510858800
 Root    497 :    58.151523035282590
 Root    498 :    58.416247387240530
 Root    499 :    58.688442117598450
 Root    500 :    58.764731460069310
 Root    501 :    58.859437881942890
 Root    502 :    58.998839504905930
 Root    503 :    59.272927549389120
 Root    504 :    59.469457789561010
 Root    505 :    59.532153328503300
 Root    506 :    59.695794246077110
 Root    507 :    59.774078154263750
 Root    508 :    60.000758296419600
 Root    509 :    60.071653782123010
 Root    510 :    60.205331182709950
 Root    511 :    60.278291293293960
 Root    512 :    60.365978290280250
 Root    513 :    60.470982775321370
 Root    514 :    60.668698753696520
 Root    515 :    60.814912327407900
 Root    516 :    61.101645715160470
 Root    517 :    61.156221920122790
 Root    518 :    61.340064804504860
 Root    519 :    61.423201182754250
 Root    520 :    61.445733045510740
 Root    521 :    61.477443412073970
 Root    522 :    61.698999033951280
 Root    523 :    62.063916804702870
 Root    524 :    62.141496418046510
 Root    525 :    62.172113758392160
 Root    526 :    62.313219382216690
 Root    527 :    62.366712829035800
 Root    528 :    62.413971999287020
 Root    529 :    62.649041597095380
 Root    530 :    62.753146518325220
 Root    531 :    62.894783701724310
 Root    532 :    62.942186960614790
 Root    533 :    63.059978121757400
 Root    534 :    63.104889241615910
 Root    535 :    63.153646311409930
 Root    536 :    63.348006716735800
 Root    537 :    63.367858228219400
 Root    538 :    63.438388406354270
 Root    539 :    63.734407410140400
 Root    540 :    64.084214802226610
 Root    541 :    64.154983160455400
 Root    542 :    64.216813012160090
 Root    543 :    64.601483162232460
 Root    544 :    64.667180485389300
 Root    545 :    64.801711015955160
 Root    546 :    64.891602287499510
 Root    547 :    65.300065969563870
 Root    548 :    65.619584026398680
 Root    549 :    65.785204269288460
 Root    550 :    65.916158979333420
 Root    551 :    65.997555826329660
 Root    552 :    66.088791704115210
 Root    553 :    66.110625379164380
 Root    554 :    66.264369658379410
 Root    555 :    66.440976354352900
 Root    556 :    66.601519462194200
 Root    557 :    66.703522234135250
 Root    558 :    66.794652833501250
 Root    559 :    66.905385112176930
 Root    560 :    67.052504683907090
 Root    561 :    67.222059419188780
 Root    562 :    67.459062542902150
 Root    563 :    67.624354168667610
 Root    564 :    67.931667250968190
 Root    565 :    67.979543114740810
 Root    566 :    68.417359027810990
 Root    567 :    68.460874539454340
 Root    568 :    68.482002245637050
 Root    569 :    68.592369415468000
 Root    570 :    68.615058479240840
 Root    571 :    69.006637405689160
 Root    572 :    69.399437156802430
 Root    573 :    69.499578295197780
 Root    574 :    69.543719481406940
 Root    575 :    69.604097613349230
 Root    576 :    69.842590579687870
 Root    577 :    70.169121334474440
 Root    578 :    70.278346517806110
 Root    579 :    70.305367121017610
 Root    580 :    70.440683076788160
 Root    581 :    70.512706856416600
 Root    582 :    70.741404317981990
 Root    583 :    71.047084975399100
 Root    584 :    71.145042453330010
 Root    585 :    71.243034779486490
 Root    586 :    71.621810587645340
 Root    587 :    71.851049835959000
 Root    588 :    71.968612362002940
 Root    589 :    72.321090257899000
 Root    590 :    72.571696185564430
 Root    591 :    72.971834219974670
 Root    592 :    73.049107144490750
 Root    593 :    73.091831575006140
 Root    594 :    73.735373270150900
 Root    595 :    74.147612739111240
 Root    596 :    74.188265633824900
 Root    597 :    74.398052821146390
 Root    598 :    74.973418869952400
 Root    599 :    75.028672858573690
 Root    600 :    75.083516785346480
 Root    601 :    75.187633765482060
 Root    602 :    75.310740466362590
 Root    603 :    75.489249373223330
 Root    604 :    75.639305338899120
 Root    605 :    75.881748564348680
 Root    606 :    76.329464356688960
 Root    607 :    76.429010626403970
 Root    608 :    76.531196019761270
 Root    609 :    76.557949226848420
 Root    610 :    77.372002886746370
 Root    611 :    77.421107991565930
 Root    612 :    77.543600071360530
 Root    613 :    77.645783011802000
 Root    614 :    77.698419237078980
 Root    615 :    77.842155747833300
 Root    616 :    78.090779742778890
 Root    617 :    78.359424691316480
 Root    618 :    78.590043137909120
 Root    619 :    78.769116805253050
 Root    620 :    78.940069919429190
 Root    621 :    79.446337135357480
 Root    622 :    80.026783450651750
 Root    623 :    80.181347100537100
 Root    624 :    80.297544047902450
 Root    625 :    80.415139499361700
 Root    626 :    80.616691290042940
 Root    627 :    80.946808887580700
 Root    628 :    81.076448313800840
 Root    629 :    81.439868672522860
 Root    630 :    81.569806608325180
 Root    631 :    81.608493628013160
 Root    632 :    82.389330815950030
 Root    633 :    82.749085841495530
 Root    634 :    82.989904369087430
 Root    635 :    83.098699380471250
 Root    636 :    83.407624965320350
 Root    637 :    83.580280494576240
 Root    638 :    83.704318960406710
 Root    639 :    83.816529508732880
 Root    640 :    84.106394839434900
 Root    641 :    84.201900616106490
 Root    642 :    84.536274210469130
 Root    643 :    85.264476355391590
 Root    644 :    85.478847364103440
 Root    645 :    85.840721900654020
 Root    646 :    85.968395540163810
 Root    647 :    86.234034425544510
 Root    648 :    86.290963194641490
 Root    649 :    86.902715008748320
 Root    650 :    87.137419976963220
 Root    651 :    87.229949544063070
 Root    652 :    87.913473288178220
 Root    653 :    88.571467327590240
 Root    654 :    88.641055344334380
 Root    655 :    89.338765894791990
 Root    656 :    89.921283383372770
 Root    657 :    89.987255097643530
 Root    658 :    90.087489379862600
 Root    659 :    90.206753025925550
 Root    660 :    90.354800170869820
 Root    661 :    90.658916545871090
 Root    662 :    91.026734378903410
 Root    663 :    91.232908586762240
 Root    664 :    91.949642738886960
 Root    665 :    92.161453848324600
 Root    666 :    92.319849905966000
 Root    667 :    92.548590100639300
 Root    668 :    92.681289176744330
 Root    669 :    93.326119667264960
 Root    670 :    93.647441395575100
 Root    671 :    93.746795330032360
 Root    672 :    93.870822303051140
 Root    673 :    94.389216676251910
 Root    674 :    94.456132411859640
 Root    675 :    94.664722372036450
 Root    676 :    94.941677197747750
 Root    677 :    95.759188600948490
 Root    678 :    96.171988989271510
 Root    679 :    96.481837516875030
 Root    680 :    96.588632311694000
 Root    681 :    96.593730664205580
 Root    682 :    97.382701326734560
 Root    683 :    97.755297727820110
 Root    684 :    97.825457086644920
 Root    685 :    98.563793527087650
 Root    686 :    98.815046963807720
 Root    687 :    99.105814463879010
 Root    688 :    99.172497100395560
 Root    689 :    99.993256809712880
 Root    690 :   100.031157320841400
 Root    691 :   100.189578618091900
 Root    692 :   100.629724430778700
 Root    693 :   101.451256471592200
 Root    694 :   101.628649647948300
 Root    695 :   101.755078955089800
 Root    696 :   101.981677651123200
 Root    697 :   102.048647341717400
 Root    698 :   102.233398623662700
 Root    699 :   103.216559866307200
 Root    700 :   104.101418095051100
 Root    701 :   104.259539534443800
 Root    702 :   104.490615423433500
 Root    703 :   104.693713502964200
 Root    704 :   104.837411969102800
 Root    705 :   105.879705491508600
 Root    706 :   106.952876137353400
 Root    707 :   107.239096381503900
 Root    708 :   107.549612443343200
 Root    709 :   107.697401579494000
 Root    710 :   108.564033587272700
 Root    711 :   109.189103177703500
 Root    712 :   109.590478556583200
 Root    713 :   109.732219669591100
 Root    714 :   109.950272631796500
 Root    715 :   111.000032690481800
 Root    716 :   112.142399052800300
 Root    717 :   115.124609121499900
 Root    718 :   116.622045035956400
 Root    719 :   117.507837249754700
 Root    720 :   119.004714195219700
 Convergence achieved for final wavefunctions.
 ***********************************************************************
 Excited states from <AA,BB:AA,BB> singles matrix:
 ***********************************************************************
 
 1PDM for each excited state written to RWF  633
 Ground to excited state transition densities written to RWF  633
 Ground to excited state transition electric dipole moments (Au):
       state          X           Y           Z        Dip. S.      Osc.
         1        -0.0865      0.0670      0.1363      0.0306      0.0042
         2         0.2818     -0.1235      0.0273      0.0954      0.0137
         3         0.2511     -0.0463      0.1788      0.0972      0.0144
         4         0.1364      0.1414     -0.0305      0.0395      0.0063
         5         0.1317     -0.5462      0.0004      0.3157      0.0519
         6         1.1148      0.0553      0.0210      1.2463      0.2128
         7        -0.4439     -0.0457      0.3073      0.2936      0.0515
         8         0.5225      0.2140      0.0838      0.3258      0.0590
         9        -0.1175     -0.1148      0.0470      0.0292      0.0058
        10        -0.2141      0.1043      0.0175      0.0570      0.0117
        11        -0.0322      0.0115     -0.0295      0.0020      0.0004
        12        -0.0082      0.0547     -0.4198      0.1793      0.0394
        13         0.0719     -0.0183     -0.1879      0.0408      0.0090
        14        -0.2749      0.0445      0.0886      0.0854      0.0197
        15        -0.0146      0.0503     -0.1196      0.0170      0.0040
        16         0.0910     -0.0223     -0.1250      0.0244      0.0057
        17        -0.0251      0.1051      0.0510      0.0143      0.0034
        18         0.2342     -0.0577      0.0241      0.0587      0.0140
        19         0.2035     -0.0547     -0.0141      0.0446      0.0107
        20         0.0192     -0.0714     -0.0551      0.0085      0.0021
        21        -0.1772      0.4552      0.0543      0.2416      0.0598
        22         0.1661      0.2454      0.1399      0.1074      0.0271
        23         0.1724     -0.0758      0.1223      0.0504      0.0128
        24        -0.5081     -0.4526      0.0543      0.4659      0.1200
        25         0.0746      0.1303     -0.0760      0.0283      0.0074
        26        -0.2108      0.4382      0.0316      0.2374      0.0626
        27         0.0950     -0.4960      0.2970      0.3433      0.0916
        28         0.2707      0.5101      0.2527      0.3974      0.1064
        29        -0.3788      0.0476      0.2067      0.1885      0.0515
        30        -0.3415      0.2029      0.0659      0.1621      0.0452
        31        -0.0130      0.0598     -0.1071      0.0152      0.0043
        32        -0.2403     -0.0024     -0.0795      0.0640      0.0181
        33         0.4339      0.1341      0.0154      0.2065      0.0593
        34         0.0132      0.0397     -0.4135      0.1728      0.0511
        35        -0.1438      0.1695      0.2846      0.1304      0.0391
        36        -0.3067     -0.2107      0.0238      0.1390      0.0421
        37         0.3238     -0.0327      0.0341      0.1071      0.0326
        38         0.0728     -0.2187      0.1045      0.0640      0.0196
        39         0.1652      0.0431      0.0740      0.0346      0.0106
        40         0.3776      0.5888      0.0647      0.4935      0.1520
        41         0.3438      0.1329      0.0246      0.1364      0.0424
        42        -0.2363     -0.1352      0.2883      0.1572      0.0494
        43         0.3137      0.0528      0.0848      0.1084      0.0342
        44         0.0196     -0.0325     -0.1161      0.0149      0.0047
        45         0.0473      0.0017      0.3711      0.1400      0.0449
        46         0.1209      0.0502      0.3117      0.1143      0.0369
        47         0.2733      0.0773     -0.0295      0.0815      0.0265
        48         0.2950      0.1127      0.0007      0.0997      0.0328
        49         0.3572      0.3736      0.2901      0.3513      0.1158
        50        -0.2398     -0.3658      0.3058      0.2848      0.0942
        51        -0.1475     -0.1637      0.0175      0.0489      0.0163
        52         0.2385     -0.2349     -0.0542      0.1150      0.0389
        53         0.0171     -0.0602      0.1068      0.0153      0.0052
        54        -0.1389      0.2635     -0.1696      0.1175      0.0404
        55         0.3321     -0.2579     -0.0295      0.1777      0.0614
        56         0.1685     -0.2403     -0.0158      0.0864      0.0299
        57         0.1925     -0.0885     -0.1210      0.0595      0.0207
        58        -0.0342      0.0806     -0.0581      0.0110      0.0038
        59         0.0590     -0.0994     -0.0137      0.0136      0.0047
        60        -0.1016     -0.4875     -0.0898      0.2561      0.0895
        61         0.0633     -0.1340     -0.0343      0.0232      0.0081
        62        -0.0287     -0.1461     -0.0265      0.0229      0.0081
        63        -0.2453     -0.1039     -0.1507      0.0937      0.0335
        64         0.0525      0.0452     -0.0764      0.0106      0.0038
[...]
     14   0.595499D+00  0.949390D-01 -0.253657D+00 -0.156603D+00 -0.154978D-01
     15  -0.336508D+00  0.370254D-01 -0.936849D-02 -0.103098D+01 -0.399882D+00
     16   0.274728D-01 -0.374127D-01 -0.652460D-01 -0.174515D+00  0.562841D-01
               651           652           653           654           655 
      1  -0.146651D+03 -0.146626D+03 -0.146602D+03 -0.146599D+03 -0.146574D+03
      2  -0.244133D-01 -0.115089D-01 -0.525041D-01  0.760034D-02 -0.137767D-01
      3   0.503493D-01  0.139586D-01 -0.334075D-01  0.290238D-01 -0.260679D-01
      4   0.109927D+00  0.287097D-01 -0.253644D-01 -0.636932D-01  0.418462D-02
      5   0.695419D-01  0.315809D-01  0.165434D+00 -0.265509D-01  0.458330D-01
      6  -0.154432D+00 -0.688858D-01  0.100385D+00 -0.878013D-01  0.814325D-01
      7  -0.314814D+00 -0.797338D-01  0.598439D-01  0.183314D+00  0.400685D-02
      8  -0.877976D-02 -0.252377D-01  0.182429D-01 -0.530212D-01 -0.480776D-02
      9   0.422153D+00  0.253750D+00  0.208715D-02 -0.427987D+00  0.383621D-01
     10  -0.228303D+00  0.192095D-01  0.265530D+00 -0.326073D+00  0.435735D-01
     11  -0.156051D+00  0.133374D+01 -0.333245D+00  0.570834D+00 -0.948830D-01
     12   0.336412D-01  0.250599D+00 -0.274466D-02  0.269920D+00  0.651205D-01
     13   0.479758D-01 -0.219295D-01 -0.101365D+00 -0.167981D+00 -0.282356D-01
     14  -0.239828D+00  0.138187D+00  0.697150D-01 -0.407821D+00 -0.275491D-01
     15  -0.528719D+00 -0.306879D+00  0.463628D-01  0.401262D+00 -0.328571D-01
     16  -0.307730D-01 -0.735629D-01  0.147042D+00 -0.487781D-01 -0.807328D-01
               656           657           658           659           660 
      1  -0.146552D+03 -0.146550D+03 -0.146546D+03 -0.146542D+03 -0.146536D+03
      2  -0.559940D-02 -0.393861D-01 -0.374944D-01  0.205062D-01 -0.487446D-01
      3  -0.184168D-01  0.322428D-01  0.341080D-01 -0.425467D-01  0.185388D-01
      4   0.301859D-01  0.822761D-01  0.709372D-01  0.104939D+00 -0.567578D-01
      5   0.137356D-01  0.114457D+00  0.111827D+00 -0.646297D-01  0.160105D+00
      6   0.567776D-01 -0.804679D-01 -0.970137D-01  0.113975D+00 -0.515494D-01
      7  -0.841600D-01 -0.243708D+00 -0.203603D+00 -0.318925D+00  0.168100D+00
      8  -0.110856D-01  0.439810D-01  0.376932D-01  0.398502D-02 -0.124087D+00
      9   0.411074D-02 -0.270718D+00 -0.416771D-01 -0.614023D+00 -0.159846D+00
     10   0.582035D-01  0.464783D+00  0.166734D+00 -0.178057D-01 -0.798957D-02
     11   0.114809D+00 -0.534493D+00 -0.791135D+00  0.136254D+01 -0.231949D+00
     12   0.135781D-01 -0.975335D-01  0.699803D-01 -0.915499D-03  0.134314D+00
     13   0.585223D-01  0.883025D-01  0.120211D+00 -0.638740D-01 -0.379785D-01
     14  -0.143006D-01  0.324156D+00  0.166270D+00 -0.116341D+00 -0.141829D+00
     15   0.101335D+00  0.355849D+00  0.139430D+00  0.849028D+00  0.122836D+00
     16  -0.234656D+00  0.150832D+00 -0.236599D-01 -0.103681D+00 -0.151124D+00
               661           662           663           664           665 
      1  -0.146525D+03 -0.146512D+03 -0.146504D+03 -0.146478D+03 -0.146470D+03
      2   0.456818D-01  0.607178D-01  0.325460D-01 -0.105402D-01 -0.714319D-02
      3  -0.196036D-01 -0.149109D-01 -0.285448D-01 -0.210583D-01  0.394095D-02
      4  -0.231895D+00  0.196255D-02  0.247797D-01  0.228896D-01 -0.622039D-01
      5  -0.141699D+00 -0.188586D+00 -0.100623D+00  0.309649D-01  0.246871D-01
      6   0.641729D-01  0.286222D-01  0.766628D-01  0.678410D-01 -0.105744D-01
      7   0.680198D+00 -0.546780D-02 -0.747086D-01 -0.726230D-01  0.181682D+00
      8  -0.312561D+00 -0.536073D-02  0.404803D-01 -0.503051D-01 -0.122887D+00
      9  -0.273563D+00  0.158786D+00  0.780945D-01 -0.812726D-01  0.117990D+00
     10   0.853587D-01  0.187099D+00 -0.107149D+00 -0.449958D-01  0.172709D+00
     11  -0.325887D+00 -0.431782D+00  0.329080D+00 -0.408713D-01  0.578671D-01
     12  -0.745794D-02  0.195010D+00 -0.702708D-02 -0.620120D-02  0.234638D-01
     13  -0.139103D+00  0.521830D-01  0.868783D-01  0.301484D-01 -0.101663D+00
     14   0.265920D-01  0.179724D+00  0.228331D-01 -0.882714D-01  0.352455D+00
     15   0.195230D+00 -0.224835D+00 -0.127479D+00  0.546916D-01 -0.865599D-01
     16  -0.330902D+00 -0.938952D-02  0.958307D-01 -0.447284D-02 -0.137902D+00
               666           667           668           669           670 
      1  -0.146464D+03 -0.146456D+03 -0.146451D+03 -0.146427D+03 -0.146415D+03
      2   0.163203D-01 -0.213704D-01 -0.475975D-02  0.257536D-01  0.107000D-01
      3  -0.364678D-01 -0.277071D-01 -0.171379D-01  0.285735D-01 -0.439398D-01
      4  -0.195428D-01 -0.291804D-01 -0.301571D-01 -0.372156D-01 -0.299676D-01
      5  -0.416332D-01  0.496639D-01  0.976178D-02 -0.735021D-01 -0.378626D-01
      6   0.965772D-01  0.953007D-01  0.533336D-01 -0.868084D-01  0.126558D+00
      7   0.701889D-01  0.836989D-01  0.903705D-01  0.127770D+00  0.799107D-01
      8  -0.538662D-01 -0.607561D-01  0.330250D-01  0.223974D-01  0.499670D-02
      9  -0.677247D-01 -0.373041D+00  0.855595D+00 -0.192718D+01 -0.205916D-01
     10  -0.165692D-02 -0.234454D-01  0.920077D-01 -0.142849D+00 -0.524013D-01
     11   0.109038D+00  0.652457D-01  0.202465D-01 -0.353663D+00  0.591084D+00
     12   0.904100D-01 -0.158474D+00 -0.395687D-01  0.371327D-01  0.259354D-02
     13   0.411457D-01  0.131575D+00  0.112609D+00 -0.206162D+00  0.164962D+00
     14   0.141677D+00 -0.273272D+00 -0.622660D-01 -0.565497D-01 -0.477882D-01
     15   0.240368D+00  0.440591D+00 -0.936085D+00  0.213361D+01  0.208706D-01
     16  -0.161548D+00 -0.105399D+00 -0.163661D-02 -0.353672D-01  0.134457D+00
               671           672           673           674           675 
      1  -0.146412D+03 -0.146407D+03 -0.146388D+03 -0.146386D+03 -0.146378D+03
      2  -0.740070D-01 -0.281854D-02 -0.194320D-01  0.150095D-01 -0.629427D-01
      3   0.437224D-02  0.665994D-01 -0.771748D-03 -0.515094D-01  0.730660D-01
      4  -0.283403D-01 -0.204289D-01  0.345134D-01  0.465324D-01  0.448510D-01
      5   0.221577D+00  0.103703D-01  0.749293D-01 -0.398610D-01  0.206551D+00
      6  -0.187892D-01 -0.192562D+00 -0.803497D-02  0.154837D+00 -0.236017D+00
      7   0.891917D-01  0.687892D-01 -0.975162D-01 -0.132715D+00 -0.142174D+00
      8  -0.462753D-01 -0.267861D-01 -0.257691D-01  0.217894D-01 -0.438263D-02
      9   0.855932D-01 -0.283157D-01 -0.633018D-01 -0.972550D-01  0.640884D+00
     10  -0.319974D-01  0.161528D+00  0.221201D+00 -0.275429D-01 -0.343866D+00
     11   0.452490D+00  0.115949D+01  0.472429D-01 -0.238085D+00  0.670381D+00
     12   0.781252D-01 -0.364769D+00  0.672896D-01  0.437787D-01 -0.128805D-03
     13   0.916105D-01 -0.822121D-01  0.834325D-02  0.303733D-01  0.655775D-01
     14  -0.576362D-01  0.206989D+00  0.123357D+00 -0.224475D-01 -0.591128D+00
     15  -0.127366D+00 -0.605463D-01  0.406166D-02  0.155867D+00 -0.644520D+00
     16  -0.446643D-01 -0.863693D-01 -0.289699D-01 -0.399061D-01  0.780712D-01
               676           677           678           679           680 
      1  -0.146368D+03 -0.146338D+03 -0.146322D+03 -0.146311D+03 -0.146307D+03
      2  -0.199068D-01  0.342039D-01  0.170358D-01 -0.203648D-01 -0.719064D-01
      3  -0.144084D+00  0.117874D-01 -0.424204D-02  0.296203D-01 -0.619575D-01
      4   0.600299D-02 -0.151687D+00 -0.125721D-01 -0.108993D-01  0.397503D-02
      5   0.739042D-01 -0.106681D+00 -0.437293D-01  0.782618D-01  0.239315D+00
      6   0.433139D+00 -0.342562D-01  0.286310D-01 -0.850484D-01  0.187644D+00
      7  -0.138614D-01  0.459131D+00  0.402898D-01  0.365018D-01 -0.817335D-02
      8  -0.324159D-02 -0.270455D+00 -0.147511D-01 -0.387949D-01  0.167650D-01
      9  -0.774711D-01 -0.256146D+00 -0.520969D-02 -0.428241D-01 -0.487018D-01
     10  -0.586460D+00 -0.492651D-01 -0.200683D+00 -0.162969D+00 -0.326267D+00
     11  -0.417494D-01 -0.367544D+00 -0.422812D+00  0.150106D+00  0.107834D+00
     12  -0.817300D-01  0.780234D-01 -0.135595D+00 -0.110250D+00  0.353066D-01
     13  -0.920417D-01 -0.176689D+00  0.344720D-01 -0.277670D-01 -0.544925D-01
     14  -0.782690D+00  0.690375D-01 -0.237690D+00 -0.244853D-01 -0.709820D+00
     15   0.338013D-01  0.130112D+00  0.571396D-01  0.631314D-01  0.177397D-04
     16  -0.208254D-01 -0.325030D+00  0.183701D-01 -0.718670D-01  0.510740D-01
               681           682           683           684           685 
      1  -0.146307D+03 -0.146278D+03 -0.146264D+03 -0.146262D+03 -0.146235D+03
      2  -0.857244D-02 -0.527156D-01 -0.113028D-01 -0.102508D-01 -0.787697D-02
      3   0.548557D-01 -0.542152D-01  0.430336D-01  0.221378D-01 -0.310516D-01
      4   0.127686D-01 -0.341737D-01  0.533201D-01  0.456399D-02 -0.524564D-02
      5   0.437679D-01  0.156255D+00  0.364190D-01  0.350829D-01  0.376184D-01
      6  -0.178719D+00  0.161953D+00 -0.128945D+00 -0.758829D-01  0.909216D-01
      7  -0.361669D-01  0.106442D+00 -0.170838D+00 -0.230181D-01  0.145918D-01
      8  -0.927567D-03 -0.511289D-01  0.267921D-01  0.854049D-01 -0.113011D-01
      9  -0.507576D-01 -0.239109D+00  0.257196D+00 -0.184590D+00 -0.476582D-01
     10   0.603990D-01  0.305006D+00 -0.187046D+00 -0.289415D-01 -0.877387D-01
     11   0.111136D+01  0.211889D+00  0.233574D+00  0.850848D-01  0.685808D-01
     12   0.503238D-01 -0.353551D-01  0.433758D-01 -0.206999D-01  0.101020D-01
     13  -0.117521D+00  0.835626D-01  0.357912D-01  0.816118D-01  0.975995D-02
     14  -0.326299D+00  0.217749D+00 -0.243400D+00  0.632676D-01 -0.381484D+00
     15   0.441917D-01  0.224022D+00 -0.276105D+00  0.225763D+00 -0.155311D-01
     16   0.316705D-01 -0.154800D+00 -0.160641D+00  0.138169D-01 -0.848122D-01
               686           687           688           689           690 
      1  -0.146225D+03 -0.146215D+03 -0.146212D+03 -0.146182D+03 -0.146181D+03
      2  -0.318211D-01  0.258647D-01 -0.319865D-01  0.994293D-02 -0.403405D-01
      3   0.901602D-01  0.308696D-01  0.115284D-01 -0.152342D-01 -0.655934D-01
      4  -0.162643D-01 -0.729444D-02  0.427967D-02 -0.533096D-01 -0.318760D-01
      5   0.105265D+00 -0.856861D-01  0.974819D-01 -0.280051D-01  0.117960D+00
      6  -0.290709D+00 -0.980422D-01 -0.235716D-01  0.527153D-01  0.208750D+00
      7   0.565385D-01  0.198308D-01 -0.126733D-01  0.170149D+00  0.102301D+00
      8  -0.183936D-01 -0.158888D-01 -0.999553D-02 -0.543860D-01 -0.986744D-02
      9  -0.137725D+00 -0.551608D-01 -0.269905D-02  0.230475D+00 -0.248491D+00
     10  -0.110951D+00  0.307677D-01 -0.340391D+00  0.177984D-01  0.310449D+00
     11  -0.556253D+00 -0.182572D+00 -0.840257D+00 -0.368289D+00  0.950676D+00
     12  -0.173260D+00 -0.169869D+00 -0.202484D+00 -0.645939D-03 -0.854212D-01
     13   0.123933D-01  0.859272D-01  0.750789D-01 -0.333824D-01 -0.597405D-01
     14  -0.167208D+00 -0.620200D-01 -0.390186D+00  0.103697D+00  0.192593D+00
     15   0.133198D+00  0.100102D+00  0.556413D-01 -0.245933D+00  0.226957D+00
     16   0.560344D-01 -0.335531D-01 -0.178941D-01 -0.747312D-02 -0.901675D-01
               691           692           693           694           695 
      1  -0.146175D+03 -0.146159D+03 -0.146128D+03 -0.146122D+03 -0.146117D+03
      2  -0.173922D-01  0.612292D-01  0.671521D-02 -0.108149D+00  0.750503D-01
      3  -0.181432D-01  0.789273D-01  0.355481D-01 -0.400716D-01  0.143476D-01
      4   0.126608D-01  0.137081D-01  0.178851D-01  0.202393D-01 -0.556112D-02
      5   0.358432D-01 -0.226041D+00 -0.134441D-01  0.363787D+00 -0.267253D+00
      6   0.645097D-01 -0.257754D+00 -0.113651D+00  0.154275D+00 -0.417914D-01
      7  -0.332558D-01 -0.418152D-01 -0.655563D-01 -0.654257D-01  0.116786D-01
      8  -0.179452D-01  0.122773D-01  0.349204D-01  0.274661D-01 -0.229892D-01
      9  -0.228879D+00  0.156596D+00  0.622679D-01  0.941225D-01  0.182184D-01
     10   0.583688D-01  0.374226D+00  0.143311D+00  0.213277D+00 -0.695501D+00
     11   0.616696D-01  0.166086D+01  0.987132D-01 -0.777837D+00  0.271206D+00
     12  -0.814278D-02 -0.205875D-01 -0.657462D-01 -0.497171D-01  0.370540D-01
     13  -0.922629D-02 -0.158743D-01  0.227106D-01 -0.758173D-01 -0.127736D+00
     14   0.102609D+00  0.544098D+00  0.228795D+00  0.241989D+00 -0.516293D+00
     15   0.150969D+00 -0.183790D+00 -0.127054D+00 -0.103743D+00  0.353359D-01
     16  -0.172785D-01  0.284063D-01 -0.165567D+00 -0.287824D-01 -0.294532D-01
               696           697           698           699           700 
      1  -0.146109D+03 -0.146106D+03 -0.146100D+03 -0.146064D+03 -0.146031D+03
      2  -0.457755D-01 -0.689452D-02 -0.498264D-01 -0.224737D-01 -0.100956D-01
      3  -0.654419D-01 -0.459827D-01  0.852530D-01 -0.256256D-02 -0.573368D-01
      4  -0.143345D-02  0.374077D-02 -0.227848D-01 -0.133517D-01  0.169828D-01
      5   0.150186D+00  0.195337D-01  0.179522D+00  0.707122D-01  0.419498D-01
      6   0.218966D+00  0.156408D+00 -0.289194D+00  0.465129D-02  0.181705D+00
      7   0.404014D-02 -0.136794D-01  0.767141D-01  0.478594D-01 -0.516596D-01
      8  -0.186359D-01  0.249772D-01 -0.524788D-01 -0.238987D-01  0.360615D-01
      9   0.143588D-01  0.376792D-01 -0.158531D+00  0.235432D+00  0.139504D+00
     10  -0.764403D+00 -0.447484D+00 -0.248020D+00 -0.386655D-01  0.167279D+00
     11  -0.158545D+01  0.885878D-01  0.107030D+01  0.175690D+00  0.128416D+01
     12  -0.317406D-01  0.165916D+00  0.223264D+00 -0.570634D-02 -0.140909D-01
     13   0.112506D+00 -0.225034D+00  0.343910D-01  0.330432D-01 -0.118560D+00
     14  -0.103654D+01 -0.660499D+00 -0.314284D+00 -0.142792D+00  0.226276D+00
     15  -0.426316D-02 -0.594550D-01  0.597139D-01 -0.189131D+00 -0.207357D+00
     16  -0.289008D-03  0.508652D-01  0.567410D-01 -0.278463D-01 -0.401996D-02
               701           702           703           704           705 
      1  -0.146025D+03 -0.146017D+03 -0.146009D+03 -0.146004D+03 -0.145966D+03
      2   0.755248D-01  0.383228D-01 -0.861242D-02  0.217222D-01 -0.582353D-01
      3  -0.247972D-02  0.286707D-01 -0.178257D-01 -0.401372D-01 -0.225988D-01
      4  -0.704188D-02 -0.139110D-01 -0.150497D-03  0.103632D-01  0.112370D-01
      5  -0.282598D+00 -0.900733D-01  0.264633D-01 -0.615733D-01  0.197145D+00
      6   0.812781D-02 -0.100246D+00  0.469361D-01  0.131982D+00  0.827626D-01
      7   0.206722D-01  0.416751D-01 -0.868449D-02 -0.364393D-01 -0.441205D-01
      8  -0.238409D-01 -0.190140D-01 -0.230436D-01  0.140731D-01  0.185722D-01
      9  -0.982055D-02 -0.109887D+00 -0.821036D-01  0.797797D-01  0.996119D-01
     10  -0.639793D+00 -0.112212D+00  0.191307D+00 -0.199379D+00  0.362713D+00
     11   0.631263D-01  0.311825D-01  0.135651D+00 -0.367681D+00 -0.153303D+01
     12  -0.308709D+00 -0.664441D-01  0.453709D-01  0.204547D+00 -0.191245D+00
     13  -0.544226D-01  0.315965D-01 -0.292991D-02 -0.193856D+00 -0.224473D-01
     14  -0.677352D+00 -0.255143D+00  0.160925D+00 -0.269225D+00  0.381778D+00
     15   0.650724D-01  0.115551D+00  0.109015D+00 -0.397036D-01 -0.274155D-01
     16  -0.523425D-02  0.225043D-01 -0.615117D-01  0.338809D-01 -0.540523D-01
               706           707           708           709           710 
      1  -0.145926D+03 -0.145916D+03 -0.145904D+03 -0.145899D+03 -0.145867D+03
      2  -0.546819D-01 -0.135703D-01  0.735402D-02  0.222909D-01 -0.641078D-01
      3  -0.580667D-01 -0.228824D-01  0.534256D-01 -0.372515D-02  0.873840D-01
      4   0.570481D-02 -0.137746D-01  0.224401D-01  0.129480D-01 -0.784674D-02
      5   0.218111D+00  0.492138D-01 -0.495830D-01 -0.688571D-01  0.240380D+00
      6   0.202241D+00  0.699680D-01 -0.188073D+00 -0.162501D-02 -0.320601D+00
      7  -0.188217D-01  0.465391D-01 -0.760926D-01 -0.439922D-01  0.281839D-01
      8  -0.332779D-02 -0.140442D-01  0.189014D-01 -0.421360D-02 -0.335271D-01
      9   0.438245D-01 -0.109107D+00  0.157385D+00  0.937998D-01 -0.412759D-01
     10  -0.772435D+00  0.729461D-01 -0.178020D-01 -0.672067D+00 -0.425505D+00
     11   0.616176D+00 -0.154488D+00 -0.402765D+00 -0.149089D+00 -0.113251D+01
     12  -0.106350D+00  0.394162D-01  0.718784D-01  0.143902D+00  0.331970D+00
     13  -0.548866D-01  0.147212D+00 -0.667207D-01 -0.431819D-01  0.942983D-01
     14  -0.715727D+00 -0.430769D-01  0.122306D+00 -0.652199D+00 -0.443058D+00
     15  -0.103562D+00  0.763434D-01 -0.829704D-01 -0.550724D-01  0.249672D-01
     16   0.188968D-01 -0.232192D-01  0.592303D-01  0.676715D-01  0.884039D-01
               711           712           713           714           715 
      1  -0.145844D+03 -0.145829D+03 -0.145824D+03 -0.145816D+03 -0.145778D+03
      2   0.754555D-01 -0.666638D-01 -0.311238D-01 -0.575301D-01 -0.493488D-02
      3   0.393517D-01  0.248362D-01  0.278873D-01 -0.265512D-02  0.506343D-01
      4   0.270988D-01 -0.696071D-02 -0.726062D-02 -0.205468D-01 -0.465518D-02
      5  -0.280127D+00  0.264070D+00  0.111603D+00  0.188926D+00  0.177638D-01
      6  -0.135398D+00 -0.975073D-01 -0.114432D+00 -0.593316D-02 -0.192015D+00
      7  -0.912028D-01  0.223377D-01  0.266039D-01  0.700586D-01  0.139687D-01
      8   0.317102D-01 -0.249320D-02 -0.209131D-01 -0.223102D-01 -0.299893D-01
      9   0.200768D+00 -0.859679D-01 -0.541747D-01 -0.159818D+00 -0.502682D-01
     10  -0.713446D-02  0.306869D+00 -0.337616D+00  0.136834D+00 -0.670865D+00
     11  -0.793655D+00  0.111154D+01  0.934046D+00  0.436405D+00  0.549848D+00
     12   0.238889D+00 -0.177579D+00  0.181462D+00  0.103138D-01  0.216998D+00
     13  -0.685700D-01 -0.227500D-01 -0.540510D-01  0.142268D+00 -0.688663D-01
     14   0.183887D+00  0.968489D-01 -0.530912D+00  0.161397D+00 -0.485195D+00
     15  -0.783739D-01 -0.418194D-01 -0.340399D-01  0.784336D-01  0.431649D-01
     16   0.574081D-01 -0.266079D-01  0.619943D-01 -0.344928D-01  0.683555D-01
               716           717           718           719           720 
      1  -0.145736D+03 -0.145626D+03 -0.145571D+03 -0.145538D+03 -0.145483D+03
      2  -0.517198D-02 -0.267701D-01 -0.164252D-01  0.315567D-01  0.824074D-04
      3  -0.845321D-01  0.205052D-01 -0.457501D-01  0.409325D-02  0.143117D-01
      4   0.419043D-02 -0.283766D-02  0.394341D-03  0.315376D-02  0.119439D-02
      5   0.225952D-01  0.104930D+00  0.431160D-01 -0.787141D-01 -0.107478D-01
      6   0.271066D+00 -0.660778D-01  0.144713D+00 -0.261360D-01 -0.626315D-01
      7  -0.164300D-01  0.103484D-01 -0.117721D-02 -0.136736D-01 -0.414941D-02
      8   0.198953D-01  0.157292D-02  0.100923D-01  0.806834D-02 -0.956795D-02
      9   0.523166D-01 -0.178185D-01  0.107865D-01  0.430885D-01  0.155599D-01
     10   0.254954D+00  0.273763D+00  0.679365D-01  0.828975D-01 -0.464861D+00
     11   0.166994D+00 -0.363041D-01 -0.150465D+00 -0.727202D+00 -0.391854D+00
     12   0.161106D+00  0.139958D+00 -0.736060D-02  0.924637D-01  0.188289D+00
     13  -0.937335D-01  0.926524D-01 -0.419719D-02  0.512754D-01  0.102043D-02
     14   0.322453D+00  0.881059D-01 -0.378076D-01  0.139368D+00 -0.319574D+00
     15  -0.488116D-01 -0.198022D-01 -0.234938D-01  0.119945D-01  0.249918D-01
     16  -0.614776D-01  0.901796D-02 -0.331312D-01  0.183487D-01  0.728680D-01
 Unable to Open any file for archive entry.
 1\1\GINC-HEL23\SP\RBLYP TD-FC\Gen\C1H4N2\SABYASACHI\21-Mar-2022\0\\#P 
 TD(Nstates=10000) blyp/Gen SCF(maxcycles=100) Int(Grid=ultrafine)\\xGD
 B7_00001_tier4.com\\0,1\N,0,1.111035,-0.177046,-0.052467\C,0,-0.122009
 ,0.419593,0.001774\N,0,-1.267607,-0.121443,0.008098\H,0,1.920558,0.367
 802,0.180104\H,0,1.1807,-1.165617,0.115308\H,0,-0.065701,1.508813,0.00
 4046\H,0,-1.207497,-1.139126,0.000481\\Version=EM64L-G16RevC.01\State=
 1-A\HF=-149.8567015\RMSD=6.594e-09\PG=C01 [X(C1H4N2)]\\@
 The archive entry for this job was punched.


 FOR THE NATURE OF THE CHEMICAL BOND
 IS THE PROBLEM AT THE HEART OF ALL CHEMISTRY.

                     -- BRYCE CRAWFORD, JR., 1953
 Job cpu time:       0 days  0 hours 10 minutes 36.7 seconds.
 Elapsed time:       0 days  0 hours  1 minutes 20.0 seconds.
 File lengths (MBytes):  RWF=    259 Int=      0 D2E=      0 Chk=    150 Scr=      1
 Normal termination of Gaussian 16 at Mon Mar 21 19:59:58 2022.
