 Entering Gaussian System, Link 0=g16
 Input=000011.com
 Output=000011.log
 Initial command:
 /home/sabyasachi/g16/l1.exe "/scratch/sabyasachi/PBS_7975914.helios/Gau-140451.inp" -scrdir="/scratch/sabyasachi/PBS_7975914.helios/"
 Entering Link 1 = /home/sabyasachi/g16/l1.exe PID=    140452.
  
 Copyright (c) 1988-2019, Gaussian, Inc.  All Rights Reserved.
  
 This is part of the Gaussian(R) 16 program.  It is based on
 the Gaussian(R) 09 system (copyright 2009, Gaussian, Inc.),
 the Gaussian(R) 03 system (copyright 2003, Gaussian, Inc.),
 the Gaussian(R) 98 system (copyright 1998, Gaussian, Inc.),
 the Gaussian(R) 94 system (copyright 1995, Gaussian, Inc.),
 the Gaussian 92(TM) system (copyright 1992, Gaussian, Inc.),
 the Gaussian 90(TM) system (copyright 1990, Gaussian, Inc.),
 the Gaussian 88(TM) system (copyright 1988, Gaussian, Inc.),
 the Gaussian 86(TM) system (copyright 1986, Carnegie Mellon
 University), and the Gaussian 82(TM) system (copyright 1983,
 Carnegie Mellon University). Gaussian is a federally registered
 trademark of Gaussian, Inc.
  
 This software contains proprietary and confidential information,
 including trade secrets, belonging to Gaussian, Inc.
  
 This software is provided under written license and may be
 used, copied, transmitted, or stored only in accord with that
 written license.
  
 The following legend is applicable only to US Government
 contracts under FAR:
  
                    RESTRICTED RIGHTS LEGEND
  
 Use, reproduction and disclosure by the US Government is
 subject to restrictions as set forth in subparagraphs (a)
 and (c) of the Commercial Computer Software - Restricted
 Rights clause in FAR 52.227-19.
  
 Gaussian, Inc.
 340 Quinnipiac St., Bldg. 40, Wallingford CT 06492
  
  
 ---------------------------------------------------------------
 Warning -- This program may not be used in any manner that
 competes with the business of Gaussian, Inc. or will provide
 assistance to any competitor of Gaussian, Inc.  The licensee
 of this program is prohibited from giving any competitor of
 Gaussian, Inc. access to this program.  By using this program,
 the user acknowledges that Gaussian, Inc. is engaged in the
 business of creating and licensing software in the field of
 computational chemistry and represents and warrants to the
 licensee that it is not a competitor of Gaussian, Inc. and that
 it will not use this program in any manner prohibited above.
 ---------------------------------------------------------------
  

 Cite this work as:
 Gaussian 16, Revision C.01,
 M. J. Frisch, G. W. Trucks, H. B. Schlegel, G. E. Scuseria, 
 M. A. Robb, J. R. Cheeseman, G. Scalmani, V. Barone, 
 G. A. Petersson, H. Nakatsuji, X. Li, M. Caricato, A. V. Marenich, 
 J. Bloino, B. G. Janesko, R. Gomperts, B. Mennucci, H. P. Hratchian, 
 J. V. Ortiz, A. F. Izmaylov, J. L. Sonnenberg, D. Williams-Young, 
 F. Ding, F. Lipparini, F. Egidi, J. Goings, B. Peng, A. Petrone, 
 T. Henderson, D. Ranasinghe, V. G. Zakrzewski, J. Gao, N. Rega, 
 G. Zheng, W. Liang, M. Hada, M. Ehara, K. Toyota, R. Fukuda, 
 J. Hasegawa, M. Ishida, T. Nakajima, Y. Honda, O. Kitao, H. Nakai, 
 T. Vreven, K. Throssell, J. A. Montgomery, Jr., J. E. Peralta, 
 F. Ogliaro, M. J. Bearpark, J. J. Heyd, E. N. Brothers, K. N. Kudin, 
 V. N. Staroverov, T. A. Keith, R. Kobayashi, J. Normand, 
 K. Raghavachari, A. P. Rendell, J. C. Burant, S. S. Iyengar, 
 J. Tomasi, M. Cossi, J. M. Millam, M. Klene, C. Adamo, R. Cammi, 
 J. W. Ochterski, R. L. Martin, K. Morokuma, O. Farkas, 
 J. B. Foresman, and D. J. Fox, Gaussian, Inc., Wallingford CT, 2019.
 
 ******************************************
 Gaussian 16:  EM64L-G16RevC.01  3-Jul-2019
                21-Mar-2022 
 ******************************************
 %mem=64gb
 %nproc=8
 Will use up to    8 processors via shared memory.
 --------------------------------------------------------------------
 #P TD(Nstates=10000) blyp/Gen SCF(maxcycles=100) Int(Grid=ultrafine)
 --------------------------------------------------------------------
 1/38=1,172=1/1;
 2/12=2,17=6,18=5,40=1/2;
 3/5=7,11=9,25=1,30=1,74=402,75=-5/1,2,3,8;
 4//1;
 5/5=2,7=100,38=5/2;
 8/6=1,10=1,108=10000/1;
 9/41=10000,42=1,70=2/14;
 6/7=2,8=2,9=2,10=2/1;
 99/5=1,9=1/99;
 Leave Link    1 at Mon Mar 21 19:55:39 2022, MaxMem=  8589934592 cpu:               0.3 elap:               0.0
 (Enter /home/sabyasachi/g16/l101.exe)
 ---------------------
 xGDB7_00001_tier4.com
 ---------------------
 Symbolic Z-matrix:
 Charge =  0 Multiplicity = 1
 6                     0.        0.       -0.52427 
 8                     0.        0.        0.67079 
 1                     0.        0.93922  -1.11035 
 1                     0.       -0.93922  -1.11035 
 
 ITRead=  0  0  0  0
 MicOpt= -1 -1 -1 -1
 NAtoms=      4 NQM=        4 NQMF=       0 NMMI=      0 NMMIF=      0
                NMic=       0 NMicF=      0.
                    Isotopes and Nuclear Properties:
 (Nuclear quadrupole moments (NQMom) in fm**2, nuclear magnetic moments (NMagM)
  in nuclear magnetons)

  Atom         1           2           3           4
 IAtWgt=          12          16           1           1
 AtmWgt=  12.0000000  15.9949146   1.0078250   1.0078250
 NucSpn=           0           0           1           1
 AtZEff=  -0.0000000  -0.0000000  -0.0000000  -0.0000000
 NQMom=    0.0000000   0.0000000   0.0000000   0.0000000
 NMagM=    0.0000000   0.0000000   2.7928460   2.7928460
 AtZNuc=   6.0000000   8.0000000   1.0000000   1.0000000
 Leave Link  101 at Mon Mar 21 19:55:39 2022, MaxMem=  8589934592 cpu:               0.6 elap:               0.1
 (Enter /home/sabyasachi/g16/l202.exe)
                          Input orientation:                          
 ---------------------------------------------------------------------
 Center     Atomic      Atomic             Coordinates (Angstroms)
 Number     Number       Type             X           Y           Z
 ---------------------------------------------------------------------
      1          6           0        0.000000    0.000000   -0.524273
      2          8           0        0.000000    0.000000    0.670793
      3          1           0        0.000000    0.939221   -1.110351
      4          1           0        0.000000   -0.939221   -1.110351
 ---------------------------------------------------------------------
                    Distance matrix (angstroms):
                    1          2          3          4
     1  C    0.000000
     2  O    1.195066   0.000000
     3  H    1.107079   2.013606   0.000000
     4  H    1.107079   2.013606   1.878442   0.000000
 Stoichiometry    CH2O
 Framework group  C2V[C2(CO),SGV(H2)]
 Deg. of freedom     3
 Full point group                 C2V     NOp   4
 Largest Abelian subgroup         C2V     NOp   4
 Largest concise Abelian subgroup C2      NOp   2
                         Standard orientation:                         
 ---------------------------------------------------------------------
 Center     Atomic      Atomic             Coordinates (Angstroms)
 Number     Number       Type             X           Y           Z
 ---------------------------------------------------------------------
      1          6           0        0.000000    0.000000   -0.524273
      2          8           0        0.000000    0.000000    0.670793
      3          1           0        0.000000    0.939221   -1.110351
      4          1           0       -0.000000   -0.939221   -1.110351
 ---------------------------------------------------------------------
 Rotational constants (GHZ):         284.2277467          39.4234208          34.6213182
 Leave Link  202 at Mon Mar 21 19:55:39 2022, MaxMem=  8589934592 cpu:               0.1 elap:               0.0
 (Enter /home/sabyasachi/g16/l301.exe)
 General basis read from cards:  (5D, 7F)
 Centers:       3      4
 S 3 1.00
     Exponent=  1.3010701000D+01 Coefficients=  1.9682158000D-02
     Exponent=  1.9622572000D+00 Coefficients=  1.3796524000D-01
     Exponent=  4.4453796000D-01 Coefficients=  4.7831935000D-01
 S 1 1.00
     Exponent=  1.2194962000D-01 Coefficients=  1.0000000000D+00
 P 1 1.00
     Exponent=  8.0000000000D-01 Coefficients=  1.0000000000D+00
 P 1 1.00
     Exponent=  1.1704099050D-01 Coefficients=  1.0000000000D+00
 ****
 Centers:       1
 S 5 1.00
     Exponent=  1.2384016938D+03 Coefficients=  5.4568832082D-03
     Exponent=  1.8629004992D+02 Coefficients=  4.0638409211D-02
     Exponent=  4.2251176346D+01 Coefficients=  1.8025593888D-01
     Exponent=  1.1676557932D+01 Coefficients=  4.6315121755D-01
     Exponent=  3.5930506482D+00 Coefficients=  4.4087173314D-01
 S 1 1.00
     Exponent=  4.0245147363D-01 Coefficients=  1.0000000000D+00
 S 1 1.00
     Exponent=  1.3090182668D-01 Coefficients=  1.0000000000D+00
 S 1 1.00
     Exponent=  6.7053540256D-02 Coefficients=  1.0000000000D+00
 P 3 1.00
     Exponent=  9.4680970621D+00 Coefficients=  3.8387871728D-02
     Exponent=  2.0103545142D+00 Coefficients=  2.1117025112D-01
     Exponent=  5.4771004707D-01 Coefficients=  5.1328172114D-01
 P 1 1.00
     Exponent=  1.5268613795D-01 Coefficients=  1.0000000000D+00
 D 1 1.00
     Exponent=  8.0000000000D-01 Coefficients=  1.0000000000D+00
 D 1 1.00
     Exponent=  1.1713185140D-01 Coefficients=  1.0000000000D+00
 ****
 Centers:       2
 S 5 1.00
     Exponent=  2.2661767785D+03 Coefficients= -5.3431809926D-03
     Exponent=  3.4087010191D+02 Coefficients= -3.9890039230D-02
     Exponent=  7.7363135167D+01 Coefficients= -1.7853911985D-01
     Exponent=  2.1479644940D+01 Coefficients= -4.6427684959D-01
     Exponent=  6.6589433124D+00 Coefficients= -4.4309745172D-01
 S 1 1.00
     Exponent=  8.0975975668D-01 Coefficients=  1.0000000000D+00
 S 1 1.00
     Exponent=  2.5530772234D-01 Coefficients=  1.0000000000D+00
 S 1 1.00
     Exponent=  7.6572453250D-02 Coefficients=  1.0000000000D+00
 P 3 1.00
     Exponent=  1.7721504317D+01 Coefficients=  4.3394573193D-02
     Exponent=  3.8635505440D+00 Coefficients=  2.3094120765D-01
     Exponent=  1.0480920883D+00 Coefficients=  5.1375311064D-01
 P 1 1.00
     Exponent=  2.7641544411D-01 Coefficients=  1.0000000000D+00
 P 1 1.00
     Exponent=  6.9002276350D-02 Coefficients=  1.0000000000D+00
 D 1 1.00
     Exponent=  1.2000000000D+00 Coefficients=  1.0000000000D+00
 D 1 1.00
     Exponent=  1.7992024323D-01 Coefficients=  1.0000000000D+00
 ****
 Ernie: Thresh=  0.10000D-02 Tol=  0.10000D-05 Strict=F.
 There are    31 symmetry adapted cartesian basis functions of A1  symmetry.
 There are     6 symmetry adapted cartesian basis functions of A2  symmetry.
 There are    11 symmetry adapted cartesian basis functions of B1  symmetry.
 There are    15 symmetry adapted cartesian basis functions of B2  symmetry.
 There are    27 symmetry adapted basis functions of A1  symmetry.
 There are     6 symmetry adapted basis functions of A2  symmetry.
 There are    11 symmetry adapted basis functions of B1  symmetry.
 There are    15 symmetry adapted basis functions of B2  symmetry.
    59 basis functions,    87 primitive gaussians,    63 cartesian basis functions
     8 alpha electrons        8 beta electrons
       nuclear repulsion energy        31.4769322832 Hartrees.
 IExCor=  402 DFT=T Ex=B Corr=LYP ExCW=0 ScaHFX=  0.000000
 ScaDFX=  1.000000  1.000000  1.000000  1.000000 ScalE2=  1.000000  1.000000
 IRadAn=      5 IRanWt=     -1 IRanGd=            0 ICorTp=0 IEmpDi=  4
 NAtoms=    4 NActive=    4 NUniq=    3 SFac= 1.78D+00 NAtFMM=   60 NAOKFM=F Big=F
 Integral buffers will be    131072 words long.
 Regular integral format.
 Two-electron integral symmetry is turned on.
 Leave Link  301 at Mon Mar 21 19:55:39 2022, MaxMem=  8589934592 cpu:               0.6 elap:               0.1
 (Enter /home/sabyasachi/g16/l302.exe)
 NPDir=0 NMtPBC=     1 NCelOv=     1 NCel=       1 NClECP=     1 NCelD=      1
         NCelK=      1 NCelE2=     1 NClLst=     1 CellRange=     0.0.
 One-electron integrals computed using PRISM.
 One-electron integral symmetry used in STVInt
 NBasis=    59 RedAO= T EigKep=  7.06D-04  NBF=    27     6    11    15
 NBsUse=    59 1.00D-06 EigRej= -1.00D+00 NBFU=    27     6    11    15
 Precomputing XC quadrature grid using
 IXCGrd= 4 IRadAn=           5 IRanWt=          -1 IRanGd=           0 AccXCQ= 0.00D+00.
 Generated NRdTot=       0 NPtTot=           0 NUsed=           0 NTot=          32
 NSgBfM=    63    63    63    63    63 MxSgAt=     4 MxSgA2=     4.
 Leave Link  302 at Mon Mar 21 19:55:40 2022, MaxMem=  8589934592 cpu:               0.9 elap:               0.1
 (Enter /home/sabyasachi/g16/l303.exe)
 DipDrv:  MaxL=1.
 Leave Link  303 at Mon Mar 21 19:55:40 2022, MaxMem=  8589934592 cpu:               0.2 elap:               0.0
 (Enter /home/sabyasachi/g16/l308.exe)
 Leave Link  308 at Mon Mar 21 19:55:40 2022, MaxMem=  8589934592 cpu:               0.2 elap:               0.0
 (Enter /home/sabyasachi/g16/l401.exe)
 ExpMin= 6.71D-02 ExpMax= 2.27D+03 ExpMxC= 3.41D+02 IAcc=3 IRadAn=         5 AccDes= 0.00D+00
 Harris functional with IExCor=  402 and IRadAn=       5 diagonalized for initial guess.
 HarFok:  IExCor=  402 AccDes= 0.00D+00 IRadAn=         5 IDoV= 1 UseB2=F ITyADJ=14
 ICtDFT=  3500011 ScaDFX=  1.000000  1.000000  1.000000  1.000000
 FoFCou: FMM=F IPFlag=           0 FMFlag=      100000 FMFlg1=           0
         NFxFlg=           0 DoJE=T BraDBF=F KetDBF=T FulRan=T
         wScrn=  0.000000 ICntrl=       500 IOpCl=  0 I1Cent=   200000004 NGrid=           0
         NMat0=    1 NMatS0=      1 NMatT0=    0 NMatD0=    1 NMtDS0=    0 NMtDT0=    0
 Petite list used in FoFCou.
 Harris En= -114.431367609578    
 JPrj=0 DoOrth=F DoCkMO=F.
 Initial guess orbital symmetries:
       Occupied  (A1) (A1) (A1) (A1) (B2) (A1) (B1) (B2)
       Virtual   (B1) (A1) (A1) (B2) (B1) (A1) (A1) (B2) (A2) (B1)
                 (A1) (B2) (A1) (B2) (A1) (A1) (A2) (B1) (B2) (A1)
                 (A1) (B2) (B1) (A1) (A2) (B1) (A1) (B2) (A1) (A1)
                 (B2) (B1) (A2) (A1) (B2) (B1) (B2) (A1) (A1) (B2)
                 (A1) (B1) (A2) (A1) (B2) (A1) (A2) (A1) (B1) (B2)
                 (A1)
 The electronic state of the initial guess is 1-A1.
 Leave Link  401 at Mon Mar 21 19:55:40 2022, MaxMem=  8589934592 cpu:               1.3 elap:               0.2
 (Enter /home/sabyasachi/g16/l502.exe)
 Keep J ints in memory in symmetry-blocked form, NReq=8655413.
 FoFCou: FMM=F IPFlag=           0 FMFlag=           0 FMFlg1=           0
         NFxFlg=           0 DoJE=F BraDBF=F KetDBF=F FulRan=T
         wScrn=  0.000000 ICntrl=       600 IOpCl=  0 I1Cent=           0 NGrid=           0
         NMat0=    1 NMatS0=   1770 NMatT0=    0 NMatD0=    1 NMtDS0=    0 NMtDT0=    0
 Petite list used in FoFCou.
 Closed shell SCF:
 Using DIIS extrapolation, IDIIS=  1040.
 NGot=  8589934592 LenX=  8589508245 LenY=  8589503835
 Requested convergence on RMS density matrix=1.00D-08 within 100 cycles.
 Requested convergence on MAX density matrix=1.00D-06.
 Requested convergence on             energy=1.00D-06.
 No special actions if energy rises.
 Integral accuracy reduced to 1.0D-05 until final iterations.

 Cycle   1  Pass 0  IDiag  1:
 E= -114.351571421438    
 DIIS: error= 3.35D-02 at cycle   1 NSaved=   1.
 NSaved= 1 IEnMin= 1 EnMin= -114.351571421438     IErMin= 1 ErrMin= 3.35D-02
 ErrMax= 3.35D-02  0.00D+00 EMaxC= 1.00D-01 BMatC= 5.32D-02 BMatP= 5.32D-02
 IDIUse=3 WtCom= 6.65D-01 WtEn= 3.35D-01
 Coeff-Com:  0.100D+01
 Coeff-En:   0.100D+01
 Coeff:      0.100D+01
 Gap=     0.084 Goal=   None    Shift=    0.000
 GapD=    0.084 DampG=0.500 DampE=0.500 DampFc=0.2500 IDamp=-1.
 Damping current iteration by 2.50D-01
 RMSDP=9.47D-03 MaxDP=2.00D-01              OVMax= 3.47D-01

 Cycle   2  Pass 0  IDiag  1:
 E= -114.362584795994     Delta-E=       -0.011013374556 Rises=F Damp=T
 DIIS: error= 1.03D-02 at cycle   2 NSaved=   2.
 NSaved= 2 IEnMin= 2 EnMin= -114.362584795994     IErMin= 2 ErrMin= 1.03D-02
 ErrMax= 1.03D-02  0.00D+00 EMaxC= 1.00D-01 BMatC= 3.19D-03 BMatP= 5.32D-02
 IDIUse=3 WtCom= 8.97D-01 WtEn= 1.03D-01
 Coeff-Com: -0.120D-01 0.101D+01
 Coeff-En:   0.320D+00 0.680D+00
 Coeff:      0.223D-01 0.978D+00
 Gap=     0.125 Goal=   None    Shift=    0.000
 RMSDP=2.30D-03 MaxDP=3.98D-02 DE=-1.10D-02 OVMax= 2.82D-01

 Cycle   3  Pass 0  IDiag  1:
 E= -114.395370896308     Delta-E=       -0.032786100315 Rises=F Damp=F
 DIIS: error= 1.06D-02 at cycle   3 NSaved=   3.
 NSaved= 3 IEnMin= 3 EnMin= -114.395370896308     IErMin= 2 ErrMin= 1.03D-02
 ErrMax= 1.06D-02  0.00D+00 EMaxC= 1.00D-01 BMatC= 3.48D-03 BMatP= 3.19D-03
 IDIUse=3 WtCom= 8.94D-01 WtEn= 1.06D-01
 Coeff-Com: -0.350D-01 0.541D+00 0.494D+00
 Coeff-En:   0.000D+00 0.000D+00 0.100D+01
 Coeff:     -0.313D-01 0.484D+00 0.548D+00
 Gap=     0.134 Goal=   None    Shift=    0.000
 RMSDP=1.23D-03 MaxDP=2.86D-02 DE=-3.28D-02 OVMax= 3.10D-02

 Cycle   4  Pass 0  IDiag  1:
 E= -114.398795177798     Delta-E=       -0.003424281489 Rises=F Damp=F
 DIIS: error= 2.86D-03 at cycle   4 NSaved=   4.
 NSaved= 4 IEnMin= 4 EnMin= -114.398795177798     IErMin= 4 ErrMin= 2.86D-03
 ErrMax= 2.86D-03  0.00D+00 EMaxC= 1.00D-01 BMatC= 3.90D-04 BMatP= 3.19D-03
 IDIUse=3 WtCom= 9.71D-01 WtEn= 2.86D-02
 Coeff-Com:  0.504D-02 0.853D-01 0.265D+00 0.645D+00
 Coeff-En:   0.000D+00 0.000D+00 0.530D-01 0.947D+00
 Coeff:      0.489D-02 0.828D-01 0.259D+00 0.653D+00
 Gap=     0.136 Goal=   None    Shift=    0.000
 RMSDP=3.13D-04 MaxDP=6.89D-03 DE=-3.42D-03 OVMax= 7.06D-03

 Cycle   5  Pass 0  IDiag  1:
 E= -114.399166804170     Delta-E=       -0.000371626372 Rises=F Damp=F
 DIIS: error= 2.15D-04 at cycle   5 NSaved=   5.
 NSaved= 5 IEnMin= 5 EnMin= -114.399166804170     IErMin= 5 ErrMin= 2.15D-04
 ErrMax= 2.15D-04  0.00D+00 EMaxC= 1.00D-01 BMatC= 2.12D-06 BMatP= 3.90D-04
 IDIUse=3 WtCom= 9.98D-01 WtEn= 2.15D-03
 Coeff-Com:  0.484D-02 0.191D-02 0.472D-01 0.158D+00 0.788D+00
 Coeff-En:   0.000D+00 0.000D+00 0.000D+00 0.000D+00 0.100D+01
 Coeff:      0.483D-02 0.191D-02 0.471D-01 0.158D+00 0.788D+00
 Gap=     0.136 Goal=   None    Shift=    0.000
 RMSDP=3.43D-05 MaxDP=4.06D-04 DE=-3.72D-04 OVMax= 5.64D-04

 Cycle   6  Pass 0  IDiag  1:
 E= -114.399169029269     Delta-E=       -0.000002225099 Rises=F Damp=F
 DIIS: error= 8.79D-06 at cycle   6 NSaved=   6.
 NSaved= 6 IEnMin= 6 EnMin= -114.399169029269     IErMin= 6 ErrMin= 8.79D-06
 ErrMax= 8.79D-06  0.00D+00 EMaxC= 1.00D-01 BMatC= 7.37D-09 BMatP= 2.12D-06
 IDIUse=1 WtCom= 1.00D+00 WtEn= 0.00D+00
 Coeff-Com:  0.666D-03-0.751D-03 0.350D-02 0.166D-01 0.116D+00 0.863D+00
 Coeff:      0.666D-03-0.751D-03 0.350D-02 0.166D-01 0.116D+00 0.863D+00
 Gap=     0.136 Goal=   None    Shift=    0.000
 RMSDP=2.09D-06 MaxDP=2.52D-05 DE=-2.23D-06 OVMax= 3.72D-05

 Initial convergence to 1.0D-05 achieved.  Increase integral accuracy.
 Cycle   7  Pass 1  IDiag  1:
 E= -114.399170105567     Delta-E=       -0.000001076299 Rises=F Damp=F
 DIIS: error= 1.38D-06 at cycle   1 NSaved=   1.
 NSaved= 1 IEnMin= 1 EnMin= -114.399170105567     IErMin= 1 ErrMin= 1.38D-06
 ErrMax= 1.38D-06  0.00D+00 EMaxC= 1.00D-01 BMatC= 1.84D-10 BMatP= 1.84D-10
 IDIUse=1 WtCom= 1.00D+00 WtEn= 0.00D+00
 Coeff-Com:  0.100D+01
 Coeff:      0.100D+01
 Gap=     0.136 Goal=   None    Shift=    0.000
 RMSDP=2.09D-06 MaxDP=2.52D-05 DE=-1.08D-06 OVMax= 7.31D-06

 Cycle   8  Pass 1  IDiag  1:
 E= -114.399170105585     Delta-E=       -0.000000000017 Rises=F Damp=F
 DIIS: error= 2.30D-06 at cycle   2 NSaved=   2.
 NSaved= 2 IEnMin= 2 EnMin= -114.399170105585     IErMin= 1 ErrMin= 1.38D-06
 ErrMax= 2.30D-06  0.00D+00 EMaxC= 1.00D-01 BMatC= 2.46D-10 BMatP= 1.84D-10
 IDIUse=1 WtCom= 1.00D+00 WtEn= 0.00D+00
 Coeff-Com:  0.543D+00 0.457D+00
 Coeff:      0.543D+00 0.457D+00
 Gap=     0.136 Goal=   None    Shift=    0.000
 RMSDP=2.59D-07 MaxDP=6.27D-06 DE=-1.74D-11 OVMax= 9.89D-06

 Cycle   9  Pass 1  IDiag  1:
 E= -114.399170105673     Delta-E=       -0.000000000089 Rises=F Damp=F
 DIIS: error= 1.71D-06 at cycle   3 NSaved=   3.
 NSaved= 3 IEnMin= 3 EnMin= -114.399170105673     IErMin= 1 ErrMin= 1.38D-06
 ErrMax= 1.71D-06  0.00D+00 EMaxC= 1.00D-01 BMatC= 1.24D-10 BMatP= 1.84D-10
 IDIUse=1 WtCom= 1.00D+00 WtEn= 0.00D+00
 Coeff-Com:  0.207D+00 0.390D+00 0.403D+00
 Coeff:      0.207D+00 0.390D+00 0.403D+00
 Gap=     0.136 Goal=   None    Shift=    0.000
 RMSDP=1.30D-07 MaxDP=3.06D-06 DE=-8.86D-11 OVMax= 5.68D-06

 Cycle  10  Pass 1  IDiag  1:
 E= -114.399170105770     Delta-E=       -0.000000000097 Rises=F Damp=F
 DIIS: error= 3.41D-07 at cycle   4 NSaved=   4.
 NSaved= 4 IEnMin= 4 EnMin= -114.399170105770     IErMin= 4 ErrMin= 3.41D-07
 ErrMax= 3.41D-07  0.00D+00 EMaxC= 1.00D-01 BMatC= 4.57D-12 BMatP= 1.24D-10
 IDIUse=1 WtCom= 1.00D+00 WtEn= 0.00D+00
 Coeff-Com:  0.342D-01 0.160D+00 0.231D+00 0.574D+00
 Coeff:      0.342D-01 0.160D+00 0.231D+00 0.574D+00
 Gap=     0.136 Goal=   None    Shift=    0.000
 RMSDP=3.74D-08 MaxDP=8.84D-07 DE=-9.69D-11 OVMax= 7.83D-07

 Cycle  11  Pass 1  IDiag  1:
 E= -114.399170105774     Delta-E=       -0.000000000004 Rises=F Damp=F
 DIIS: error= 3.70D-08 at cycle   5 NSaved=   5.
 NSaved= 5 IEnMin= 5 EnMin= -114.399170105774     IErMin= 5 ErrMin= 3.70D-08
 ErrMax= 3.70D-08  0.00D+00 EMaxC= 1.00D-01 BMatC= 8.02D-14 BMatP= 4.57D-12
 IDIUse=1 WtCom= 1.00D+00 WtEn= 0.00D+00
 Coeff-Com: -0.671D-03 0.301D-01 0.590D-01 0.196D+00 0.715D+00
 Coeff:     -0.671D-03 0.301D-01 0.590D-01 0.196D+00 0.715D+00
 Gap=     0.136 Goal=   None    Shift=    0.000
 RMSDP=5.47D-09 MaxDP=1.04D-07 DE=-3.78D-12 OVMax= 1.17D-07

 SCF Done:  E(RB-LYP) =  -114.399170106     A.U. after   11 cycles
            NFock= 11  Conv=0.55D-08     -V/T= 2.0085
 KE= 1.134372688131D+02 PE=-3.309908712021D+02 EE= 7.167750000002D+01
 Leave Link  502 at Mon Mar 21 19:55:40 2022, MaxMem=  8589934592 cpu:               2.8 elap:               0.4
 (Enter /home/sabyasachi/g16/l801.exe)
 DoSCS=F DFT=T ScalE2(SS,OS)=  1.000000  1.000000
 ExpMin= 6.71D-02 ExpMax= 2.27D+03 ExpMxC= 3.41D+02 IAcc=3 IRadAn=         5 AccDes= 0.00D+00
 HarFok:  IExCor=  205 AccDes= 0.00D+00 IRadAn=         5 IDoV=-2 UseB2=F ITyADJ=14
 ICtDFT= 12500011 ScaDFX=  1.000000  1.000000  1.000000  1.000000
 Largest valence mixing into a core orbital is  6.54D-05
 Largest core mixing into a valence orbital is  1.05D-05
 Range of M.O.s used for correlation:     3    59
 NBasis=    59 NAE=     8 NBE=     8 NFC=     2 NFV=     0
 NROrb=     57 NOA=     6 NOB=     6 NVA=    51 NVB=    51

 **** Warning!!: The largest alpha MO coefficient is  0.17583050D+02

 Leave Link  801 at Mon Mar 21 19:55:40 2022, MaxMem=  8589934592 cpu:               0.4 elap:               0.1
 (Enter /home/sabyasachi/g16/l914.exe)
 RHF ground state
 Keep J ints in memory in symmetry-blocked form, NReq=123723553.
 FoFCou: FMM=F IPFlag=           0 FMFlag=           0 FMFlg1=           0
         NFxFlg=           0 DoJE=F BraDBF=F KetDBF=F FulRan=T
         wScrn=  0.000000 ICntrl=       600 IOpCl=  0 I1Cent=           0 NGrid=           0
         NMat0=    1 NMatS0=   1770 NMatT0=    0 NMatD0=    1 NMtDS0=    0 NMtDT0=    0
 Petite list used in FoFCou.
 MDV=  8589934592 DFT=T DoStab=F Mixed=F DoRPA=T DoScal=T NonHer=F
 Making orbital integer symmetry assigments:
 Orbital symmetries:
       Occupied  (A1) (A1) (A1) (A1) (B2) (A1) (B1) (B2)
       Virtual   (B1) (A1) (B2) (A1) (B1) (A1) (A1) (B2) (A2) (B1)
                 (A1) (B2) (A1) (B2) (A1) (A2) (B1) (A1) (B2) (A1)
                 (B2) (A1) (B1) (A1) (A2) (B1) (A1) (B2) (A1) (A1)
                 (B2) (B1) (A2) (A1) (B2) (B1) (B2) (A1) (A1) (B2)
                 (A1) (B1) (A2) (A1) (B2) (A1) (A2) (A1) (B1) (B2)
                 (A1)
   306 initial guesses have been made.
 Convergence on wavefunction:    0.001000000000000
 Davidson Disk Diagonalization:  ConvIn= 1.00D-03 SkipCon=T Conv= 1.00D-03.
 Max sub-space:  1224 roots to seek:   612 dimension of matrix:          612
 *** WARNING: Number of orthogonal guesses is          306
 Iteration     1 Dimension   306 NMult     0 NNew    306
 CISAX will form   306 AO SS matrices at one time.
 NMat=   306 NSing=   306 JSym2X=-1.
 New state      3 was old state      4
 New state      4 was old state      5
 New state      5 was old state      7
 New state      7 was old state      8
 New state      8 was old state      3
 New state     11 was old state     12
 New state     12 was old state     11
 New state     19 was old state     20
 New state     20 was old state     19
 New state     22 was old state     23
 New state     23 was old state     24
 New state     24 was old state     25
 New state     25 was old state     26
 New state     26 was old state     27
 New state     27 was old state     28
 New state     28 was old state     30
 New state     29 was old state     31
 New state     30 was old state     29
 New state     31 was old state     32
 New state     32 was old state     22
 New state     33 was old state     35
 New state     34 was old state     33
 New state     35 was old state     34
 New state     37 was old state     39
 New state     39 was old state     37
 New state     40 was old state     41
 New state     41 was old state     42
 New state     42 was old state     45
 New state     43 was old state     40
 New state     44 was old state     43
 New state     45 was old state     47
 New state     47 was old state     44
 New state     51 was old state     52
 New state     52 was old state     51
 New state     56 was old state     57
 New state     57 was old state     56
 New state     58 was old state     60
 New state     60 was old state     62
 New state     61 was old state     64
 New state     62 was old state     63
 New state     63 was old state     61
 New state     64 was old state     65
 New state     65 was old state     67
 New state     66 was old state     58
 New state     67 was old state     66
 New state     68 was old state     69
 New state     69 was old state     68
 New state     70 was old state     71
 New state     71 was old state     70
 New state     74 was old state     76
 New state     75 was old state     74
 New state     76 was old state     75
 New state     77 was old state     78
 New state     78 was old state     79
 New state     79 was old state     77
 New state     81 was old state     82
 New state     82 was old state     83
 New state     83 was old state     81
 New state     84 was old state     85
 New state     85 was old state     87
 New state     87 was old state     88
 New state     88 was old state     84
 New state     89 was old state     91
 New state     90 was old state     92
 New state     91 was old state     90
 New state     92 was old state     93
 New state     93 was old state     89
 New state     94 was old state     95
 New state     95 was old state     94
 New state     96 was old state     99
 New state     98 was old state    101
 New state     99 was old state     98
 New state    100 was old state    102
 New state    101 was old state    103
 New state    102 was old state    100
 New state    103 was old state     96
 New state    104 was old state    105
 New state    105 was old state    104
 New state    107 was old state    111
 New state    108 was old state    107
 New state    109 was old state    110
 New state    110 was old state    108
 New state    111 was old state    114
 New state    112 was old state    109
 New state    114 was old state    115
 New state    115 was old state    116
 New state    116 was old state    117
 New state    117 was old state    112
 New state    118 was old state    119
 New state    119 was old state    118
 New state    122 was old state    124
 New state    124 was old state    122
 New state    125 was old state    126
 New state    126 was old state    125
 New state    127 was old state    128
 New state    128 was old state    127
 New state    129 was old state    130
 New state    130 was old state    131
 New state    131 was old state    132
 New state    132 was old state    129
 New state    133 was old state    138
 New state    135 was old state    133
 New state    136 was old state    135
 New state    138 was old state    136
 New state    143 was old state    144
 New state    144 was old state    143
 New state    146 was old state    147
 New state    147 was old state    146
 New state    149 was old state    150
 New state    150 was old state    149
 New state    153 was old state    155
 New state    155 was old state    156
 New state    156 was old state    157
 New state    157 was old state    159
 New state    159 was old state    153
 New state    162 was old state    163
 New state    163 was old state    165
 New state    164 was old state    166
 New state    165 was old state    162
 New state    166 was old state    164
 New state    167 was old state    169
 New state    169 was old state    167
 New state    172 was old state    173
 New state    173 was old state    174
 New state    174 was old state    172
 New state    180 was old state    181
 New state    181 was old state    180
 New state    183 was old state    184
 New state    184 was old state    185
 New state    185 was old state    183
 New state    189 was old state    190
 New state    190 was old state    189
 New state    191 was old state    192
 New state    192 was old state    191
 New state    195 was old state    198
 New state    196 was old state    197
 New state    197 was old state    199
 New state    198 was old state    201
 New state    199 was old state    195
 New state    201 was old state    203
 New state    202 was old state    205
 New state    203 was old state    202
 New state    205 was old state    209
 New state    206 was old state    207
 New state    207 was old state    208
 New state    208 was old state    206
 New state    209 was old state    210
 New state    210 was old state    211
 New state    211 was old state    212
 New state    212 was old state    213
 New state    213 was old state    214
 New state    214 was old state    215
 New state    215 was old state    217
 New state    217 was old state    218
 New state    218 was old state    223
 New state    219 was old state    221
 New state    221 was old state    219
 New state    223 was old state    224
 New state    224 was old state    229
 New state    228 was old state    230
 New state    229 was old state    228
 New state    230 was old state    235
 New state    231 was old state    232
 New state    232 was old state    233
 New state    233 was old state    231
 New state    235 was old state    236
 New state    236 was old state    237
 New state    237 was old state    240
 New state    238 was old state    239
 New state    239 was old state    238
 New state    240 was old state    242
 No map to state    242
 New state    252 was old state    253
 New state    253 was old state    252
 New state    254 was old state    255
 New state    255 was old state    254
 New state    258 was old state    259
 New state    259 was old state    262
 New state    262 was old state    258
 New state    265 was old state    266
 New state    266 was old state    267
 New state    267 was old state    268
 New state    268 was old state    269
 New state    269 was old state    271
 New state    271 was old state    272
 New state    272 was old state    265
 New state    273 was old state    275
 New state    275 was old state    276
 New state    276 was old state    277
 New state    277 was old state    278
 New state    278 was old state    279
 New state    279 was old state    273
 New state    286 was old state    287
 New state    287 was old state    288
 New state    288 was old state    286
 New state    290 was old state    292
 New state    291 was old state    290
 New state    292 was old state    291
 New state    293 was old state    294
 New state    294 was old state    293
 New state    296 was old state    297
 New state    297 was old state    296
 New state    301 was old state    303
 New state    303 was old state    301
 Excitation Energies [eV] at current iteration:
 Root      1 :     3.921733494716204
 Root      2 :     6.430793589534516
 Root      3 :     8.024054782699684
 Root      4 :     8.090733259031675
 Root      5 :     8.725109344135939
 Root      6 :     8.906913757280826
 Root      7 :     9.287083504721293
 Root      8 :     9.456069389232564
 Root      9 :     9.844061312511377
 Root     10 :    10.003544289830690
 Root     11 :    10.286857251650600
 Root     12 :    10.844781484271860
 Root     13 :    10.993366344120470
 Root     14 :    11.384479532043480
 Root     15 :    11.781135289151200
 Root     16 :    11.840117498898960
 Root     17 :    12.023314708585560
 Root     18 :    12.472913451669050
 Root     19 :    12.711756716336890
 Root     20 :    12.772154212473150
 Root     21 :    12.915794692262300
 Root     22 :    13.074448297365960
 Root     23 :    13.466421414048930
 Root     24 :    13.546944834936390
 Root     25 :    13.622191887739130
 Root     26 :    13.821577506806570
 Root     27 :    13.859945425630040
 Root     28 :    14.011177676787940
 Root     29 :    14.060465148741870
 Root     30 :    14.330271119295920
 Root     31 :    14.418041353904560
 Root     32 :    14.484831364789520
 Root     33 :    14.707070356190630
 Root     34 :    14.732554750459510
 Root     35 :    14.742206197356440
 Root     36 :    14.888935240191070
 Root     37 :    15.325229255022510
 Root     38 :    15.487150217898340
 Root     39 :    15.595548621202340
 Root     40 :    15.701378892265830
 Root     41 :    15.852574956807160
 Root     42 :    15.925139721455590
 Root     43 :    15.943603582305850
 Root     44 :    16.140563018590080
 Root     45 :    16.528687457709860
 Root     46 :    16.591824779381890
 Root     47 :    16.740795280786260
 Root     48 :    16.746042331813110
 Root     49 :    17.268363439024470
 Root     50 :    17.358339887756680
 Root     51 :    17.452585028590380
 Root     52 :    17.459481387949580
 Root     53 :    17.639043934098570
 Root     54 :    17.750377289293100
 Root     55 :    18.039202067862390
 Root     56 :    18.292148437763580
 Root     57 :    18.303841849433400
 Root     58 :    18.511882584393710
 Root     59 :    18.658296432249750
 Root     60 :    19.007600993865940
 Root     61 :    19.167707725947110
 Root     62 :    19.276086343640100
 Root     63 :    19.309282608962940
 Root     64 :    19.439850944024530
 Root     65 :    19.524510438833000
 Root     66 :    19.570243353261920
 Root     67 :    19.760951868358370
 Root     68 :    19.833412332093870
 Root     69 :    19.852575761992020
 Root     70 :    20.083824109912340
 Root     71 :    20.159706971201260
 Root     72 :    20.305522562093180
 Root     73 :    20.410420491376720
 Root     74 :    20.644504569509550
 Root     75 :    20.647568893302900
 Root     76 :    20.731804061081950
 Root     77 :    20.947915904587530
 Root     78 :    20.968914838948680
 Root     79 :    21.081724112545300
 Root     80 :    21.122196835441290
 Root     81 :    21.352265422624160
 Root     82 :    21.392903212820720
 Root     83 :    21.863673503793190
 Root     84 :    21.979410083453010
 Root     85 :    22.159121242137820
 Root     86 :    22.266179031923780
 Root     87 :    22.505876883573820
 Root     88 :    22.712752455972680
 Root     89 :    23.023658204910220
 Root     90 :    23.150083889245180
 Root     91 :    23.224534938695070
 Root     92 :    23.367954589842370
 Root     93 :    23.434135786924290
 Root     94 :    23.703917754805930
 Root     95 :    24.127206655876290
 Root     96 :    24.213805763259090
 Root     97 :    24.473756683489200
 Root     98 :    24.552216678356470
 Root     99 :    24.594705388097370
 Root    100 :    24.662621231975480
 Root    101 :    24.732980683877900
 Root    102 :    24.801794508097070
 Root    103 :    24.995182547158290
 Root    104 :    25.129846908876090
 Root    105 :    25.295907956927720
 Root    106 :    25.527638422494920
 Root    107 :    25.698688941333020
 Root    108 :    25.804610476666910
 Root    109 :    25.873744064837680
 Root    110 :    26.301529646540850
 Root    111 :    26.529540903618560
 Root    112 :    26.573734609957370
 Root    113 :    26.614884734037210
 Root    114 :    26.696008916312290
 Root    115 :    26.865078501453030
 Root    116 :    26.949636250131270
 Root    117 :    27.357260533761710
 Root    118 :    27.543298392075730
 Root    119 :    27.659326659179620
 Root    120 :    28.048323614502430
 Root    121 :    28.252326273305150
 Root    122 :    28.305670003734000
 Root    123 :    28.509527986074010
 Root    124 :    28.676738049243440
 Root    125 :    28.824716966348860
 Root    126 :    28.923867164432560
 Root    127 :    28.942490699315160
 Root    128 :    29.078174170721740
 Root    129 :    29.388559604029310
 Root    130 :    29.392169187585100
 Root    131 :    29.624517604650520
 Root    132 :    29.834939498713450
 Root    133 :    30.102943613755350
 Root    134 :    30.195774453897490
 Root    135 :    30.224467913341870
 Root    136 :    30.283775158447470
 Root    137 :    30.308341565858850
 Root    138 :    30.411966555766170
 Root    139 :    31.205990511014860
 Root    140 :    31.252141180433100
 Root    141 :    32.179437451787540
 Root    142 :    32.386655742058060
 Root    143 :    32.806948528804430
 Root    144 :    32.868172800030650
 Root    145 :    33.079204373230160
 Root    146 :    33.178900279356160
 Root    147 :    33.525760837091250
 Root    148 :    33.559491310094560
 Root    149 :    33.785625525802010
 Root    150 :    33.791209143441150
 Root    151 :    33.875629890125080
 Root    152 :    33.985718276850610
 Root    153 :    34.610379675023030
 Root    154 :    34.875094796728920
 Root    155 :    35.226939928057590
 Root    156 :    35.388011303286590
 Root    157 :    35.613020484994270
 Root    158 :    35.697392462899110
 Root    159 :    36.135146200532130
 Root    160 :    36.194196875436890
 Root    161 :    36.867236316820030
 Root    162 :    37.007453701433630
 Root    163 :    37.585753757385110
 Root    164 :    37.788225007855440
 Root    165 :    38.139475274292470
 Root    166 :    38.232900736441910
 Root    167 :    38.459931744161080
 Root    168 :    38.666954512754910
 Root    169 :    38.798626258328160
 Root    170 :    39.193346317867530
 Root    171 :    39.263099367986170
 Root    172 :    40.167858658516020
 Root    173 :    40.331811164860970
 Root    174 :    40.593465555088290
 Root    175 :    41.120315071600390
 Root    176 :    41.433411561642440
 Root    177 :    41.475925901557600
 Root    178 :    42.193941834307960
 Root    179 :    42.283113337992480
 Root    180 :    43.352087970371040
 Root    181 :    43.787823014321520
 Root    182 :    43.876051828231430
 Root    183 :    44.492158958508680
 Root    184 :    44.680266254506880
 Root    185 :    45.000802190383340
 Root    186 :    45.166807017718200
 Root    187 :    46.186213491110490
 Root    188 :    46.305110294874420
 Root    189 :    46.669870878771410
 Root    190 :    48.000017276466910
 Root    191 :    48.423313191381770
 Root    192 :    48.715690291009960
 Root    193 :    48.824656208797660
 Root    194 :    49.267858606623090
 Root    195 :    49.906877124646450
 Root    196 :    50.033627878436730
 Root    197 :    50.257840106874010
 Root    198 :    50.414700610872910
 Root    199 :    50.586458050162500
 Root    200 :    50.637098981129120
 Root    201 :    51.321346341746380
 Root    202 :    51.713149270147660
 Root    203 :    51.837896251340530
 Root    204 :    51.844204288763400
 Root    205 :    53.198290428734410
 Root    206 :    53.721026963707710
 Root    207 :    53.789764405305780
 Root    208 :    54.005220901540480
 Root    209 :    54.024452426759670
 Root    210 :    54.091177895918380
 Root    211 :    54.754619699894360
 Root    212 :    55.082368109775260
 Root    213 :    55.779223301030040
 Root    214 :    55.926024199401580
 Root    215 :    55.979813571177620
 Root    216 :    55.983606212592280
 Root    217 :    56.456744375480060
 Root    218 :    56.701069172966220
 Root    219 :    57.546109083876240
 Root    220 :    57.588467093290350
 Root    221 :    57.784685673565450
 Root    222 :    57.935464202064100
 Root    223 :    58.360929384089080
 Root    224 :    59.259770553368570
 Root    225 :    59.417683013636940
 Root    226 :    59.748552872628390
 Root    227 :    59.955333996360570
 Root    228 :    60.737948301322090
 Root    229 :    60.962421395875990
 Root    230 :    61.079803151626590
 Root    231 :    61.892092741553010
 Root    232 :    62.231913264274490
 Root    233 :    62.276734192977240
 Root    234 :    62.342623329124400
 Root    235 :    62.928983722253020
 Root    236 :    63.364639509865040
 Root    237 :    63.738994751633960
 Root    238 :    63.802226156273720
 Root    239 :    64.078073085760720
 Root    240 :    64.177025304962810
 Root    241 :    64.206884296723220
 Root    242 :    65.537643980136890
 Root    243 :    66.365231218865500
 Root    244 :    67.091613538566220
 Root    245 :    67.429138620160060
 Root    246 :    67.594868087499990
 Root    247 :    68.268787151030350
 Root    248 :    68.552270670794270
 Root    249 :    69.919727328822470
 Root    250 :    70.422956093956200
 Root    251 :    70.594972638481690
 Root    252 :    72.826110531616450
 Root    253 :    73.035913542379220
 Root    254 :    73.948884651114780
 Root    255 :    75.256088896427560
 Root    256 :    77.673321062154400
 Root    257 :    77.797372215835520
 Root    258 :    78.223083380710360
 Root    259 :    78.435379549309300
 Root    260 :    79.217453406078590
 Root    261 :    79.387724413638740
 Root    262 :    79.450041718528200
 Root    263 :    79.847168163955710
 Root    264 :    81.673602535284190
 Root    265 :    81.854589498403240
 Root    266 :    82.935104670199120
 Root    267 :    83.035641386586580
 Root    268 :    83.364463942909130
 Root    269 :    84.186737904561710
 Root    270 :    84.289693780566410
 Root    271 :    84.567240285529010
 Root    272 :    84.668023277631320
 Root    273 :    86.113477046144710
 Root    274 :    86.674766926105950
 Root    275 :    86.979968100063350
 Root    276 :    87.786525577483260
 Root    277 :    88.288622666040500
 Root    278 :    89.439787886752200
 Root    279 :    89.559742335932040
 Root    280 :    90.980226145236780
 Root    281 :    91.286812598752860
 Root    282 :    91.433568434693090
 Root    283 :    92.792892638880200
 Root    284 :    94.017806462369110
 Root    285 :    94.741279580753710
 Root    286 :    95.397934925567630
 Root    287 :    95.984393921868690
 Root    288 :    96.532273153743350
 Root    289 :    98.897849958261110
 Root    290 :    99.060003975214090
 Root    291 :    99.175908638180160
 Root    292 :    99.599892294159590
 Root    293 :   101.857757710881500
 Root    294 :   102.990217322487600
 Root    295 :   103.109142865039100
 Root    296 :   104.160203635656700
 Root    297 :   105.170457099353700
 Root    298 :   107.168140829591300
 Root    299 :   107.479959720988900
 Root    300 :   107.921893822990000
 Root    301 :   109.835128019718300
 Root    302 :   110.547321088242900
 Root    303 :   110.805700369362400
 Root    304 :   113.345608302371100
 Root    305 :   118.694289180796200
 Root    306 :   124.705462345708600
 Convergence achieved for final wavefunctions.
 ***********************************************************************
 Excited states from <AA,BB:AA,BB> singles matrix:
 ***********************************************************************
 
 1PDM for each excited state written to RWF  633
 Ground to excited state transition densities written to RWF  633
 Ground to excited state transition electric dipole moments (Au):
       state          X           Y           Z        Dip. S.      Osc.
         1         0.0000     -0.0000     -0.0000      0.0000      0.0000
         2         0.0000      0.4447     -0.0000      0.1977      0.0312
         3         0.0000     -0.0000      0.6689      0.4474      0.0880
         4         0.0000     -0.4731     -0.0000      0.2238      0.0444
         5        -0.0000     -0.0000     -0.0000      0.0000      0.0000
         6         0.0571     -0.0000     -0.0000      0.0033      0.0007
         7        -0.0000     -0.3738     -0.0000      0.1397      0.0318
         8        -0.0000     -0.0000      0.5004      0.2504      0.0580
         9         0.0000      0.0000      0.0000      0.0000      0.0000
        10        -0.0000      0.2832      0.0000      0.0802      0.0197
        11        -0.3404      0.0000      0.0000      0.1159      0.0292
        12         0.0000     -0.0000      0.6679      0.4460      0.1185
        13         0.2294      0.0000     -0.0000      0.0526      0.0142
        14        -0.0000     -0.0000      0.7503      0.5629      0.1570
        15        -0.0000      0.0000      0.0000      0.0000      0.0000
        16         0.0000      0.0000      0.0000      0.0000      0.0000
        17        -0.4413      0.0000      0.0000      0.1947      0.0574
        18         0.0000     -0.5595     -0.0000      0.3131      0.0957
        19        -0.0000      0.4989      0.0000      0.2489      0.0775
        20        -0.0000     -0.0000      0.3509      0.1231      0.0385
        21        -0.0000     -0.0000     -0.5783      0.3345      0.1058
        22        -0.1101      0.0000      0.0000      0.0121      0.0039
        23        -0.2601     -0.0000     -0.0000      0.0676      0.0223
        24        -0.0000      0.0623      0.0000      0.0039      0.0013
        25         0.0997     -0.0000     -0.0000      0.0099      0.0033
        26         0.0000      0.0000     -0.7042      0.4959      0.1679
        27         0.0000     -0.0000     -0.0000      0.0000      0.0000
        28        -0.0000     -0.0000      0.3820      0.1459      0.0501
        29         0.0000     -0.1434      0.0000      0.0206      0.0071
        30         0.0000     -0.0000      0.1360      0.0185      0.0065
        31         0.0000      0.3830      0.0000      0.1467      0.0518
        32        -0.7980     -0.0000     -0.0000      0.6368      0.2260
        33         0.0000      0.0000      0.0000      0.0000      0.0000
        34         0.0000      0.0000     -0.2315      0.0536      0.0193
        35         0.0000     -0.0809     -0.0000      0.0065      0.0024
        36         0.0000     -0.2446     -0.0000      0.0599      0.0218
        37        -0.0000      0.2186     -0.0000      0.0478      0.0179
        38        -0.0000     -0.0000     -0.4072      0.1658      0.0629
        39         0.0000      0.7638     -0.0000      0.5834      0.2229
        40         0.0000      0.0000     -0.0000      0.0000      0.0000
        41        -0.0000      0.0000     -0.2766      0.0765      0.0297
        42        -0.4697      0.0000      0.0000      0.2206      0.0861
        43        -0.0000     -0.0000      0.1336      0.0178      0.0070
        44        -0.0000     -0.7841      0.0000      0.6147      0.2431
        45         0.0000      0.0000      0.0000      0.0000      0.0000
        46        -0.0708      0.0000      0.0000      0.0050      0.0020
        47         0.0000     -0.0000     -0.2308      0.0533      0.0219
        48        -0.0000      0.0310      0.0000      0.0010      0.0004
        49        -0.8571      0.0000      0.0000      0.7347      0.3108
        50        -0.0000      0.2684     -0.0000      0.0720      0.0306
        51         0.0832      0.0000      0.0000      0.0069      0.0030
        52         0.0000      0.0000     -0.4520      0.2043      0.0874
        53         0.0000     -0.0000      0.0000      0.0000      0.0000
        54        -0.0000     -0.0000     -0.0000      0.0000      0.0000
        55        -0.0895     -0.0000     -0.0000      0.0080      0.0035
        56        -0.3610     -0.0000     -0.0000      0.1303      0.0584
        57        -0.0000      0.0000     -0.1943      0.0378      0.0169
        58         0.0000     -0.2015     -0.0000      0.0406      0.0184
        59         0.0000      0.0000      0.3515      0.1236      0.0565
        60         0.0000     -0.0000      0.0219      0.0005      0.0002
        61         0.0000      0.0000      0.0000      0.0000      0.0000
        62         0.0000      0.1610      0.0000      0.0259      0.0122
        63         0.0000      0.0000      0.1646      0.0271      0.0128
        64        -0.5431      0.0000      0.0000      0.2949      0.1405
        65         0.0000      0.1157      0.0000      0.0134      0.0064
        66        -0.0000      0.0000      0.3106      0.0965      0.0463
        67         0.0000     -0.4259      0.0000      0.1814      0.0878
        68         0.0000     -0.2382     -0.0000      0.0567      0.0276
        69        -0.0000     -0.0000      0.2871      0.0824      0.0401
        70        -0.0000      0.0000     -0.1788      0.0320      0.0157
        71        -0.0000     -0.3269      0.0000      0.1069      0.0528
        72         0.0000     -0.0000     -0.0000      0.0000      0.0000
        73        -0.0000     -0.1765      0.0000      0.0312      0.0156
        74         0.0000      0.0000      0.0000      0.0000      0.0000
        75        -0.0000     -0.0000      0.0092      0.0001      0.0000
        76        -0.0689      0.0000      0.0000      0.0047      0.0024
        77         0.0000      0.3386      0.0000      0.1147      0.0589
        78        -0.0000     -0.0000     -0.0000      0.0000      0.0000
        79        -0.0000     -0.0000     -0.4299      0.1849      0.0955
        80        -0.2825     -0.0000      0.0000      0.0798      0.0413
        81         0.0452     -0.0000      0.0000      0.0020      0.0011
        82         0.0000      0.3354     -0.0000      0.1125      0.0589
        83         0.0000     -0.0000      0.1006      0.0101      0.0054
        84        -0.3131     -0.0000     -0.0000      0.0980      0.0528
        85         0.0000      0.0000      0.0000      0.0000      0.0000
        86         0.0000      0.5457     -0.0000      0.2978      0.1625
        87        -0.0000     -0.0000     -0.0000      0.0000      0.0000
        88        -0.0000      0.0000     -0.9049      0.8189      0.4557
        89        -0.0000     -0.0866     -0.0000      0.0075      0.0042
        90         0.0000      0.1936      0.0000      0.0375      0.0212
        91        -0.0000      0.0000     -0.0312      0.0010      0.0006
        92        -0.0155     -0.0000     -0.0000      0.0002      0.0001
        93         0.0000     -0.6448      0.0000      0.4157      0.2387
        94         0.4358      0.0000      0.0000      0.1900      0.1103
        95         0.0000      0.0000      0.3829      0.1466      0.0867
        96        -0.0000     -0.0000     -0.0000      0.0000      0.0000
        97         0.0000     -0.0000     -0.1971      0.0388      0.0233
        98        -0.0000     -0.0000     -0.0000      0.0000      0.0000
        99         0.0000      0.0000     -0.1721      0.0296      0.0178
       100        -0.0000     -0.0000     -0.2829      0.0800      0.0484
       101         0.3189      0.0000     -0.0000      0.1017      0.0616
       102        -0.0000     -0.2804     -0.0000      0.0786      0.0478
       103         0.0975      0.0000      0.0000      0.0095      0.0058
       104         0.0000      0.0000      0.0000      0.0000      0.0000
       105         0.0000     -0.0000      0.0545      0.0030      0.0018
       106         0.0000     -0.1535      0.0000      0.0236      0.0147
       107         0.1151     -0.0000     -0.0000      0.0132      0.0083
       108         0.0000     -0.6530     -0.0000      0.4264      0.2696
       109         0.3172      0.0000      0.0000      0.1006      0.0638
       110         0.0000      0.0000     -0.7670      0.5883      0.3791
       111        -0.0000      0.0000     -0.1798      0.0323      0.0210
       112        -0.8401     -0.0000     -0.0000      0.7057      0.4595
       113        -0.0000      0.0000     -0.1054      0.0111      0.0072
       114         0.0000      0.0000     -0.3015      0.0909      0.0595
       115         0.0000     -0.0018      0.0000      0.0000      0.0000
       116         0.0000      0.0000      0.0000      0.0000      0.0000
       117         0.0000      0.0000     -0.0079      0.0001      0.0000
       118        -0.0000      0.4483     -0.0000      0.2010      0.1356
       119        -0.0000      0.1088     -0.0000      0.0118      0.0080
       120         0.0000      0.1240      0.0000      0.0154      0.0106
       121        -0.0000      0.0044      0.0000      0.0000      0.0000
       122        -0.0000      0.0000      0.0000      0.0000      0.0000
       123         0.0000      0.0000      0.1441      0.0208      0.0145
       124         0.0000     -0.0000      0.0161      0.0003      0.0002
       125         0.0000      0.0000     -0.0100      0.0001      0.0001
       126        -0.0000      0.1281      0.0000      0.0164      0.0116
       127         0.1533      0.0000     -0.0000      0.0235      0.0167
       128        -0.0128      0.0000      0.0000      0.0002      0.0001
       129         0.0000     -0.0032     -0.0000      0.0000      0.0000
       130        -0.0000     -0.0000     -0.0596      0.0036      0.0026
       131         0.1324     -0.0000     -0.0000      0.0175      0.0127
       132         0.0000     -0.0000     -0.1209      0.0146      0.0107
       133         0.0000      0.0000      0.0000      0.0000      0.0000
       134        -0.0000     -0.0000      0.1695      0.0287      0.0213
       135         0.0000     -0.0096      0.0000      0.0001      0.0001
       136        -0.0000      0.0000     -0.0102      0.0001      0.0001
       137        -0.0785     -0.0000     -0.0000      0.0062      0.0046
       138         0.0000      0.0039      0.0000      0.0000      0.0000
       139        -0.0000     -0.0000     -0.0000      0.0000      0.0000
       140         0.0000      0.0000      0.0038      0.0000      0.0000
       141         0.0272      0.0000      0.0000      0.0007      0.0006
       142        -0.0171      0.0000     -0.0000      0.0003      0.0002
       143        -0.0000      0.0000      0.0000      0.0000      0.0000
       144         0.0000      0.0000      0.0000      0.0000      0.0000
       145        -0.0000      0.0103     -0.0000      0.0001      0.0001
       146        -0.0216      0.0000      0.0000      0.0005      0.0004
       147         0.0000      0.0000      0.0553      0.0031      0.0025
       148        -0.2537     -0.0000     -0.0000      0.0644      0.0529
       149        -0.0000     -0.1441     -0.0000      0.0208      0.0172
       150        -0.0000      0.0000      0.0774      0.0060      0.0050
       151        -0.0000     -0.0000     -0.1598      0.0255      0.0212
       152         0.0000      0.0646     -0.0000      0.0042      0.0035
       153         0.0000     -0.0000      0.1104      0.0122      0.0103
       154         0.0000      0.2440      0.0000      0.0595      0.0509
       155        -0.0000     -0.0000     -0.2479      0.0615      0.0531
       156        -0.0000     -0.1690      0.0000      0.0285      0.0247
       157        -0.0000     -0.0000      0.0803      0.0065      0.0056
       158        -0.0000      0.0205     -0.0000      0.0004      0.0004
       159        -0.0000     -0.0000      0.0327      0.0011      0.0009
       160        -0.0000      0.0000      0.0000      0.0000      0.0000
       161        -0.1444      0.0000      0.0000      0.0209      0.0188
       162        -0.1692      0.0000      0.0000      0.0286      0.0260
       163        -0.0000      0.0000      0.0000      0.0000      0.0000
       164        -0.0000     -0.0000     -0.0229      0.0005      0.0005
       165        -0.0000     -0.0000      0.2550      0.0650      0.0608
       166        -0.0000      0.0000      0.2420      0.0586      0.0549
       167        -0.0000     -0.0147     -0.0000      0.0002      0.0002
       168         0.0000     -0.3186      0.0000      0.1015      0.0962
       169        -0.0000      0.1737     -0.0000      0.0302      0.0287
       170        -0.0000     -0.0000      0.2271      0.0516      0.0495
       171         0.0000      0.0544      0.0000      0.0030      0.0028
       172         0.0000     -0.0000     -0.0777      0.0060      0.0059
       173         0.0000     -0.0000     -0.0000      0.0000      0.0000
       174         0.0000     -0.0000      0.2176      0.0474      0.0471
       175         0.0000     -0.0234     -0.0000      0.0005      0.0006
       176        -0.0000     -0.0000      0.1949      0.0380      0.0386
       177        -0.0293     -0.0000     -0.0000      0.0009      0.0009
       178        -0.2467      0.0000      0.0000      0.0609      0.0629
       179         0.0000     -0.0000      0.0966      0.0093      0.0097
       180        -0.0000      0.1386      0.0000      0.0192      0.0204
       181        -0.0000      0.0000      0.0668      0.0045      0.0048
       182         0.0000      0.0000      0.0000      0.0000      0.0000
       183        -0.1153     -0.0000     -0.0000      0.0133      0.0145
       184        -0.0000     -0.0121      0.0000      0.0001      0.0002
       185         0.0000     -0.0000      0.0377      0.0014      0.0016
       186         0.0209     -0.0000     -0.0000      0.0004      0.0005
       187         0.0000      0.2605     -0.0000      0.0678      0.0768
       188        -0.0000      0.0000      0.0000      0.0000      0.0000
       189         0.0000      0.0000      0.0000      0.0000      0.0000
       190         0.0000     -0.0000      0.0024      0.0000      0.0000
       191        -0.0243      0.0000      0.0000      0.0006      0.0007
       192         0.3216     -0.0000     -0.0000      0.1034      0.1235
       193         0.0000      0.0000      0.0197      0.0004      0.0005
       194        -0.0000      0.0668      0.0000      0.0045      0.0054
       195         0.0000     -0.0000     -0.0000      0.0000      0.0000
       196         0.4115     -0.0000     -0.0000      0.1693      0.2075
       197        -0.0000     -0.0000     -0.0360      0.0013      0.0016
       198        -0.0000     -0.0000     -0.0000      0.0000      0.0000
       199         0.0000     -0.0000     -0.3986      0.1589      0.1969
       200         0.0000      0.1048     -0.0000      0.0110      0.0136
       201         0.0000     -0.0576      0.0000      0.0033      0.0042
       202         0.0000     -0.0000     -0.1233      0.0152      0.0193
       203        -0.0000      0.0000      0.0000      0.0000      0.0000
       204         0.0000      0.2114      0.0000      0.0447      0.0568
       205        -0.0000     -0.0000      0.0933      0.0087      0.0113
       206        -0.0000     -0.1240     -0.0000      0.0154      0.0202
       207         0.0000     -0.0000      0.3145      0.0989      0.1304
       208        -0.0000      0.0000     -0.0483      0.0023      0.0031
       209        -0.0000      0.1985      0.0000      0.0394      0.0522
       210        -0.0000     -0.0000     -0.0000      0.0000      0.0000
       211         0.2292     -0.0000     -0.0000      0.0525      0.0705
       212         0.0000     -0.0125      0.0000      0.0002      0.0002
       213         0.2742     -0.0000      0.0000      0.0752      0.1027
       214         0.0000      0.1478     -0.0000      0.0218      0.0299
       215        -0.0000      0.0000     -0.1508      0.0227      0.0312
       216         0.0000      0.0000      0.0000      0.0000      0.0000
       217        -0.0000     -0.0000     -0.0100      0.0001      0.0001
       218        -0.0000     -0.0000      0.1303      0.0170      0.0236
       219        -0.0112      0.0000      0.0000      0.0001      0.0002
       220        -0.0000      0.0246      0.0000      0.0006      0.0009
       221         0.0000      0.0000      0.1776      0.0315      0.0447
       222         0.0000     -0.1042      0.0000      0.0109      0.0154
       223        -0.0000      0.0000      0.0000      0.0000      0.0000
       224        -0.0000     -0.0000     -0.0507      0.0026      0.0037
       225         0.1885     -0.0000     -0.0000      0.0355      0.0517
       226         0.0000      0.0096      0.0000      0.0001      0.0001
       227         0.0000     -0.1712      0.0000      0.0293      0.0430
       228         0.0000     -0.0000     -0.0000      0.0000      0.0000
       229        -0.2473     -0.0000     -0.0000      0.0612      0.0913
       230        -0.0000      0.0000      0.0053      0.0000      0.0000
       231         0.2464     -0.0000     -0.0000      0.0607      0.0921
       232        -0.0000      0.0000      0.0000      0.0000      0.0000
       233         0.0000      0.2801     -0.0000      0.0784      0.1197
       234         0.0000      0.0000      0.0263      0.0007      0.0011
       235        -0.0000     -0.0000     -0.1545      0.0239      0.0368
       236        -0.0000      0.0000     -0.0425      0.0018      0.0028
       237         0.1258      0.0000      0.0000      0.0158      0.0247
       238        -0.0000      0.0079     -0.0000      0.0001      0.0001
       239         0.3884     -0.0000     -0.0000      0.1509      0.2368
       240        -0.0000      0.0000      0.0916      0.0084      0.0132
       241        -0.0000     -0.0000     -0.0000      0.0000      0.0000
       242        -0.0000     -0.0000     -0.0322      0.0010      0.0017
       243         0.0000      0.0056     -0.0000      0.0000      0.0001
       244         0.0000     -0.2151     -0.0000      0.0463      0.0761
       245         0.0000      0.0000      0.1176      0.0138      0.0228
       246        -0.0013      0.0000      0.0000      0.0000      0.0000
       247         0.0000     -0.2578     -0.0000      0.0665      0.1111
       248         0.0000      0.0000      0.0000      0.0000      0.0000
       249        -0.1945     -0.0000     -0.0000      0.0378      0.0648
       250        -0.0568     -0.0000     -0.0000      0.0032      0.0056
       251         0.0000      0.1420      0.0000      0.0202      0.0349
       252         0.0000      0.0000      0.0000      0.0000      0.0000
       253        -0.0000     -0.0000     -0.0812      0.0066      0.0118
       254        -0.0000     -0.0452      0.0000      0.0020      0.0037
       255        -0.0000     -0.0000      0.0084      0.0001      0.0001
       256         0.0000     -0.0162     -0.0000      0.0003      0.0005
       257         0.1164      0.0000      0.0000      0.0135      0.0258
       258         0.0000     -0.0000     -0.1042      0.0109      0.0208
       259        -0.0000     -0.0000      0.1908      0.0364      0.0699
       260        -0.0000     -0.1468     -0.0000      0.0215      0.0418
       261        -0.1349     -0.0000     -0.0000      0.0182      0.0354
       262        -0.0000      0.0000     -0.1389      0.0193      0.0375
       263         0.0000     -0.0090     -0.0000      0.0001      0.0002
       264        -0.0000      0.0000      0.0000      0.0000      0.0000
       265        -0.0241      0.0000      0.0000      0.0006      0.0012
       266        -0.0000      0.1245      0.0000      0.0155      0.0315
       267        -0.0000      0.0000     -0.0095      0.0001      0.0002
       268        -0.0000     -0.0000     -0.0084      0.0001      0.0001
       269        -0.0000      0.0000      0.0000      0.0000      0.0000
       270         0.0000     -0.0000     -0.0023      0.0000      0.0000
       271         0.0000     -0.1193     -0.0000      0.0142      0.0295
       272        -0.4041     -0.0000     -0.0000      0.1633      0.3387
       273        -0.0000     -0.0464      0.0000      0.0021      0.0045
       274        -0.0000      0.0000      0.0000      0.0000      0.0000
       275        -0.0000      0.0169     -0.0000      0.0003      0.0006
       276        -0.0000     -0.0000     -0.0139      0.0002      0.0004
       277        -0.1830     -0.0000     -0.0000      0.0335      0.0724
       278         0.0000     -0.0000      0.0000      0.0000      0.0000
       279         0.0000     -0.4858      0.0000      0.2360      0.5178
       280        -0.1433      0.0000      0.0000      0.0205      0.0458
       281         0.0000      0.0000      0.0000      0.0000      0.0000
       282        -0.0000     -0.0000     -0.0361      0.0013      0.0029
       283         0.0000      0.1245      0.0000      0.0155      0.0352
       284         0.0000      0.0000     -0.1925      0.0371      0.0854
       285        -0.0000     -0.0000      0.0579      0.0034      0.0078
       286         0.0000      0.0000     -0.0000      0.0000      0.0000
       287        -0.0000      0.0000     -0.0230      0.0005      0.0012
       288        -0.3165      0.0000      0.0000      0.1002      0.2370
       289        -0.0000     -0.1988      0.0000      0.0395      0.0958
       290         0.1593     -0.0000     -0.0000      0.0254      0.0616
       291        -0.0000      0.0000     -0.1531      0.0235      0.0570
       292        -0.0000      0.0000     -0.1032      0.0107      0.0260
       293        -0.0000      0.0000      0.0000      0.0000      0.0000
       294         0.0000      0.0000      0.0000      0.0000      0.0000
       295        -0.0000     -0.0089     -0.0000      0.0001      0.0002
       296         0.0000      0.0000     -0.1217      0.0148      0.0378
       297         0.0000      0.2373     -0.0000      0.0563      0.1451
       298        -0.0000      0.0000     -0.0468      0.0022      0.0058
       299        -0.0000      0.0784      0.0000      0.0061      0.0162
       300         0.1259     -0.0000     -0.0000      0.0159      0.0419
       301        -0.0000      0.0932     -0.0000      0.0087      0.0234
       302         0.1037     -0.0000     -0.0000      0.0108      0.0291
       303         0.0000     -0.0000     -0.2639      0.0697      0.1891
       304         0.0000     -0.0000      0.0518      0.0027      0.0074
       305        -0.0000      0.0208      0.0000      0.0004      0.0013
       306         0.0000     -0.0000     -0.0093      0.0001      0.0003
 Ground to excited state transition velocity dipole moments (Au):
       state          X           Y           Z        Dip. S.      Osc.
         1        -0.0000     -0.0000     -0.0000      0.0000      0.0000
         2         0.0000     -0.1162     -0.0000      0.0135      0.0381
         3         0.0000      0.0000     -0.1987      0.0395      0.0893
         4        -0.0000      0.1459     -0.0000      0.0213      0.0477
         5        -0.0000      0.0000      0.0000      0.0000      0.0000
         6        -0.0256     -0.0000     -0.0000      0.0007      0.0013
         7         0.0000      0.1301      0.0000      0.0169      0.0331
         8        -0.0000     -0.0000     -0.1724      0.0297      0.0570
         9        -0.0000      0.0000      0.0000      0.0000      0.0000
        10         0.0000     -0.0977     -0.0000      0.0095      0.0173
        11         0.1334     -0.0000     -0.0000      0.0178      0.0314
        12        -0.0000      0.0000     -0.2603      0.0678      0.1134
        13        -0.1218     -0.0000     -0.0000      0.0148      0.0245
        14         0.0000     -0.0000     -0.3193      0.1020      0.1625
        15        -0.0000      0.0000      0.0000      0.0000      0.0000
        16         0.0000     -0.0000     -0.0000      0.0000      0.0000
        17         0.1944     -0.0000     -0.0000      0.0378      0.0570
        18        -0.0000      0.2670      0.0000      0.0713      0.1037
        19         0.0000     -0.2310      0.0000      0.0534      0.0761
        20        -0.0000     -0.0000     -0.1705      0.0291      0.0413
        21        -0.0000     -0.0000      0.2773      0.0769      0.1080
        22         0.0452     -0.0000     -0.0000      0.0020      0.0028
        23         0.1201      0.0000      0.0000      0.0144      0.0194
        24         0.0000     -0.0531     -0.0000      0.0028      0.0038
        25        -0.0339      0.0000      0.0000      0.0011      0.0015
        26        -0.0000     -0.0000      0.3628      0.1316      0.1727
        27         0.0000      0.0000      0.0000      0.0000      0.0000
        28         0.0000      0.0000     -0.1937      0.0375      0.0486
        29        -0.0000      0.0763      0.0000      0.0058      0.0075
        30        -0.0000     -0.0000     -0.0704      0.0050      0.0063
        31        -0.0000     -0.1920     -0.0000      0.0369      0.0464
        32         0.4286     -0.0000     -0.0000      0.1837      0.2300
        33        -0.0000     -0.0000     -0.0000      0.0000      0.0000
        34         0.0000     -0.0000      0.1265      0.0160      0.0197
        35        -0.0000      0.0382      0.0000      0.0015      0.0018
        36         0.0000      0.1367      0.0000      0.0187      0.0228
        37        -0.0000     -0.1167      0.0000      0.0136      0.0161
        38         0.0000      0.0000      0.2275      0.0518      0.0606
        39        -0.0000     -0.4265      0.0000      0.1819      0.2116
        40         0.0000      0.0000     -0.0000      0.0000      0.0000
        41        -0.0000      0.0000      0.1649      0.0272      0.0311
        42         0.2652      0.0000      0.0000      0.0703      0.0801
        43         0.0000      0.0000     -0.0785      0.0062      0.0070
        44         0.0000      0.4636      0.0000      0.2149      0.2416
        45        -0.0000      0.0000     -0.0000      0.0000      0.0000
        46         0.0528     -0.0000      0.0000      0.0028      0.0031
        47        -0.0000     -0.0000      0.1433      0.0205      0.0222
        48         0.0000     -0.0074      0.0000      0.0001      0.0001
        49         0.5696      0.0000      0.0000      0.3245      0.3409
        50         0.0000     -0.1791     -0.0000      0.0321      0.0335
        51        -0.0570     -0.0000     -0.0000      0.0032      0.0034
        52        -0.0000      0.0000      0.2989      0.0893      0.0928
        53         0.0000      0.0000     -0.0000      0.0000      0.0000
        54        -0.0000     -0.0000     -0.0000      0.0000      0.0000
        55         0.0382      0.0000      0.0000      0.0015      0.0015
        56         0.2509      0.0000      0.0000      0.0630      0.0625
        57         0.0000      0.0000      0.1384      0.0192      0.0190
        58         0.0000      0.1324     -0.0000      0.0175      0.0172
        59        -0.0000     -0.0000     -0.2339      0.0547      0.0532
        60        -0.0000      0.0000     -0.0091      0.0001      0.0001
        61        -0.0000     -0.0000     -0.0000      0.0000      0.0000
        62         0.0000     -0.1072     -0.0000      0.0115      0.0108
        63        -0.0000     -0.0000     -0.1139      0.0130      0.0122
        64         0.4025     -0.0000     -0.0000      0.1620      0.1512
        65        -0.0000     -0.0781      0.0000      0.0061      0.0057
        66         0.0000      0.0000     -0.2172      0.0472      0.0437
        67        -0.0000      0.3038      0.0000      0.0923      0.0847
        68        -0.0000      0.1734      0.0000      0.0301      0.0275
        69         0.0000     -0.0000     -0.1997      0.0399      0.0364
        70         0.0000      0.0000      0.1282      0.0164      0.0148
        71         0.0000      0.2527      0.0000      0.0639      0.0575
        72        -0.0000      0.0000      0.0000      0.0000      0.0000
        73         0.0000      0.1545      0.0000      0.0239      0.0212
        74        -0.0000     -0.0000      0.0000      0.0000      0.0000
        75        -0.0000     -0.0000      0.0021      0.0000      0.0000
        76         0.0515     -0.0000     -0.0000      0.0027      0.0023
        77         0.0000     -0.2575     -0.0000      0.0663      0.0574
        78        -0.0000     -0.0000     -0.0000      0.0000      0.0000
        79         0.0000      0.0000      0.3340      0.1116      0.0960
        80         0.2071     -0.0000      0.0000      0.0429      0.0368
        81        -0.0464     -0.0000      0.0000      0.0021      0.0018
        82        -0.0000     -0.2494     -0.0000      0.0622      0.0527
        83        -0.0000     -0.0000     -0.0834      0.0070      0.0058
        84         0.2579     -0.0000      0.0000      0.0665      0.0549
        85        -0.0000     -0.0000     -0.0000      0.0000      0.0000
        86        -0.0000     -0.4527     -0.0000      0.2049      0.1669
        87         0.0000     -0.0000      0.0000      0.0000      0.0000
        88         0.0000     -0.0000      0.7674      0.5888      0.4703
        89         0.0000      0.0770     -0.0000      0.0059      0.0047
        90         0.0000     -0.1679     -0.0000      0.0282      0.0221
        91         0.0000      0.0000      0.0338      0.0011      0.0009
        92         0.0134      0.0000      0.0000      0.0002      0.0001
        93        -0.0000      0.5538     -0.0000      0.3067      0.2374
        94        -0.4026      0.0000      0.0000      0.1621      0.1241
        95        -0.0000     -0.0000     -0.3314      0.1098      0.0826
        96         0.0000     -0.0000     -0.0000      0.0000      0.0000
        97        -0.0000      0.0000      0.1718      0.0295      0.0219
        98         0.0000      0.0000      0.0000      0.0000      0.0000
        99        -0.0000      0.0000      0.1481      0.0219      0.0162
       100         0.0000     -0.0000      0.2268      0.0515      0.0379
       101        -0.2869     -0.0000     -0.0000      0.0823      0.0604
       102         0.0000      0.2342      0.0000      0.0548      0.0401
       103        -0.0881      0.0000      0.0000      0.0078      0.0056
       104        -0.0000     -0.0000      0.0000      0.0000      0.0000
       105        -0.0000     -0.0000     -0.0396      0.0016      0.0011
       106        -0.0000      0.1515      0.0000      0.0230      0.0163
       107        -0.1119      0.0000      0.0000      0.0125      0.0088
       108        -0.0000      0.6139     -0.0000      0.3769      0.2650
       109        -0.3033     -0.0000     -0.0000      0.0920      0.0645
       110        -0.0000     -0.0000      0.7296      0.5323      0.3671
       111         0.0000     -0.0000      0.1912      0.0366      0.0250
       112         0.8570      0.0000      0.0000      0.7345      0.5014
       113         0.0000     -0.0000      0.1048      0.0110      0.0075
       114        -0.0000      0.0000      0.3033      0.0920      0.0625
       115        -0.0000     -0.0052     -0.0000      0.0000      0.0000
       116         0.0000      0.0000     -0.0000      0.0000      0.0000
       117        -0.0000     -0.0000      0.0240      0.0006      0.0004
       118        -0.0000     -0.4544     -0.0000      0.2065      0.1360
       119         0.0000     -0.0965     -0.0000      0.0093      0.0061
       120        -0.0000     -0.1527     -0.0000      0.0233      0.0151
       121         0.0000     -0.0049     -0.0000      0.0000      0.0000
       122         0.0000     -0.0000      0.0000      0.0000      0.0000
       123        -0.0000     -0.0000     -0.1614      0.0260      0.0166
       124         0.0000     -0.0000     -0.0402      0.0016      0.0010
       125        -0.0000     -0.0000      0.0193      0.0004      0.0002
       126         0.0000     -0.1576     -0.0000      0.0248      0.0156
       127        -0.1859      0.0000     -0.0000      0.0346      0.0217
       128         0.0039     -0.0000      0.0000      0.0000      0.0000
       129        -0.0000      0.0135      0.0000      0.0002      0.0001
       130         0.0000      0.0000      0.0752      0.0057      0.0035
       131        -0.1597     -0.0000      0.0000      0.0255      0.0156
       132        -0.0000      0.0000      0.1601      0.0256      0.0156
       133         0.0000      0.0000     -0.0000      0.0000      0.0000
       134         0.0000     -0.0000     -0.1710      0.0293      0.0176
       135        -0.0000      0.0045     -0.0000      0.0000      0.0000
       136         0.0000     -0.0000     -0.0047      0.0000      0.0000
       137         0.1202     -0.0000      0.0000      0.0144      0.0086
       138        -0.0000     -0.0121      0.0000      0.0001      0.0001
       139         0.0000      0.0000      0.0000      0.0000      0.0000
       140        -0.0000      0.0000      0.0133      0.0002      0.0001
       141        -0.0290     -0.0000     -0.0000      0.0008      0.0005
       142         0.0102     -0.0000      0.0000      0.0001      0.0001
       143         0.0000     -0.0000     -0.0000      0.0000      0.0000
       144        -0.0000     -0.0000      0.0000      0.0000      0.0000
       145         0.0000     -0.0468      0.0000      0.0022      0.0012
       146         0.0322     -0.0000     -0.0000      0.0010      0.0006
       147        -0.0000      0.0000     -0.0554      0.0031      0.0017
       148         0.3661      0.0000      0.0000      0.1341      0.0725
       149         0.0000      0.2167      0.0000      0.0470      0.0252
       150         0.0000     -0.0000     -0.0932      0.0087      0.0047
       151         0.0000      0.0000      0.1818      0.0330      0.0177
       152        -0.0000     -0.0790     -0.0000      0.0062      0.0033
       153        -0.0000      0.0000     -0.1226      0.0150      0.0079
       154        -0.0000     -0.3254     -0.0000      0.1059      0.0551
       155         0.0000      0.0000      0.3115      0.0971      0.0500
       156         0.0000      0.1990      0.0000      0.0396      0.0203
       157         0.0000      0.0000     -0.1100      0.0121      0.0062
       158         0.0000     -0.0296     -0.0000      0.0009      0.0004
       159         0.0000      0.0000     -0.0519      0.0027      0.0014
       160         0.0000     -0.0000     -0.0000      0.0000      0.0000
       161         0.1843     -0.0000     -0.0000      0.0340      0.0167
       162         0.2598     -0.0000     -0.0000      0.0675      0.0331
       163         0.0000     -0.0000     -0.0000      0.0000      0.0000
       164         0.0000     -0.0000     -0.0023      0.0000      0.0000
       165         0.0000      0.0000     -0.3586      0.1286      0.0611
       166         0.0000     -0.0000     -0.3512      0.1233      0.0585
       167         0.0000      0.0157      0.0000      0.0002      0.0001
       168        -0.0000      0.4561     -0.0000      0.2081      0.0976
       169         0.0000     -0.2805     -0.0000      0.0787      0.0368
       170        -0.0000      0.0000     -0.3507      0.1230      0.0569
       171        -0.0000     -0.0248     -0.0000      0.0006      0.0003
       172        -0.0000      0.0000      0.0895      0.0080      0.0036
       173        -0.0000      0.0000      0.0000      0.0000      0.0000
       174        -0.0000      0.0000     -0.3264      0.1065      0.0476
       175        -0.0000      0.0108     -0.0000      0.0001      0.0001
       176         0.0000      0.0000     -0.2929      0.0858      0.0376
       177         0.0243      0.0000      0.0000      0.0006      0.0003
       178         0.2972     -0.0000     -0.0000      0.0883      0.0380
       179        -0.0000      0.0000     -0.1471      0.0216      0.0093
       180         0.0000     -0.2134      0.0000      0.0455      0.0191
[...]
      1  -0.112071D+03 -0.112057D+03 -0.112054D+03 -0.112044D+03 -0.112041D+03
      2   0.000000D+00  0.125776D+00  0.000000D+00  0.388417D+00  0.000000D+00
      3   0.000000D+00  0.000000D+00  0.790789D-02  0.000000D+00  0.000000D+00
      4  -0.424526D-01  0.000000D+00  0.000000D+00  0.000000D+00  0.915976D-01
      5   0.000000D+00 -0.296054D+00  0.000000D+00 -0.794901D+00  0.000000D+00
      6   0.000000D+00  0.000000D+00  0.230831D-01  0.000000D+00  0.000000D+00
      7   0.817029D-01  0.000000D+00  0.000000D+00  0.000000D+00 -0.165414D+00
      8   0.000000D+00  0.000000D+00 -0.337727D+00  0.000000D+00  0.000000D+00
      9   0.000000D+00 -0.962996D-01  0.000000D+00 -0.102630D+00  0.000000D+00
     10   0.000000D+00  0.000000D+00  0.000000D+00  0.000000D+00  0.000000D+00
     11  -0.429533D+00  0.000000D+00  0.000000D+00  0.000000D+00 -0.382488D+00
     12  -0.786931D+00  0.000000D+00  0.000000D+00  0.000000D+00  0.665539D-02
     13   0.333222D+00  0.000000D+00  0.000000D+00  0.000000D+00 -0.175516D+01
     14   0.000000D+00  0.000000D+00  0.000000D+00  0.000000D+00  0.000000D+00
     15   0.000000D+00 -0.434627D+00  0.000000D+00  0.356802D+00  0.000000D+00
     16   0.000000D+00  0.000000D+00  0.211979D+00  0.000000D+00  0.000000D+00
               241           242           243           244           245 
      1  -0.112040D+03 -0.111991D+03 -0.111960D+03 -0.111934D+03 -0.111921D+03
      2   0.000000D+00  0.000000D+00  0.000000D+00  0.000000D+00  0.000000D+00
      3   0.000000D+00  0.000000D+00  0.562202D-02 -0.215123D+00  0.000000D+00
      4   0.000000D+00 -0.322019D-01  0.000000D+00  0.000000D+00  0.117583D+00
      5   0.000000D+00  0.000000D+00  0.000000D+00  0.000000D+00  0.000000D+00
      6   0.000000D+00  0.000000D+00 -0.179915D-01  0.601604D+00  0.000000D+00
      7   0.000000D+00  0.847387D-01  0.000000D+00  0.000000D+00 -0.239291D+00
      8   0.000000D+00  0.000000D+00 -0.543649D+00 -0.770564D+00  0.000000D+00
      9   0.000000D+00  0.000000D+00  0.000000D+00  0.000000D+00  0.000000D+00
     10  -0.278222D+00  0.000000D+00  0.000000D+00  0.000000D+00  0.000000D+00
     11   0.000000D+00 -0.113888D-01  0.000000D+00  0.000000D+00 -0.207015D+00
     12   0.000000D+00 -0.718360D-01  0.000000D+00  0.000000D+00 -0.607823D+00
     13   0.000000D+00  0.805244D+00  0.000000D+00  0.000000D+00  0.143553D+01
     14   0.719233D+00  0.000000D+00  0.000000D+00  0.000000D+00  0.000000D+00
     15   0.000000D+00  0.000000D+00  0.000000D+00  0.000000D+00  0.000000D+00
     16   0.000000D+00  0.000000D+00 -0.658983D-01  0.818071D+00  0.000000D+00
               246           247           248           249           250 
      1  -0.111915D+03 -0.111890D+03 -0.111880D+03 -0.111830D+03 -0.111811D+03
      2  -0.125284D-02  0.000000D+00  0.000000D+00 -0.194546D+00 -0.567713D-01
      3   0.000000D+00 -0.257784D+00  0.000000D+00  0.000000D+00  0.000000D+00
      4   0.000000D+00  0.000000D+00  0.000000D+00  0.000000D+00  0.000000D+00
      5   0.230840D-02  0.000000D+00  0.000000D+00  0.467001D+00  0.755258D-01
      6   0.000000D+00  0.560386D+00  0.000000D+00  0.000000D+00  0.000000D+00
      7   0.000000D+00  0.000000D+00  0.000000D+00  0.000000D+00  0.000000D+00
      8   0.000000D+00  0.205782D+00  0.000000D+00  0.000000D+00  0.000000D+00
      9   0.760068D-02  0.000000D+00  0.000000D+00  0.158254D+00 -0.188785D+00
     10   0.000000D+00  0.000000D+00  0.119424D+00  0.000000D+00  0.000000D+00
     11   0.000000D+00  0.000000D+00  0.000000D+00  0.000000D+00  0.000000D+00
     12   0.000000D+00  0.000000D+00  0.000000D+00  0.000000D+00  0.000000D+00
     13   0.000000D+00  0.000000D+00  0.000000D+00  0.000000D+00  0.000000D+00
     14   0.000000D+00  0.000000D+00 -0.529463D+00  0.000000D+00  0.000000D+00
     15   0.250073D+00  0.000000D+00  0.000000D+00  0.413740D+00 -0.247609D+00
     16   0.000000D+00  0.441419D-01  0.000000D+00  0.000000D+00  0.000000D+00
               251           252           253           254           255 
      1  -0.111805D+03 -0.111723D+03 -0.111715D+03 -0.111682D+03 -0.111634D+03
      2   0.000000D+00  0.000000D+00  0.000000D+00  0.000000D+00  0.000000D+00
      3   0.142012D+00  0.000000D+00  0.000000D+00 -0.452324D-01  0.000000D+00
      4   0.000000D+00  0.000000D+00 -0.812228D-01  0.000000D+00  0.839738D-02
      5   0.000000D+00  0.000000D+00  0.000000D+00  0.000000D+00  0.000000D+00
      6  -0.355495D+00  0.000000D+00  0.000000D+00  0.157792D+00  0.000000D+00
      7   0.000000D+00  0.000000D+00  0.194552D+00  0.000000D+00 -0.211980D-01
      8   0.185725D+00  0.000000D+00  0.000000D+00 -0.345207D+00  0.000000D+00
      9   0.000000D+00  0.000000D+00  0.000000D+00  0.000000D+00  0.000000D+00
     10   0.000000D+00  0.195916D+00  0.000000D+00  0.000000D+00  0.000000D+00
     11   0.000000D+00  0.000000D+00 -0.616611D+00  0.000000D+00  0.960091D+00
     12   0.000000D+00  0.000000D+00 -0.277007D+00  0.000000D+00  0.118349D+01
     13   0.000000D+00  0.000000D+00  0.307629D+00  0.000000D+00  0.412229D+00
     14   0.000000D+00 -0.341772D+00  0.000000D+00  0.000000D+00  0.000000D+00
     15   0.000000D+00  0.000000D+00  0.000000D+00  0.000000D+00  0.000000D+00
     16  -0.201957D+00  0.000000D+00  0.000000D+00  0.928310D-01  0.000000D+00
               256           257           258           259           260 
      1  -0.111545D+03 -0.111540D+03 -0.111525D+03 -0.111517D+03 -0.111488D+03
      2   0.000000D+00  0.116370D+00  0.000000D+00  0.000000D+00  0.000000D+00
      3  -0.162300D-01  0.000000D+00  0.000000D+00  0.000000D+00 -0.146787D+00
      4   0.000000D+00  0.000000D+00 -0.104194D+00  0.190776D+00  0.000000D+00
      5   0.000000D+00 -0.250971D+00  0.000000D+00  0.000000D+00  0.000000D+00
      6   0.102102D-01  0.000000D+00  0.000000D+00  0.000000D+00  0.332974D+00
      7   0.000000D+00  0.000000D+00  0.238669D+00 -0.483152D+00  0.000000D+00
      8   0.122685D+00  0.000000D+00  0.000000D+00  0.000000D+00 -0.474050D+00
      9   0.000000D+00  0.116913D+00  0.000000D+00  0.000000D+00  0.000000D+00
     10   0.000000D+00  0.000000D+00  0.000000D+00  0.000000D+00  0.000000D+00
     11   0.000000D+00  0.000000D+00 -0.899506D-01 -0.296463D+00  0.000000D+00
     12   0.000000D+00  0.000000D+00 -0.389476D-01  0.108932D+00  0.000000D+00
     13   0.000000D+00  0.000000D+00  0.966995D-01 -0.287773D+00  0.000000D+00
     14   0.000000D+00  0.000000D+00  0.000000D+00  0.000000D+00  0.000000D+00
     15   0.000000D+00  0.122151D+00  0.000000D+00  0.000000D+00  0.000000D+00
     16  -0.476763D+00  0.000000D+00  0.000000D+00  0.000000D+00  0.610153D+00
               261           262           263           264           265 
      1  -0.111482D+03 -0.111479D+03 -0.111465D+03 -0.111398D+03 -0.111391D+03
      2  -0.134870D+00  0.000000D+00  0.000000D+00  0.000000D+00 -0.241156D-01
      3   0.000000D+00  0.000000D+00 -0.901884D-02  0.000000D+00  0.000000D+00
      4   0.000000D+00 -0.138862D+00  0.000000D+00  0.000000D+00  0.000000D+00
      5   0.316965D+00  0.000000D+00  0.000000D+00  0.000000D+00  0.635470D-01
      6   0.000000D+00  0.000000D+00  0.651517D-02  0.000000D+00  0.000000D+00
      7   0.000000D+00  0.360206D+00  0.000000D+00  0.000000D+00  0.000000D+00
      8   0.000000D+00  0.000000D+00  0.148728D+00  0.000000D+00  0.000000D+00
      9  -0.236380D+00  0.000000D+00  0.000000D+00  0.000000D+00  0.120401D+00
     10   0.000000D+00  0.000000D+00  0.000000D+00 -0.937503D-02  0.000000D+00
     11   0.000000D+00 -0.556166D-01  0.000000D+00  0.000000D+00  0.000000D+00
     12   0.000000D+00 -0.292950D+00  0.000000D+00  0.000000D+00  0.000000D+00
     13   0.000000D+00  0.134689D+01  0.000000D+00  0.000000D+00  0.000000D+00
     14   0.000000D+00  0.000000D+00  0.000000D+00 -0.242310D+00  0.000000D+00
     15  -0.589061D+00  0.000000D+00  0.000000D+00  0.000000D+00  0.904790D-01
     16   0.000000D+00  0.000000D+00  0.147467D+00  0.000000D+00  0.000000D+00
               266           267           268           269           270 
      1  -0.111351D+03 -0.111348D+03 -0.111336D+03 -0.111305D+03 -0.111302D+03
      2   0.000000D+00  0.000000D+00  0.000000D+00  0.000000D+00  0.000000D+00
      3   0.124515D+00  0.000000D+00  0.000000D+00  0.000000D+00  0.000000D+00
      4   0.000000D+00 -0.948642D-02 -0.836461D-02  0.000000D+00 -0.229354D-02
      5   0.000000D+00  0.000000D+00  0.000000D+00  0.000000D+00  0.000000D+00
      6  -0.342037D+00  0.000000D+00  0.000000D+00  0.000000D+00  0.000000D+00
      7   0.000000D+00  0.371487D-01  0.317079D-01  0.000000D+00 -0.745401D-02
      8   0.723741D-01  0.000000D+00  0.000000D+00  0.000000D+00  0.000000D+00
      9   0.000000D+00  0.000000D+00  0.000000D+00  0.000000D+00  0.000000D+00
     10   0.000000D+00  0.000000D+00  0.000000D+00  0.657936D-02  0.000000D+00
     11   0.000000D+00 -0.238710D+00  0.700701D-01  0.000000D+00 -0.210020D+00
     12   0.000000D+00  0.266400D+00  0.143341D+00  0.000000D+00 -0.170336D+00
     13   0.000000D+00  0.139709D+00 -0.123159D+00  0.000000D+00 -0.995446D+00
     14   0.000000D+00  0.000000D+00  0.000000D+00  0.349186D+00  0.000000D+00
     15   0.000000D+00  0.000000D+00  0.000000D+00  0.000000D+00  0.000000D+00
     16  -0.209389D+00  0.000000D+00  0.000000D+00  0.000000D+00  0.000000D+00
               271           272           273           274           275 
      1  -0.111291D+03 -0.111288D+03 -0.111235D+03 -0.111214D+03 -0.111203D+03
      2   0.000000D+00 -0.404052D+00  0.000000D+00  0.000000D+00  0.000000D+00
      3  -0.119332D+00  0.000000D+00 -0.463632D-01  0.000000D+00  0.168988D-01
      4   0.000000D+00  0.000000D+00  0.000000D+00  0.000000D+00  0.000000D+00
      5   0.000000D+00  0.110019D+01  0.000000D+00  0.000000D+00  0.000000D+00
      6   0.287960D+00  0.000000D+00  0.767694D-01  0.000000D+00 -0.544609D-01
      7   0.000000D+00  0.000000D+00  0.000000D+00  0.000000D+00  0.000000D+00
      8   0.477343D-01  0.000000D+00 -0.143545D+00  0.000000D+00  0.287970D+00
      9   0.000000D+00  0.898322D+00  0.000000D+00  0.000000D+00  0.000000D+00
     10   0.000000D+00  0.000000D+00  0.000000D+00 -0.125340D-01  0.000000D+00
     11   0.000000D+00  0.000000D+00  0.000000D+00  0.000000D+00  0.000000D+00
     12   0.000000D+00  0.000000D+00  0.000000D+00  0.000000D+00  0.000000D+00
     13   0.000000D+00  0.000000D+00  0.000000D+00  0.000000D+00  0.000000D+00
     14   0.000000D+00  0.000000D+00  0.000000D+00  0.224949D+00  0.000000D+00
     15   0.000000D+00  0.817872D+00  0.000000D+00  0.000000D+00  0.000000D+00
     16  -0.215356D+00  0.000000D+00  0.249570D+00  0.000000D+00  0.398214D-01
               276           277           278           279           280 
      1  -0.111173D+03 -0.111155D+03 -0.111112D+03 -0.111108D+03 -0.111056D+03
      2   0.000000D+00 -0.182970D+00  0.000000D+00  0.000000D+00 -0.143282D+00
      3   0.000000D+00  0.000000D+00  0.000000D+00 -0.485777D+00  0.000000D+00
      4  -0.139092D-01  0.000000D+00  0.000000D+00  0.000000D+00  0.000000D+00
      5   0.000000D+00  0.503280D+00  0.000000D+00  0.000000D+00  0.388549D+00
      6   0.000000D+00  0.000000D+00  0.000000D+00  0.135327D+01  0.000000D+00
      7   0.320028D-01  0.000000D+00  0.000000D+00  0.000000D+00  0.000000D+00
      8   0.000000D+00  0.000000D+00  0.000000D+00 -0.123045D+01  0.000000D+00
      9   0.000000D+00  0.482399D+00  0.000000D+00  0.000000D+00  0.690770D+00
     10   0.000000D+00  0.000000D+00  0.217777D-01  0.000000D+00  0.000000D+00
     11   0.275352D+00  0.000000D+00  0.000000D+00  0.000000D+00  0.000000D+00
     12  -0.196985D+00  0.000000D+00  0.000000D+00  0.000000D+00  0.000000D+00
     13  -0.411693D+00  0.000000D+00  0.000000D+00  0.000000D+00  0.000000D+00
     14   0.000000D+00  0.000000D+00 -0.222420D+00  0.000000D+00  0.000000D+00
     15   0.000000D+00  0.415868D+00  0.000000D+00  0.000000D+00  0.554196D+00
     16   0.000000D+00  0.000000D+00  0.000000D+00  0.122455D+01  0.000000D+00
               281           282           283           284           285 
      1  -0.111044D+03 -0.111039D+03 -0.110989D+03 -0.110944D+03 -0.110917D+03
      2   0.000000D+00  0.000000D+00  0.000000D+00  0.000000D+00  0.000000D+00
      3   0.000000D+00  0.000000D+00  0.124450D+00  0.000000D+00  0.000000D+00
      4   0.000000D+00 -0.360649D-01  0.000000D+00 -0.192524D+00  0.579473D-01
      5   0.000000D+00  0.000000D+00  0.000000D+00  0.000000D+00  0.000000D+00
      6   0.000000D+00  0.000000D+00 -0.376081D+00  0.000000D+00  0.000000D+00
      7   0.000000D+00  0.119486D+00  0.000000D+00  0.610632D+00 -0.218945D+00
      8   0.000000D+00  0.000000D+00  0.778183D+00  0.000000D+00  0.000000D+00
      9   0.000000D+00  0.000000D+00  0.000000D+00  0.000000D+00  0.000000D+00
     10  -0.141544D-01  0.000000D+00  0.000000D+00  0.000000D+00  0.000000D+00
     11   0.000000D+00  0.252172D+00  0.000000D+00  0.638366D-01 -0.912753D-01
     12   0.000000D+00 -0.291502D+00  0.000000D+00  0.147810D+00  0.351952D+00
     13   0.000000D+00  0.210227D+00  0.000000D+00  0.100338D+01 -0.941039D+00
     14  -0.269302D+00  0.000000D+00  0.000000D+00  0.000000D+00  0.000000D+00
     15   0.000000D+00  0.000000D+00  0.000000D+00  0.000000D+00  0.000000D+00
     16   0.000000D+00  0.000000D+00 -0.100864D+01  0.000000D+00  0.000000D+00
               286           287           288           289           290 
      1  -0.110893D+03 -0.110872D+03 -0.110852D+03 -0.110765D+03 -0.110759D+03
      2   0.000000D+00  0.000000D+00 -0.316545D+00  0.000000D+00  0.159319D+00
      3   0.000000D+00  0.000000D+00  0.000000D+00 -0.198817D+00  0.000000D+00
      4   0.000000D+00 -0.229935D-01  0.000000D+00  0.000000D+00  0.000000D+00
      5   0.000000D+00  0.000000D+00  0.985137D+00  0.000000D+00 -0.482595D+00
      6   0.000000D+00  0.000000D+00  0.000000D+00  0.613314D+00  0.000000D+00
      7   0.000000D+00  0.585764D-01  0.000000D+00  0.000000D+00  0.000000D+00
      8   0.000000D+00  0.000000D+00  0.000000D+00 -0.150123D+00  0.000000D+00
      9   0.000000D+00  0.000000D+00  0.143684D+01  0.000000D+00 -0.362477D+00
     10  -0.233920D-01  0.000000D+00  0.000000D+00  0.000000D+00  0.000000D+00
     11   0.000000D+00 -0.201752D+00  0.000000D+00  0.000000D+00  0.000000D+00
     12   0.000000D+00  0.295227D+00  0.000000D+00  0.000000D+00  0.000000D+00
     13   0.000000D+00 -0.505616D+00  0.000000D+00  0.000000D+00  0.000000D+00
     14   0.160982D+00  0.000000D+00  0.000000D+00  0.000000D+00  0.000000D+00
     15   0.000000D+00  0.000000D+00  0.217084D+01  0.000000D+00 -0.525134D+00
     16   0.000000D+00  0.000000D+00  0.000000D+00 -0.400372D-01  0.000000D+00
               291           292           293           294           295 
      1  -0.110755D+03 -0.110739D+03 -0.110656D+03 -0.110614D+03 -0.110610D+03
      2   0.000000D+00  0.000000D+00  0.000000D+00  0.000000D+00  0.000000D+00
      3   0.000000D+00  0.000000D+00  0.000000D+00  0.000000D+00 -0.891727D-02
      4  -0.153150D+00 -0.103207D+00  0.000000D+00  0.000000D+00  0.000000D+00
      5   0.000000D+00  0.000000D+00  0.000000D+00  0.000000D+00  0.000000D+00
      6   0.000000D+00  0.000000D+00  0.000000D+00  0.000000D+00  0.899067D-02
      7   0.528003D+00  0.354629D+00  0.000000D+00  0.000000D+00  0.000000D+00
      8   0.000000D+00  0.000000D+00  0.000000D+00  0.000000D+00 -0.390479D+00
      9   0.000000D+00  0.000000D+00  0.000000D+00  0.000000D+00  0.000000D+00
     10   0.000000D+00  0.000000D+00 -0.305944D-02 -0.893304D-03  0.000000D+00
     11   0.154302D+00 -0.724663D+00  0.000000D+00  0.000000D+00  0.000000D+00
     12  -0.173643D+00  0.442477D+00  0.000000D+00  0.000000D+00  0.000000D+00
     13   0.181082D+01  0.996815D+00  0.000000D+00  0.000000D+00  0.000000D+00
     14   0.000000D+00  0.000000D+00 -0.149012D+00  0.613233D+00  0.000000D+00
     15   0.000000D+00  0.000000D+00  0.000000D+00  0.000000D+00  0.000000D+00
     16   0.000000D+00  0.000000D+00  0.000000D+00  0.000000D+00  0.714133D+00
               296           297           298           299           300 
      1  -0.110571D+03 -0.110534D+03 -0.110461D+03 -0.110449D+03 -0.110433D+03
      2   0.000000D+00  0.000000D+00  0.000000D+00  0.000000D+00  0.125922D+00
      3   0.000000D+00  0.237327D+00  0.000000D+00  0.783699D-01  0.000000D+00
      4  -0.121654D+00  0.000000D+00 -0.468283D-01  0.000000D+00  0.000000D+00
      5   0.000000D+00  0.000000D+00  0.000000D+00  0.000000D+00 -0.444885D+00
      6   0.000000D+00 -0.807555D+00  0.000000D+00 -0.272432D+00  0.000000D+00
      7   0.443239D+00  0.000000D+00  0.157849D+00  0.000000D+00  0.000000D+00
      8   0.000000D+00  0.116195D+01  0.000000D+00  0.279870D+00  0.000000D+00
      9   0.000000D+00  0.000000D+00  0.000000D+00  0.000000D+00 -0.689214D+00
     10   0.000000D+00  0.000000D+00  0.000000D+00  0.000000D+00  0.000000D+00
     11  -0.545561D-02  0.000000D+00  0.121556D+00  0.000000D+00  0.000000D+00
     12  -0.545821D-01  0.000000D+00 -0.392748D+00  0.000000D+00  0.000000D+00
     13   0.338433D+00  0.000000D+00  0.343337D+00  0.000000D+00  0.000000D+00
     14   0.000000D+00  0.000000D+00  0.000000D+00  0.000000D+00  0.000000D+00
     15   0.000000D+00  0.000000D+00  0.000000D+00  0.000000D+00 -0.102327D+01
     16   0.000000D+00 -0.167157D+01  0.000000D+00 -0.520071D+00  0.000000D+00
               301           302           303           304           305 
      1  -0.110363D+03 -0.110337D+03 -0.110327D+03 -0.110234D+03 -0.110037D+03
      2   0.000000D+00  0.103713D+00  0.000000D+00  0.000000D+00  0.000000D+00
      3   0.932434D-01  0.000000D+00  0.000000D+00  0.000000D+00  0.207795D-01
      4   0.000000D+00  0.000000D+00 -0.263917D+00  0.517747D-01  0.000000D+00
      5   0.000000D+00 -0.361242D+00  0.000000D+00  0.000000D+00  0.000000D+00
      6  -0.310662D+00  0.000000D+00  0.000000D+00  0.000000D+00 -0.885599D-01
      7   0.000000D+00  0.000000D+00  0.993992D+00 -0.227595D+00  0.000000D+00
      8   0.486377D+00  0.000000D+00  0.000000D+00  0.000000D+00  0.369423D+00
      9   0.000000D+00 -0.444105D+00  0.000000D+00  0.000000D+00  0.000000D+00
     10   0.000000D+00  0.000000D+00  0.000000D+00  0.000000D+00  0.000000D+00
     11   0.000000D+00  0.000000D+00 -0.143605D+00  0.219816D+00  0.000000D+00
     12   0.000000D+00  0.000000D+00 -0.131097D+00  0.158146D+00  0.000000D+00
     13   0.000000D+00  0.000000D+00  0.288403D+01 -0.210074D+01  0.000000D+00
     14   0.000000D+00  0.000000D+00  0.000000D+00  0.000000D+00  0.000000D+00
     15   0.000000D+00 -0.335310D+00  0.000000D+00  0.000000D+00  0.000000D+00
     16  -0.739345D+00  0.000000D+00  0.000000D+00  0.000000D+00 -0.313972D+00
               306 
      1  -0.109816D+03
      2   0.000000D+00
      3   0.000000D+00
      4  -0.930064D-02
      5   0.000000D+00
      6   0.000000D+00
      7  -0.240791D-01
      8   0.000000D+00
      9   0.000000D+00
     10   0.000000D+00
     11  -0.710720D-01
     12  -0.108500D+00
     13  -0.547116D+00
     14   0.000000D+00
     15   0.000000D+00
     16   0.000000D+00
 Unable to Open any file for archive entry.
 1\1\GINC-HEL12\SP\RBLYP TD-FC\Gen\C1H2O1\SABYASACHI\21-Mar-2022\0\\#P 
 TD(Nstates=10000) blyp/Gen SCF(maxcycles=100) Int(Grid=ultrafine)\\xGD
 B7_00001_tier4.com\\0,1\C,0,0.,0.,-0.524273\O,0,0.,0.,0.670793\H,0,0.,
 0.939221,-1.110351\H,0,0.,-0.939221,-1.110351\\Version=EM64L-G16RevC.0
 1\State=1-A1\HF=-114.3991701\RMSD=5.469e-09\PG=C02V [C2(C1O1),SGV(H2)]
 \\@
 The archive entry for this job was punched.


 A successful marriage requires falling in love
 many times, always with the same person.
                           -- Mignon McLaughlin
 Job cpu time:       0 days  0 hours  0 minutes 40.6 seconds.
 Elapsed time:       0 days  0 hours  0 minutes  5.3 seconds.
 File lengths (MBytes):  RWF=     49 Int=      0 D2E=      0 Chk=     27 Scr=      1
 Normal termination of Gaussian 16 at Mon Mar 21 19:55:45 2022.
