 Entering Gaussian System, Link 0=g16
 Input=000007.com
 Output=000007.log
 Initial command:
 /home/sabyasachi/g16/l1.exe "/scratch/sabyasachi/PBS_7975910.helios/Gau-40413.inp" -scrdir="/scratch/sabyasachi/PBS_7975910.helios/"
 Entering Link 1 = /home/sabyasachi/g16/l1.exe PID=     40414.
  
 Copyright (c) 1988-2019, Gaussian, Inc.  All Rights Reserved.
  
 This is part of the Gaussian(R) 16 program.  It is based on
 the Gaussian(R) 09 system (copyright 2009, Gaussian, Inc.),
 the Gaussian(R) 03 system (copyright 2003, Gaussian, Inc.),
 the Gaussian(R) 98 system (copyright 1998, Gaussian, Inc.),
 the Gaussian(R) 94 system (copyright 1995, Gaussian, Inc.),
 the Gaussian 92(TM) system (copyright 1992, Gaussian, Inc.),
 the Gaussian 90(TM) system (copyright 1990, Gaussian, Inc.),
 the Gaussian 88(TM) system (copyright 1988, Gaussian, Inc.),
 the Gaussian 86(TM) system (copyright 1986, Carnegie Mellon
 University), and the Gaussian 82(TM) system (copyright 1983,
 Carnegie Mellon University). Gaussian is a federally registered
 trademark of Gaussian, Inc.
  
 This software contains proprietary and confidential information,
 including trade secrets, belonging to Gaussian, Inc.
  
 This software is provided under written license and may be
 used, copied, transmitted, or stored only in accord with that
 written license.
  
 The following legend is applicable only to US Government
 contracts under FAR:
  
                    RESTRICTED RIGHTS LEGEND
  
 Use, reproduction and disclosure by the US Government is
 subject to restrictions as set forth in subparagraphs (a)
 and (c) of the Commercial Computer Software - Restricted
 Rights clause in FAR 52.227-19.
  
 Gaussian, Inc.
 340 Quinnipiac St., Bldg. 40, Wallingford CT 06492
  
  
 ---------------------------------------------------------------
 Warning -- This program may not be used in any manner that
 competes with the business of Gaussian, Inc. or will provide
 assistance to any competitor of Gaussian, Inc.  The licensee
 of this program is prohibited from giving any competitor of
 Gaussian, Inc. access to this program.  By using this program,
 the user acknowledges that Gaussian, Inc. is engaged in the
 business of creating and licensing software in the field of
 computational chemistry and represents and warrants to the
 licensee that it is not a competitor of Gaussian, Inc. and that
 it will not use this program in any manner prohibited above.
 ---------------------------------------------------------------
  

 Cite this work as:
 Gaussian 16, Revision C.01,
 M. J. Frisch, G. W. Trucks, H. B. Schlegel, G. E. Scuseria, 
 M. A. Robb, J. R. Cheeseman, G. Scalmani, V. Barone, 
 G. A. Petersson, H. Nakatsuji, X. Li, M. Caricato, A. V. Marenich, 
 J. Bloino, B. G. Janesko, R. Gomperts, B. Mennucci, H. P. Hratchian, 
 J. V. Ortiz, A. F. Izmaylov, J. L. Sonnenberg, D. Williams-Young, 
 F. Ding, F. Lipparini, F. Egidi, J. Goings, B. Peng, A. Petrone, 
 T. Henderson, D. Ranasinghe, V. G. Zakrzewski, J. Gao, N. Rega, 
 G. Zheng, W. Liang, M. Hada, M. Ehara, K. Toyota, R. Fukuda, 
 J. Hasegawa, M. Ishida, T. Nakajima, Y. Honda, O. Kitao, H. Nakai, 
 T. Vreven, K. Throssell, J. A. Montgomery, Jr., J. E. Peralta, 
 F. Ogliaro, M. J. Bearpark, J. J. Heyd, E. N. Brothers, K. N. Kudin, 
 V. N. Staroverov, T. A. Keith, R. Kobayashi, J. Normand, 
 K. Raghavachari, A. P. Rendell, J. C. Burant, S. S. Iyengar, 
 J. Tomasi, M. Cossi, J. M. Millam, M. Klene, C. Adamo, R. Cammi, 
 J. W. Ochterski, R. L. Martin, K. Morokuma, O. Farkas, 
 J. B. Foresman, and D. J. Fox, Gaussian, Inc., Wallingford CT, 2019.
 
 ******************************************
 Gaussian 16:  EM64L-G16RevC.01  3-Jul-2019
                21-Mar-2022 
 ******************************************
 %mem=64gb
 %nproc=8
 Will use up to    8 processors via shared memory.
 --------------------------------------------------------------------
 #P TD(Nstates=10000) blyp/Gen SCF(maxcycles=100) Int(Grid=ultrafine)
 --------------------------------------------------------------------
 1/38=1,172=1/1;
 2/12=2,17=6,18=5,40=1/2;
 3/5=7,11=9,25=1,30=1,74=402,75=-5/1,2,3,8;
 4//1;
 5/5=2,7=100,38=5/2;
 8/6=1,10=1,108=10000/1;
 9/41=10000,42=1,70=2/14;
 6/7=2,8=2,9=2,10=2/1;
 99/5=1,9=1/99;
 Leave Link    1 at Mon Mar 21 19:58:00 2022, MaxMem=  8589934592 cpu:               0.4 elap:               0.1
 (Enter /home/sabyasachi/g16/l101.exe)
 ---------------------
 xGDB7_00001_tier4.com
 ---------------------
 Symbolic Z-matrix:
 Charge =  0 Multiplicity = 1
 6                     0.04642   0.65843   0. 
 8                     0.04642  -0.75193   0. 
 1                    -0.43891   1.07326   0.8908 
 1                    -0.43891   1.07326  -0.8908 
 1                     1.08786   0.97757   0. 
 1                    -0.85991  -1.05925   0. 
 
 ITRead=  0  0  0  0  0  0
 MicOpt= -1 -1 -1 -1 -1 -1
 NAtoms=      6 NQM=        6 NQMF=       0 NMMI=      0 NMMIF=      0
                NMic=       0 NMicF=      0.
                    Isotopes and Nuclear Properties:
 (Nuclear quadrupole moments (NQMom) in fm**2, nuclear magnetic moments (NMagM)
  in nuclear magnetons)

  Atom         1           2           3           4           5           6
 IAtWgt=          12          16           1           1           1           1
 AtmWgt=  12.0000000  15.9949146   1.0078250   1.0078250   1.0078250   1.0078250
 NucSpn=           0           0           1           1           1           1
 AtZEff=  -0.0000000  -0.0000000  -0.0000000  -0.0000000  -0.0000000  -0.0000000
 NQMom=    0.0000000   0.0000000   0.0000000   0.0000000   0.0000000   0.0000000
 NMagM=    0.0000000   0.0000000   2.7928460   2.7928460   2.7928460   2.7928460
 AtZNuc=   6.0000000   8.0000000   1.0000000   1.0000000   1.0000000   1.0000000
 Leave Link  101 at Mon Mar 21 19:58:00 2022, MaxMem=  8589934592 cpu:               0.6 elap:               0.1
 (Enter /home/sabyasachi/g16/l202.exe)
                          Input orientation:                          
 ---------------------------------------------------------------------
 Center     Atomic      Atomic             Coordinates (Angstroms)
 Number     Number       Type             X           Y           Z
 ---------------------------------------------------------------------
      1          6           0        0.046419    0.658432    0.000000
      2          8           0        0.046419   -0.751929    0.000000
      3          1           0       -0.438905    1.073261    0.890797
      4          1           0       -0.438905    1.073261   -0.890797
      5          1           0        1.087855    0.977571    0.000000
      6          1           0       -0.859911   -1.059251    0.000000
 ---------------------------------------------------------------------
                    Distance matrix (angstroms):
                    1          2          3          4          5
     1  C    0.000000
     2  O    1.410361   0.000000
     3  H    1.095966   2.088152   0.000000
     4  H    1.095966   2.088152   1.781594   0.000000
     5  H    1.089238   2.018851   1.770218   1.770218   0.000000
     6  H    1.942130   0.957017   2.349122   2.349122   2.818233
                    6
     6  H    0.000000
 Stoichiometry    CH4O
 Framework group  CS[SG(CH2O),X(H2)]
 Deg. of freedom     8
 Full point group                 CS      NOp   2
 Largest Abelian subgroup         CS      NOp   2
 Largest concise Abelian subgroup CS      NOp   2
                         Standard orientation:                         
 ---------------------------------------------------------------------
 Center     Atomic      Atomic             Coordinates (Angstroms)
 Number     Number       Type             X           Y           Z
 ---------------------------------------------------------------------
      1          6           0        0.046419    0.658432    0.000000
      2          8           0        0.046419   -0.751929    0.000000
      3          1           0       -0.438905    1.073261    0.890797
      4          1           0       -0.438905    1.073261   -0.890797
      5          1           0        1.087855    0.977571    0.000000
      6          1           0       -0.859911   -1.059251    0.000000
 ---------------------------------------------------------------------
 Rotational constants (GHZ):         128.7867885          25.0443601          24.1755020
 Leave Link  202 at Mon Mar 21 19:58:00 2022, MaxMem=  8589934592 cpu:               0.1 elap:               0.0
 (Enter /home/sabyasachi/g16/l301.exe)
 General basis read from cards:  (5D, 7F)
 Centers:       3      4      5      6
 S 3 1.00
     Exponent=  1.3010701000D+01 Coefficients=  1.9682158000D-02
     Exponent=  1.9622572000D+00 Coefficients=  1.3796524000D-01
     Exponent=  4.4453796000D-01 Coefficients=  4.7831935000D-01
 S 1 1.00
     Exponent=  1.2194962000D-01 Coefficients=  1.0000000000D+00
 P 1 1.00
     Exponent=  8.0000000000D-01 Coefficients=  1.0000000000D+00
 P 1 1.00
     Exponent=  1.1704099050D-01 Coefficients=  1.0000000000D+00
 ****
 Centers:       1
 S 5 1.00
     Exponent=  1.2384016938D+03 Coefficients=  5.4568832082D-03
     Exponent=  1.8629004992D+02 Coefficients=  4.0638409211D-02
     Exponent=  4.2251176346D+01 Coefficients=  1.8025593888D-01
     Exponent=  1.1676557932D+01 Coefficients=  4.6315121755D-01
     Exponent=  3.5930506482D+00 Coefficients=  4.4087173314D-01
 S 1 1.00
     Exponent=  4.0245147363D-01 Coefficients=  1.0000000000D+00
 S 1 1.00
     Exponent=  1.3090182668D-01 Coefficients=  1.0000000000D+00
 S 1 1.00
     Exponent=  6.7053540256D-02 Coefficients=  1.0000000000D+00
 P 3 1.00
     Exponent=  9.4680970621D+00 Coefficients=  3.8387871728D-02
     Exponent=  2.0103545142D+00 Coefficients=  2.1117025112D-01
     Exponent=  5.4771004707D-01 Coefficients=  5.1328172114D-01
 P 1 1.00
     Exponent=  1.5268613795D-01 Coefficients=  1.0000000000D+00
 D 1 1.00
     Exponent=  8.0000000000D-01 Coefficients=  1.0000000000D+00
 D 1 1.00
     Exponent=  1.1713185140D-01 Coefficients=  1.0000000000D+00
 ****
 Centers:       2
 S 5 1.00
     Exponent=  2.2661767785D+03 Coefficients= -5.3431809926D-03
     Exponent=  3.4087010191D+02 Coefficients= -3.9890039230D-02
     Exponent=  7.7363135167D+01 Coefficients= -1.7853911985D-01
     Exponent=  2.1479644940D+01 Coefficients= -4.6427684959D-01
     Exponent=  6.6589433124D+00 Coefficients= -4.4309745172D-01
 S 1 1.00
     Exponent=  8.0975975668D-01 Coefficients=  1.0000000000D+00
 S 1 1.00
     Exponent=  2.5530772234D-01 Coefficients=  1.0000000000D+00
 S 1 1.00
     Exponent=  7.6572453250D-02 Coefficients=  1.0000000000D+00
 P 3 1.00
     Exponent=  1.7721504317D+01 Coefficients=  4.3394573193D-02
     Exponent=  3.8635505440D+00 Coefficients=  2.3094120765D-01
     Exponent=  1.0480920883D+00 Coefficients=  5.1375311064D-01
 P 1 1.00
     Exponent=  2.7641544411D-01 Coefficients=  1.0000000000D+00
 P 1 1.00
     Exponent=  6.9002276350D-02 Coefficients=  1.0000000000D+00
 D 1 1.00
     Exponent=  1.2000000000D+00 Coefficients=  1.0000000000D+00
 D 1 1.00
     Exponent=  1.7992024323D-01 Coefficients=  1.0000000000D+00
 ****
 Ernie: Thresh=  0.10000D-02 Tol=  0.10000D-05 Strict=F.
 There are    54 symmetry adapted cartesian basis functions of A'  symmetry.
 There are    25 symmetry adapted cartesian basis functions of A"  symmetry.
 There are    50 symmetry adapted basis functions of A'  symmetry.
 There are    25 symmetry adapted basis functions of A"  symmetry.
    75 basis functions,   107 primitive gaussians,    79 cartesian basis functions
     9 alpha electrons        9 beta electrons
       nuclear repulsion energy        40.4621956244 Hartrees.
 IExCor=  402 DFT=T Ex=B Corr=LYP ExCW=0 ScaHFX=  0.000000
 ScaDFX=  1.000000  1.000000  1.000000  1.000000 ScalE2=  1.000000  1.000000
 IRadAn=      5 IRanWt=     -1 IRanGd=            0 ICorTp=0 IEmpDi=  4
 NAtoms=    6 NActive=    6 NUniq=    5 SFac= 1.44D+00 NAtFMM=   60 NAOKFM=F Big=F
 Integral buffers will be    131072 words long.
 Regular integral format.
 Two-electron integral symmetry is turned on.
 Leave Link  301 at Mon Mar 21 19:58:00 2022, MaxMem=  8589934592 cpu:               0.5 elap:               0.1
 (Enter /home/sabyasachi/g16/l302.exe)
 NPDir=0 NMtPBC=     1 NCelOv=     1 NCel=       1 NClECP=     1 NCelD=      1
         NCelK=      1 NCelE2=     1 NClLst=     1 CellRange=     0.0.
 One-electron integrals computed using PRISM.
 One-electron integral symmetry used in STVInt
 NBasis=    75 RedAO= T EigKep=  5.97D-04  NBF=    50    25
 NBsUse=    75 1.00D-06 EigRej= -1.00D+00 NBFU=    50    25
 Precomputing XC quadrature grid using
 IXCGrd= 4 IRadAn=           5 IRanWt=          -1 IRanGd=           0 AccXCQ= 0.00D+00.
 Generated NRdTot=       0 NPtTot=           0 NUsed=           0 NTot=          32
 NSgBfM=    79    79    79    79    79 MxSgAt=     6 MxSgA2=     6.
 Leave Link  302 at Mon Mar 21 19:58:00 2022, MaxMem=  8589934592 cpu:               0.9 elap:               0.1
 (Enter /home/sabyasachi/g16/l303.exe)
 DipDrv:  MaxL=1.
 Leave Link  303 at Mon Mar 21 19:58:00 2022, MaxMem=  8589934592 cpu:               0.2 elap:               0.1
 (Enter /home/sabyasachi/g16/l308.exe)
 Leave Link  308 at Mon Mar 21 19:58:00 2022, MaxMem=  8589934592 cpu:               0.2 elap:               0.0
 (Enter /home/sabyasachi/g16/l401.exe)
 ExpMin= 6.71D-02 ExpMax= 2.27D+03 ExpMxC= 3.41D+02 IAcc=3 IRadAn=         5 AccDes= 0.00D+00
 Harris functional with IExCor=  402 and IRadAn=       5 diagonalized for initial guess.
 HarFok:  IExCor=  402 AccDes= 0.00D+00 IRadAn=         5 IDoV= 1 UseB2=F ITyADJ=14
 ICtDFT=  3500011 ScaDFX=  1.000000  1.000000  1.000000  1.000000
 FoFCou: FMM=F IPFlag=           0 FMFlag=      100000 FMFlg1=           0
         NFxFlg=           0 DoJE=T BraDBF=F KetDBF=T FulRan=T
         wScrn=  0.000000 ICntrl=       500 IOpCl=  0 I1Cent=   200000004 NGrid=           0
         NMat0=    1 NMatS0=      1 NMatT0=    0 NMatD0=    1 NMtDS0=    0 NMtDT0=    0
 Petite list used in FoFCou.
 Harris En= -115.670646996587    
 JPrj=0 DoOrth=F DoCkMO=F.
 Initial guess orbital symmetries:
       Occupied  (A') (A') (A') (A') (A') (A") (A') (A') (A")
       Virtual   (A') (A') (A') (A") (A') (A') (A") (A') (A") (A')
                 (A') (A') (A') (A") (A") (A') (A') (A") (A') (A")
                 (A') (A') (A") (A') (A') (A") (A') (A') (A") (A')
                 (A') (A") (A') (A') (A") (A') (A") (A') (A') (A')
                 (A") (A') (A") (A') (A") (A') (A') (A") (A') (A")
                 (A') (A") (A') (A') (A') (A') (A") (A') (A') (A")
                 (A') (A") (A") (A') (A') (A')
 The electronic state of the initial guess is 1-A'.
 Leave Link  401 at Mon Mar 21 19:58:01 2022, MaxMem=  8589934592 cpu:               1.5 elap:               0.2
 (Enter /home/sabyasachi/g16/l502.exe)
 Keep J ints in memory in symmetry-blocked form, NReq=11285045.
 FoFCou: FMM=F IPFlag=           0 FMFlag=           0 FMFlg1=           0
         NFxFlg=           0 DoJE=F BraDBF=F KetDBF=F FulRan=T
         wScrn=  0.000000 ICntrl=       600 IOpCl=  0 I1Cent=           0 NGrid=           0
         NMat0=    1 NMatS0=   2850 NMatT0=    0 NMatD0=    1 NMtDS0=    0 NMtDT0=    0
 Petite list used in FoFCou.
 Closed shell SCF:
 Using DIIS extrapolation, IDIIS=  1040.
 NGot=  8589934592 LenX=  8587850961 LenY=  8587844279
 Requested convergence on RMS density matrix=1.00D-08 within 100 cycles.
 Requested convergence on MAX density matrix=1.00D-06.
 Requested convergence on             energy=1.00D-06.
 No special actions if energy rises.
 Integral accuracy reduced to 1.0D-05 until final iterations.

 Cycle   1  Pass 0  IDiag  1:
 E= -115.529785645788    
 DIIS: error= 2.84D-02 at cycle   1 NSaved=   1.
 NSaved= 1 IEnMin= 1 EnMin= -115.529785645788     IErMin= 1 ErrMin= 2.84D-02
 ErrMax= 2.84D-02  0.00D+00 EMaxC= 1.00D-01 BMatC= 7.61D-02 BMatP= 7.61D-02
 IDIUse=3 WtCom= 7.16D-01 WtEn= 2.84D-01
 Coeff-Com:  0.100D+01
 Coeff-En:   0.100D+01
 Coeff:      0.100D+01
 Gap=     0.121 Goal=   None    Shift=    0.000
 GapD=    0.121 DampG=1.000 DampE=0.500 DampFc=0.5000 IDamp=-1.
 Damping current iteration by 5.00D-01
 RMSDP=8.21D-03 MaxDP=1.62D-01              OVMax= 2.33D-01

 Cycle   2  Pass 0  IDiag  1:
 E= -115.531015672290     Delta-E=       -0.001230026502 Rises=F Damp=T
 DIIS: error= 1.70D-02 at cycle   2 NSaved=   2.
 NSaved= 2 IEnMin= 2 EnMin= -115.531015672290     IErMin= 2 ErrMin= 1.70D-02
 ErrMax= 1.70D-02  0.00D+00 EMaxC= 1.00D-01 BMatC= 2.28D-02 BMatP= 7.61D-02
 IDIUse=3 WtCom= 8.30D-01 WtEn= 1.70D-01
 Coeff-Com:  0.341D+00 0.659D+00
 Coeff-En:   0.494D+00 0.506D+00
 Coeff:      0.367D+00 0.633D+00
 Gap=     0.220 Goal=   None    Shift=    0.000
 RMSDP=1.97D-03 MaxDP=3.49D-02 DE=-1.23D-03 OVMax= 1.63D-01

 Cycle   3  Pass 0  IDiag  1:
 E= -115.600527941712     Delta-E=       -0.069512269422 Rises=F Damp=F
 DIIS: error= 7.15D-03 at cycle   3 NSaved=   3.
 NSaved= 3 IEnMin= 3 EnMin= -115.600527941712     IErMin= 3 ErrMin= 7.15D-03
 ErrMax= 7.15D-03  0.00D+00 EMaxC= 1.00D-01 BMatC= 3.82D-03 BMatP= 2.28D-02
 IDIUse=3 WtCom= 9.29D-01 WtEn= 7.15D-02
 Coeff-Com:  0.170D+00 0.345D+00 0.484D+00
 Coeff-En:   0.000D+00 0.000D+00 0.100D+01
 Coeff:      0.158D+00 0.321D+00 0.521D+00
 Gap=     0.223 Goal=   None    Shift=    0.000
 RMSDP=9.48D-04 MaxDP=2.41D-02 DE=-6.95D-02 OVMax= 2.20D-02

 Cycle   4  Pass 0  IDiag  1:
 E= -115.603651660481     Delta-E=       -0.003123718769 Rises=F Damp=F
 DIIS: error= 2.26D-03 at cycle   4 NSaved=   4.
 NSaved= 4 IEnMin= 4 EnMin= -115.603651660481     IErMin= 4 ErrMin= 2.26D-03
 ErrMax= 2.26D-03  0.00D+00 EMaxC= 1.00D-01 BMatC= 5.93D-04 BMatP= 3.82D-03
 IDIUse=3 WtCom= 9.77D-01 WtEn= 2.26D-02
 Coeff-Com:  0.513D-01 0.109D+00 0.296D+00 0.544D+00
 Coeff-En:   0.000D+00 0.000D+00 0.108D+00 0.892D+00
 Coeff:      0.502D-01 0.106D+00 0.292D+00 0.552D+00
 Gap=     0.222 Goal=   None    Shift=    0.000
 RMSDP=2.98D-04 MaxDP=7.32D-03 DE=-3.12D-03 OVMax= 6.86D-03

 Cycle   5  Pass 0  IDiag  1:
 E= -115.604172694865     Delta-E=       -0.000521034384 Rises=F Damp=F
 DIIS: error= 3.10D-04 at cycle   5 NSaved=   5.
 NSaved= 5 IEnMin= 5 EnMin= -115.604172694865     IErMin= 5 ErrMin= 3.10D-04
 ErrMax= 3.10D-04  0.00D+00 EMaxC= 1.00D-01 BMatC= 7.00D-06 BMatP= 5.93D-04
 IDIUse=3 WtCom= 9.97D-01 WtEn= 3.10D-03
 Coeff-Com:  0.204D-02 0.654D-02 0.413D-01 0.154D+00 0.796D+00
 Coeff-En:   0.000D+00 0.000D+00 0.000D+00 0.000D+00 0.100D+01
 Coeff:      0.204D-02 0.652D-02 0.412D-01 0.154D+00 0.796D+00
 Gap=     0.222 Goal=   None    Shift=    0.000
 RMSDP=4.59D-05 MaxDP=7.10D-04 DE=-5.21D-04 OVMax= 7.32D-04

 Cycle   6  Pass 0  IDiag  1:
 E= -115.604178636706     Delta-E=       -0.000005941841 Rises=F Damp=F
 DIIS: error= 1.60D-05 at cycle   6 NSaved=   6.
 NSaved= 6 IEnMin= 6 EnMin= -115.604178636706     IErMin= 6 ErrMin= 1.60D-05
 ErrMax= 1.60D-05  0.00D+00 EMaxC= 1.00D-01 BMatC= 3.19D-08 BMatP= 7.00D-06
 IDIUse=1 WtCom= 1.00D+00 WtEn= 0.00D+00
 Coeff-Com:  0.175D-03-0.534D-04 0.405D-02 0.182D-01 0.126D+00 0.852D+00
 Coeff:      0.175D-03-0.534D-04 0.405D-02 0.182D-01 0.126D+00 0.852D+00
 Gap=     0.222 Goal=   None    Shift=    0.000
 RMSDP=4.03D-06 MaxDP=5.30D-05 DE=-5.94D-06 OVMax= 5.95D-05

 Initial convergence to 1.0D-05 achieved.  Increase integral accuracy.
 Cycle   7  Pass 1  IDiag  1:
 E= -115.604176171480     Delta-E=        0.000002465227 Rises=F Damp=F
 DIIS: error= 5.29D-06 at cycle   1 NSaved=   1.
 NSaved= 1 IEnMin= 1 EnMin= -115.604176171480     IErMin= 1 ErrMin= 5.29D-06
 ErrMax= 5.29D-06  0.00D+00 EMaxC= 1.00D-01 BMatC= 2.45D-09 BMatP= 2.45D-09
 IDIUse=1 WtCom= 1.00D+00 WtEn= 0.00D+00
 Coeff-Com:  0.100D+01
 Coeff:      0.100D+01
 Gap=     0.222 Goal=   None    Shift=    0.000
 RMSDP=4.03D-06 MaxDP=5.30D-05 DE= 2.47D-06 OVMax= 3.42D-05

 Cycle   8  Pass 1  IDiag  1:
 E= -115.604176171815     Delta-E=       -0.000000000335 Rises=F Damp=F
 DIIS: error= 5.04D-06 at cycle   2 NSaved=   2.
 NSaved= 2 IEnMin= 2 EnMin= -115.604176171815     IErMin= 2 ErrMin= 5.04D-06
 ErrMax= 5.04D-06  0.00D+00 EMaxC= 1.00D-01 BMatC= 3.14D-09 BMatP= 2.45D-09
 IDIUse=1 WtCom= 1.00D+00 WtEn= 0.00D+00
 Coeff-Com:  0.534D+00 0.466D+00
 Coeff:      0.534D+00 0.466D+00
 Gap=     0.222 Goal=   None    Shift=    0.000
 RMSDP=7.47D-07 MaxDP=1.42D-05 DE=-3.35D-10 OVMax= 1.79D-05

 Cycle   9  Pass 1  IDiag  1:
 E= -115.604176174366     Delta-E=       -0.000000002551 Rises=F Damp=F
 DIIS: error= 2.10D-06 at cycle   3 NSaved=   3.
 NSaved= 3 IEnMin= 3 EnMin= -115.604176174366     IErMin= 3 ErrMin= 2.10D-06
 ErrMax= 2.10D-06  0.00D+00 EMaxC= 1.00D-01 BMatC= 3.75D-10 BMatP= 2.45D-09
 IDIUse=1 WtCom= 1.00D+00 WtEn= 0.00D+00
 Coeff-Com:  0.250D+00 0.290D+00 0.461D+00
 Coeff:      0.250D+00 0.290D+00 0.461D+00
 Gap=     0.222 Goal=   None    Shift=    0.000
 RMSDP=2.40D-07 MaxDP=4.32D-06 DE=-2.55D-09 OVMax= 5.67D-06

 Cycle  10  Pass 1  IDiag  1:
 E= -115.604176174658     Delta-E=       -0.000000000293 Rises=F Damp=F
 DIIS: error= 3.40D-07 at cycle   4 NSaved=   4.
 NSaved= 4 IEnMin= 4 EnMin= -115.604176174658     IErMin= 4 ErrMin= 3.40D-07
 ErrMax= 3.40D-07  0.00D+00 EMaxC= 1.00D-01 BMatC= 1.65D-11 BMatP= 3.75D-10
 IDIUse=1 WtCom= 1.00D+00 WtEn= 0.00D+00
 Coeff-Com:  0.558D-01 0.738D-01 0.216D+00 0.655D+00
 Coeff:      0.558D-01 0.738D-01 0.216D+00 0.655D+00
 Gap=     0.222 Goal=   None    Shift=    0.000
 RMSDP=6.01D-08 MaxDP=1.38D-06 DE=-2.93D-10 OVMax= 1.30D-06

 Cycle  11  Pass 1  IDiag  1:
 E= -115.604176174668     Delta-E=       -0.000000000010 Rises=F Damp=F
 DIIS: error= 1.81D-07 at cycle   5 NSaved=   5.
 NSaved= 5 IEnMin= 5 EnMin= -115.604176174668     IErMin= 5 ErrMin= 1.81D-07
 ErrMax= 1.81D-07  0.00D+00 EMaxC= 1.00D-01 BMatC= 3.39D-12 BMatP= 1.65D-11
 IDIUse=1 WtCom= 1.00D+00 WtEn= 0.00D+00
 Coeff-Com:  0.175D-02 0.725D-02 0.763D-01 0.389D+00 0.526D+00
 Coeff:      0.175D-02 0.725D-02 0.763D-01 0.389D+00 0.526D+00
 Gap=     0.222 Goal=   None    Shift=    0.000
 RMSDP=2.36D-08 MaxDP=6.04D-07 DE=-9.72D-12 OVMax= 5.88D-07

 Cycle  12  Pass 1  IDiag  1:
 E= -115.604176174670     Delta-E=       -0.000000000002 Rises=F Damp=F
 DIIS: error= 1.24D-08 at cycle   6 NSaved=   6.
 NSaved= 6 IEnMin= 6 EnMin= -115.604176174670     IErMin= 6 ErrMin= 1.24D-08
 ErrMax= 1.24D-08  0.00D+00 EMaxC= 1.00D-01 BMatC= 2.15D-14 BMatP= 3.39D-12
 IDIUse=1 WtCom= 1.00D+00 WtEn= 0.00D+00
 Coeff-Com: -0.546D-03 0.119D-02 0.217D-01 0.117D+00 0.188D+00 0.673D+00
 Coeff:     -0.546D-03 0.119D-02 0.217D-01 0.117D+00 0.188D+00 0.673D+00
 Gap=     0.222 Goal=   None    Shift=    0.000
 RMSDP=3.18D-09 MaxDP=4.10D-08 DE=-2.44D-12 OVMax= 5.26D-08

 SCF Done:  E(RB-LYP) =  -115.604176175     A.U. after   12 cycles
            NFock= 12  Conv=0.32D-08     -V/T= 2.0089
 KE= 1.145810908196D+02 PE=-3.515276516439D+02 EE= 8.088018902525D+01
 Leave Link  502 at Mon Mar 21 19:58:02 2022, MaxMem=  8589934592 cpu:               6.6 elap:               0.9
 (Enter /home/sabyasachi/g16/l801.exe)
 DoSCS=F DFT=T ScalE2(SS,OS)=  1.000000  1.000000
 ExpMin= 6.71D-02 ExpMax= 2.27D+03 ExpMxC= 3.41D+02 IAcc=3 IRadAn=         5 AccDes= 0.00D+00
 HarFok:  IExCor=  205 AccDes= 0.00D+00 IRadAn=         5 IDoV=-2 UseB2=F ITyADJ=14
 ICtDFT= 12500011 ScaDFX=  1.000000  1.000000  1.000000  1.000000
 Largest valence mixing into a core orbital is  6.72D-05
 Largest core mixing into a valence orbital is  1.33D-05
 Range of M.O.s used for correlation:     3    75
 NBasis=    75 NAE=     9 NBE=     9 NFC=     2 NFV=     0
 NROrb=     73 NOA=     7 NOB=     7 NVA=    66 NVB=    66

 **** Warning!!: The largest alpha MO coefficient is  0.21774152D+02

 Leave Link  801 at Mon Mar 21 19:58:02 2022, MaxMem=  8589934592 cpu:               0.5 elap:               0.1
 (Enter /home/sabyasachi/g16/l914.exe)
 RHF ground state
 Keep J ints in memory in symmetry-blocked form, NReq=261710113.
 FoFCou: FMM=F IPFlag=           0 FMFlag=           0 FMFlg1=           0
         NFxFlg=           0 DoJE=F BraDBF=F KetDBF=F FulRan=T
         wScrn=  0.000000 ICntrl=       600 IOpCl=  0 I1Cent=           0 NGrid=           0
         NMat0=    1 NMatS0=   2850 NMatT0=    0 NMatD0=    1 NMtDS0=    0 NMtDT0=    0
 Petite list used in FoFCou.
 MDV=  8589934592 DFT=T DoStab=F Mixed=F DoRPA=T DoScal=T NonHer=F
 Making orbital integer symmetry assigments:
 Orbital symmetries:
       Occupied  (A') (A') (A') (A') (A') (A") (A') (A') (A")
       Virtual   (A') (A') (A") (A') (A') (A') (A") (A') (A") (A')
                 (A') (A') (A") (A') (A") (A') (A") (A') (A") (A')
                 (A') (A') (A") (A') (A') (A") (A') (A') (A") (A')
                 (A') (A") (A') (A') (A") (A') (A") (A') (A') (A')
                 (A") (A') (A") (A') (A") (A') (A') (A") (A") (A')
                 (A') (A") (A') (A') (A') (A') (A") (A') (A') (A")
                 (A') (A") (A") (A') (A') (A')
   462 initial guesses have been made.
 Convergence on wavefunction:    0.001000000000000
 Davidson Disk Diagonalization:  ConvIn= 1.00D-03 SkipCon=T Conv= 1.00D-03.
 Max sub-space:  1848 roots to seek:   924 dimension of matrix:          924
 *** WARNING: Number of orthogonal guesses is          462
 Iteration     1 Dimension   462 NMult     0 NNew    462
 CISAX will form   462 AO SS matrices at one time.
 NMat=   462 NSing=   462 JSym2X=-1.
 New state      4 was old state      5
 New state      5 was old state      4
 New state     17 was old state     18
 New state     18 was old state     19
 New state     19 was old state     17
 New state     22 was old state     23
 New state     23 was old state     22
 New state     28 was old state     29
 New state     29 was old state     30
 New state     30 was old state     32
 New state     32 was old state     33
 New state     33 was old state     35
 New state     34 was old state     36
 New state     35 was old state     28
 New state     36 was old state     37
 New state     37 was old state     34
 New state     38 was old state     39
 New state     39 was old state     40
 New state     40 was old state     41
 New state     41 was old state     38
 New state     43 was old state     44
 New state     44 was old state     45
 New state     45 was old state     47
 New state     47 was old state     49
 New state     49 was old state     43
 New state     52 was old state     53
 New state     53 was old state     52
 New state     54 was old state     55
 New state     55 was old state     57
 New state     57 was old state     59
 New state     58 was old state     54
 New state     59 was old state     60
 New state     60 was old state     61
 New state     61 was old state     58
 New state     64 was old state     65
 New state     65 was old state     64
 New state     66 was old state     67
 New state     67 was old state     69
 New state     69 was old state     66
 New state     72 was old state     73
 New state     73 was old state     72
 New state     75 was old state     77
 New state     76 was old state     79
 New state     77 was old state     76
 New state     78 was old state     75
 New state     79 was old state     81
 New state     81 was old state     82
 New state     82 was old state     83
 New state     83 was old state     87
 New state     84 was old state     86
 New state     85 was old state     84
 New state     86 was old state     85
 New state     87 was old state     78
 New state     88 was old state     92
 New state     89 was old state     91
 New state     91 was old state     89
 New state     92 was old state     93
 New state     93 was old state     94
 New state     94 was old state     88
 New state     95 was old state     97
 New state     96 was old state     95
 New state     97 was old state    101
 New state     98 was old state     99
 New state     99 was old state    100
 New state    100 was old state    103
 New state    101 was old state     96
 New state    102 was old state    104
 New state    103 was old state    107
 New state    104 was old state    106
 New state    106 was old state    102
 New state    107 was old state     98
 New state    108 was old state    112
 New state    110 was old state    114
 New state    112 was old state    110
 New state    114 was old state    115
 New state    115 was old state    117
 New state    117 was old state    118
 New state    118 was old state    120
 New state    120 was old state    122
 New state    121 was old state    127
 New state    122 was old state    123
 New state    123 was old state    125
 New state    124 was old state    121
 New state    125 was old state    124
 New state    127 was old state    130
 New state    128 was old state    132
 New state    129 was old state    128
 New state    130 was old state    129
 New state    131 was old state    133
 New state    132 was old state    131
 New state    133 was old state    135
 New state    135 was old state    136
 New state    136 was old state    138
 New state    137 was old state    140
 New state    138 was old state    139
 New state    139 was old state    137
 New state    140 was old state    141
 New state    141 was old state    146
 New state    142 was old state    147
 New state    143 was old state    145
 New state    145 was old state    150
 New state    146 was old state    148
 New state    147 was old state    149
 New state    148 was old state    151
 New state    149 was old state    143
 New state    150 was old state    152
 New state    151 was old state    142
 New state    152 was old state    154
 New state    154 was old state    157
 New state    156 was old state    158
 New state    157 was old state    156
 New state    158 was old state    159
 New state    159 was old state    160
 New state    160 was old state    164
 New state    161 was old state    162
 New state    162 was old state    165
 New state    164 was old state    168
 New state    165 was old state    170
 New state    168 was old state    172
 New state    169 was old state    171
 New state    170 was old state    169
 New state    171 was old state    161
 New state    172 was old state    173
 New state    173 was old state    174
 New state    174 was old state    176
 New state    176 was old state    177
 New state    177 was old state    178
 New state    178 was old state    180
 New state    180 was old state    181
 New state    181 was old state    182
 New state    182 was old state    183
 New state    183 was old state    185
 New state    185 was old state    190
 New state    187 was old state    188
 New state    188 was old state    189
 New state    189 was old state    187
 New state    190 was old state    191
 New state    191 was old state    192
 New state    192 was old state    193
 New state    193 was old state    194
 New state    194 was old state    195
 New state    195 was old state    198
 New state    196 was old state    197
 New state    197 was old state    196
 New state    198 was old state    199
 New state    199 was old state    200
 New state    200 was old state    201
 New state    201 was old state    214
 New state    202 was old state    203
 New state    203 was old state    202
 New state    204 was old state    205
 New state    205 was old state    204
 New state    209 was old state    211
 New state    210 was old state    212
 New state    211 was old state    213
 New state    212 was old state    215
 New state    213 was old state    218
 New state    214 was old state    216
 New state    215 was old state    217
 New state    216 was old state    220
 New state    217 was old state    219
 New state    218 was old state    210
 New state    219 was old state    222
 New state    220 was old state    221
 New state    221 was old state    224
 New state    222 was old state    226
 New state    224 was old state    225
 New state    225 was old state    227
 New state    226 was old state    230
 New state    227 was old state    228
 New state    228 was old state    229
 New state    229 was old state    231
 New state    230 was old state    233
 New state    231 was old state    232
 New state    232 was old state    234
 New state    233 was old state    242
 New state    234 was old state    236
 New state    235 was old state    240
 New state    236 was old state    237
 New state    237 was old state    235
 New state    240 was old state    241
 New state    241 was old state    243
 New state    242 was old state    248
 New state    243 was old state    244
 New state    244 was old state    245
 New state    245 was old state    246
 New state    246 was old state    247
 New state    247 was old state    249
 New state    248 was old state    251
 New state    249 was old state    250
 New state    250 was old state    255
 New state    251 was old state    252
 New state    252 was old state    253
 New state    253 was old state    254
 New state    254 was old state    256
 New state    255 was old state    258
 New state    256 was old state    257
 No map to state    257
 New state    258 was old state    259
 New state    259 was old state    260
 New state    260 was old state    261
 New state    261 was old state    264
 New state    264 was old state    265
 New state    265 was old state    267
 No map to state    267
 New state    271 was old state    272
 New state    272 was old state    271
 New state    276 was old state    277
 New state    277 was old state    276
 New state    278 was old state    279
 New state    279 was old state    280
 New state    280 was old state    281
 New state    281 was old state    285
 New state    285 was old state    286
 New state    286 was old state    287
 New state    287 was old state    288
 New state    288 was old state    289
 New state    289 was old state    291
 New state    290 was old state    293
 New state    291 was old state    290
 New state    292 was old state    294
 New state    293 was old state    292
 New state    294 was old state    295
 New state    295 was old state    296
 New state    296 was old state    298
 New state    298 was old state    299
 New state    299 was old state    300
 New state    300 was old state    305
 New state    305 was old state    307
 New state    307 was old state    311
 New state    308 was old state    309
 New state    309 was old state    310
 New state    310 was old state    313
 New state    311 was old state    312
 New state    312 was old state    308
 New state    313 was old state    314
 New state    314 was old state    317
 New state    316 was old state    319
 New state    317 was old state    316
 New state    319 was old state    320
 New state    320 was old state    321
 New state    321 was old state    328
 New state    324 was old state    325
 New state    325 was old state    324
 New state    328 was old state    329
 New state    329 was old state    330
 New state    330 was old state    331
 New state    331 was old state    333
 New state    333 was old state    334
 New state    334 was old state    335
 New state    335 was old state    336
 New state    336 was old state    341
 New state    337 was old state    339
 New state    339 was old state    337
 New state    340 was old state    343
 New state    341 was old state    340
 New state    343 was old state    345
 New state    345 was old state    347
 New state    346 was old state    348
 New state    347 was old state    349
 New state    348 was old state    346
 New state    349 was old state    350
 New state    350 was old state    355
 New state    351 was old state    352
 New state    352 was old state    351
 New state    353 was old state    354
 New state    354 was old state    353
 New state    355 was old state    356
 New state    356 was old state    357
 New state    357 was old state    370
 New state    361 was old state    362
 New state    362 was old state    361
 New state    367 was old state    368
 New state    368 was old state    367
 New state    370 was old state    371
 New state    371 was old state    377
 New state    377 was old state    379
 New state    379 was old state    380
 New state    380 was old state    381
 New state    381 was old state    383
 New state    383 was old state    384
 New state    384 was old state    385
 New state    385 was old state    386
 New state    386 was old state    390
 New state    390 was old state    392
 New state    392 was old state    393
 New state    393 was old state    398
 New state    394 was old state    395
 New state    395 was old state    394
 New state    396 was old state    397
 New state    397 was old state    396
 New state    398 was old state    400
 No map to state    400
 New state    402 was old state    403
 New state    403 was old state    402
 New state    408 was old state    409
 New state    409 was old state    408
 New state    412 was old state    414
 New state    414 was old state    412
 New state    415 was old state    416
 New state    416 was old state    415
 New state    419 was old state    422
 New state    422 was old state    423
 New state    423 was old state    419
 New state    428 was old state    429
 New state    429 was old state    428
 New state    431 was old state    432
 New state    432 was old state    433
 New state    433 was old state    431
 New state    435 was old state    436
 New state    436 was old state    437
 New state    437 was old state    438
 New state    438 was old state    435
 New state    439 was old state    440
 New state    440 was old state    441
 New state    441 was old state    442
 New state    442 was old state    439
 New state    446 was old state    447
 New state    447 was old state    446
 New state    448 was old state    449
 New state    449 was old state    448
 Excitation Energies [eV] at current iteration:
 Root      1 :     6.112434430957947
 Root      2 :     7.006219594137612
 Root      3 :     7.753350807282640
 Root      4 :     8.193647920602139
 Root      5 :     8.205284528471870
 Root      6 :     8.673816522128062
 Root      7 :     9.053556695173869
 Root      8 :     9.301621935541514
 Root      9 :     9.776780123818524
 Root     10 :     9.803986638074585
 Root     11 :     9.880702264403784
 Root     12 :    10.223690277278620
 Root     13 :    10.228996902294160
 Root     14 :    10.443197095109240
 Root     15 :    10.481775702954810
 Root     16 :    10.780027568733520
 Root     17 :    11.089255160442000
 Root     18 :    11.197053577903610
 Root     19 :    11.284974123331920
 Root     20 :    11.313548624219440
 Root     21 :    11.397999412095010
 Root     22 :    11.898738884310260
 Root     23 :    11.960657197665070
 Root     24 :    12.193550908664780
 Root     25 :    12.249087837065620
 Root     26 :    12.432679650980260
 Root     27 :    12.471220737908100
 Root     28 :    12.568757299039890
 Root     29 :    13.007574116798890
 Root     30 :    13.141880880672640
 Root     31 :    13.164861103469060
 Root     32 :    13.299713203747710
 Root     33 :    13.314940735607530
 Root     34 :    13.452575630410620
 Root     35 :    13.503533816499040
 Root     36 :    13.535282240225250
 Root     37 :    13.547275065149350
 Root     38 :    13.672867297768670
 Root     39 :    13.782025311953620
 Root     40 :    13.907833430872300
 Root     41 :    14.010350384701490
 Root     42 :    14.209727412360910
 Root     43 :    14.361298853048230
 Root     44 :    14.468070929127040
 Root     45 :    14.484255891856970
 Root     46 :    14.527261302531020
 Root     47 :    14.612416319941160
 Root     48 :    14.699046030299260
 Root     49 :    14.830299558033330
 Root     50 :    14.883738927565210
 Root     51 :    15.104738781427700
 Root     52 :    15.180362890744590
 Root     53 :    15.229057335351990
 Root     54 :    15.267996489216500
 Root     55 :    15.385726907863980
 Root     56 :    15.440000942046030
 Root     57 :    15.584630782383950
 Root     58 :    15.599425951171810
 Root     59 :    15.758090208590360
 Root     60 :    15.841324444851170
 Root     61 :    15.884309071577980
 Root     62 :    16.028905125966600
 Root     63 :    16.176194713198000
 Root     64 :    16.317120509088270
 Root     65 :    16.368644482293360
 Root     66 :    16.501161180298120
 Root     67 :    16.557277532358240
 Root     68 :    16.562949989506580
 Root     69 :    16.779650310375850
 Root     70 :    16.838176685007560
 Root     71 :    17.011302878819790
 Root     72 :    17.137962896268850
 Root     73 :    17.279476425145010
 Root     74 :    17.315678727254690
 Root     75 :    17.451339438385620
 Root     76 :    17.476816016880090
 Root     77 :    17.516827863817490
 Root     78 :    17.617511004038640
 Root     79 :    17.725599816018760
 Root     80 :    17.742149790695860
 Root     81 :    17.802368340537720
 Root     82 :    17.818871022958230
 Root     83 :    18.000911641593140
 Root     84 :    18.027603675823910
 Root     85 :    18.079433492699160
 Root     86 :    18.102092198808620
 Root     87 :    18.248370595512040
 Root     88 :    18.491969995236620
 Root     89 :    18.537603119433000
 Root     90 :    18.684669014655940
 Root     91 :    18.696503433096480
 Root     92 :    18.757041627132330
 Root     93 :    18.873975248160970
 Root     94 :    18.877073674299800
 Root     95 :    19.285460126240370
 Root     96 :    19.296238867687920
 Root     97 :    19.402674609194010
 Root     98 :    19.409048846961750
 Root     99 :    19.494610417012290
 Root    100 :    19.535664741796310
 Root    101 :    19.610992377915850
 Root    102 :    19.622102235242150
 Root    103 :    19.659110895999980
 Root    104 :    19.664562102570030
 Root    105 :    19.719334804364860
 Root    106 :    19.735793052955640
 Root    107 :    19.868593856816670
 Root    108 :    20.037239090071790
 Root    109 :    20.097254112818060
 Root    110 :    20.146727772316830
 Root    111 :    20.148494330289070
 Root    112 :    20.231854706923460
 Root    113 :    20.383945494742290
 Root    114 :    20.519758304198700
 Root    115 :    20.630881746645480
 Root    116 :    20.673642809837360
 Root    117 :    20.705069698399280
 Root    118 :    20.722801284983790
 Root    119 :    20.757380460604160
 Root    120 :    21.213289519676710
 Root    121 :    21.242160493759140
 Root    122 :    21.410146952753670
 Root    123 :    21.484625684117980
 Root    124 :    21.502291779977180
 Root    125 :    21.505031369814510
 Root    126 :    21.777742122356140
 Root    127 :    21.844519112752610
 Root    128 :    21.862928330651130
 Root    129 :    21.997684306287690
 Root    130 :    22.054914586597240
 Root    131 :    22.131545512023630
 Root    132 :    22.298880464203390
 Root    133 :    22.399446891469760
 Root    134 :    22.493744301531620
 Root    135 :    22.612451904829520
 Root    136 :    22.667857489139150
 Root    137 :    22.817198796297930
 Root    138 :    22.906597072123750
 Root    139 :    22.947392026912660
 Root    140 :    23.040807513572600
 Root    141 :    23.254860264767900
 Root    142 :    23.317928194986520
 Root    143 :    23.412256873143610
 Root    144 :    23.542049372747450
 Root    145 :    23.566051428545650
 Root    146 :    23.662784688701820
 Root    147 :    23.764760711256140
 Root    148 :    23.889479261886180
 Root    149 :    23.903571443038220
 Root    150 :    24.152088792873420
 Root    151 :    24.182791043739530
 Root    152 :    24.302526384573020
 Root    153 :    24.335565935165550
 Root    154 :    24.459249540742810
 Root    155 :    24.670154136580770
 Root    156 :    24.833074029856130
 Root    157 :    25.020016663411290
 Root    158 :    25.218265468124450
 Root    159 :    25.327466290483950
 Root    160 :    25.419642838262640
 Root    161 :    25.576899729763910
 Root    162 :    25.706686254962110
 Root    163 :    25.750968099167100
 Root    164 :    25.913962848055890
 Root    165 :    26.003750234099650
 Root    166 :    26.090790599601670
 Root    167 :    26.194880262712490
 Root    168 :    26.237536006485630
 Root    169 :    26.352383483706540
 Root    170 :    26.406713294901250
 Root    171 :    26.682672380880970
 Root    172 :    26.913648406476100
 Root    173 :    26.970213048625870
 Root    174 :    27.019050080925690
 Root    175 :    27.118103501239220
 Root    176 :    27.234893196528850
 Root    177 :    27.433264818414400
 Root    178 :    27.501404302114970
 Root    179 :    27.551963724436720
 Root    180 :    27.824415635816310
 Root    181 :    27.883807734245960
 Root    182 :    28.146065770133250
 Root    183 :    28.186653812246050
 Root    184 :    28.224297703448240
 Root    185 :    28.302616278255950
 Root    186 :    28.419451084765000
 Root    187 :    28.433494388098480
 Root    188 :    28.490099645667040
 Root    189 :    28.571274789722680
 Root    190 :    28.733054177716220
 Root    191 :    28.956037109218460
 Root    192 :    29.127165182852660
 Root    193 :    29.242229736054690
 Root    194 :    29.282903975707200
 Root    195 :    29.377138093396980
 Root    196 :    29.520709763768290
 Root    197 :    29.660091920243080
 Root    198 :    30.028500336215270
 Root    199 :    30.217476646870070
 Root    200 :    30.320972277159090
 Root    201 :    30.492682886072020
 Root    202 :    30.836626715513110
 Root    203 :    30.959900785413270
 Root    204 :    31.161426206653290
 Root    205 :    31.306807386763050
 Root    206 :    31.803038218192000
 Root    207 :    31.914197779243950
 Root    208 :    32.092097168460420
 Root    209 :    32.102238798318290
 Root    210 :    32.215214093286050
 Root    211 :    32.270311200462150
 Root    212 :    32.430414605386790
 Root    213 :    32.430565893408310
 Root    214 :    32.622274994437710
 Root    215 :    32.636281703306260
 Root    216 :    32.928534005035210
 Root    217 :    33.051290393497340
 Root    218 :    33.138567925392590
 Root    219 :    33.452364401625350
 Root    220 :    33.525371626081610
 Root    221 :    33.598803958946200
 Root    222 :    33.636206692661270
 Root    223 :    33.665474658940540
 Root    224 :    33.889182506363210
 Root    225 :    34.098386121995920
 Root    226 :    34.229991116881570
 Root    227 :    34.279940124211630
 Root    228 :    34.489388605901130
 Root    229 :    34.524114571176850
 Root    230 :    34.747462698840340
 Root    231 :    34.855477884858050
 Root    232 :    34.910494108938600
 Root    233 :    34.973250515511520
 Root    234 :    35.233444318516180
 Root    235 :    35.241902977906330
 Root    236 :    35.342657741263910
 Root    237 :    35.595849558702670
 Root    238 :    35.924927014379830
 Root    239 :    36.036274031416420
 Root    240 :    36.264666290047370
 Root    241 :    36.391092129414850
 Root    242 :    36.526555049330800
 Root    243 :    36.621734982782310
 Root    244 :    36.793947607822020
 Root    245 :    36.826747100736040
 Root    246 :    36.982392304268340
 Root    247 :    37.123154057872390
 Root    248 :    37.485708932522490
 Root    249 :    38.075459108244440
 Root    250 :    38.104684540630810
 Root    251 :    38.198777417181110
 Root    252 :    38.390314654814820
 Root    253 :    38.525501160156510
 Root    254 :    38.697365020358200
 Root    255 :    38.903132299175940
 Root    256 :    39.207711590340540
 Root    257 :    39.466365485175880
 Root    258 :    39.734606875742700
 Root    259 :    40.173915474280380
 Root    260 :    40.189098076151320
 Root    261 :    40.853112083162490
 Root    262 :    40.870983527598060
 Root    263 :    41.087801346768980
 Root    264 :    41.593210185624130
 Root    265 :    41.663596698707710
 Root    266 :    42.005998991171430
 Root    267 :    42.172215179679890
 Root    268 :    42.489687910925470
 Root    269 :    42.785719312348920
 Root    270 :    43.458688561244290
 Root    271 :    44.707438321325680
 Root    272 :    45.328655350828930
 Root    273 :    45.820281294759830
 Root    274 :    45.916624003983770
 Root    275 :    46.159335083914200
 Root    276 :    46.215415263905810
 Root    277 :    46.285962226408800
 Root    278 :    47.022908611497830
 Root    279 :    47.279843499796720
 Root    280 :    47.478286007411090
 Root    281 :    47.872941771442290
 Root    282 :    48.247557417845850
 Root    283 :    48.294207313056360
 Root    284 :    48.726359827202520
 Root    285 :    48.933920649644670
 Root    286 :    49.060796136803080
 Root    287 :    49.796785706661780
 Root    288 :    49.969152706008460
 Root    289 :    50.096284530600270
 Root    290 :    50.209618207378150
 Root    291 :    50.350047281695820
 Root    292 :    50.619498770775580
 Root    293 :    50.756144113697960
 Root    294 :    50.787648138369310
 Root    295 :    50.874990665038690
 Root    296 :    50.984893911873560
 Root    297 :    51.130656168380530
 Root    298 :    51.677104445846180
 Root    299 :    51.864096661325730
 Root    300 :    52.163541980832570
 Root    301 :    52.196913192410020
 Root    302 :    52.995785299636320
 Root    303 :    53.324087500187130
 Root    304 :    53.768562926469510
 Root    305 :    54.102253268610310
 Root    306 :    54.121824197246960
 Root    307 :    54.288659981944030
 Root    308 :    54.504692009078390
 Root    309 :    54.586433518487890
 Root    310 :    54.955606808071740
 Root    311 :    55.049632584618160
 Root    312 :    55.109818798126400
 Root    313 :    55.606204737571320
 Root    314 :    55.610788239209690
 Root    315 :    56.218132606349530
 Root    316 :    56.454710688548330
 Root    317 :    56.614822047098660
 Root    318 :    56.878581146328690
 Root    319 :    56.997593025206640
 Root    320 :    57.400527399368140
 Root    321 :    57.531060633518100
 Root    322 :    57.539543477025940
 Root    323 :    57.973021626730460
 Root    324 :    58.317887646519760
 Root    325 :    58.403082011305440
 Root    326 :    58.555867172798720
 Root    327 :    58.758062295182820
 Root    328 :    59.603848926771640
 Root    329 :    59.905975197956070
 Root    330 :    60.225096764282310
 Root    331 :    60.332880430819440
 Root    332 :    60.348348816833170
 Root    333 :    60.792333485591830
 Root    334 :    60.891413551564420
 Root    335 :    61.059673233676060
 Root    336 :    61.140476330282910
 Root    337 :    61.262460701292180
 Root    338 :    61.405687532174730
 Root    339 :    61.440066156680640
 Root    340 :    62.589364106824690
 Root    341 :    62.590171908359780
 Root    342 :    62.669123398197630
 Root    343 :    62.867826789882050
 Root    344 :    63.254274776180520
 Root    345 :    63.455036176451130
 Root    346 :    63.577738972229990
 Root    347 :    63.758646625505900
 Root    348 :    63.905352138229330
 Root    349 :    63.968513738838230
 Root    350 :    64.144675257196670
 Root    351 :    64.267867034419740
 Root    352 :    64.374199232973650
 Root    353 :    64.754878262279950
 Root    354 :    64.799186263963490
 Root    355 :    65.223582521617060
 Root    356 :    65.350618989639600
 Root    357 :    65.464573581648150
 Root    358 :    65.891401144704570
 Root    359 :    66.163132828573000
 Root    360 :    66.763522363494160
 Root    361 :    66.974067812961950
 Root    362 :    67.063661231481890
 Root    363 :    67.270068335900530
 Root    364 :    67.346657531054280
 Root    365 :    68.035937980171160
 Root    366 :    68.477548773478720
 Root    367 :    68.761900700441970
 Root    368 :    68.818800273178400
 Root    369 :    68.878237407373390
 Root    370 :    69.685849984912760
 Root    371 :    69.827632489605690
 Root    372 :    69.901315164277410
 Root    373 :    70.332401853918510
 Root    374 :    70.422877862957240
 Root    375 :    71.090126700811990
 Root    376 :    71.446970880416660
 Root    377 :    72.204976450141470
 Root    378 :    72.259045571756990
 Root    379 :    72.468210331268490
 Root    380 :    72.601625657731050
 Root    381 :    72.850011797796100
 Root    382 :    72.920859250166700
 Root    383 :    72.978583243030840
 Root    384 :    73.824176366189140
 Root    385 :    74.007141867568250
 Root    386 :    74.778562838200930
 Root    387 :    75.471447911952010
 Root    388 :    75.734812492623550
 Root    389 :    75.807360125033040
 Root    390 :    76.059682059434380
 Root    391 :    76.227710453071960
 Root    392 :    76.437879134207150
 Root    393 :    76.660350130406060
 Root    394 :    77.404744326921370
 Root    395 :    77.534936457611750
 Root    396 :    78.558582426438930
 Root    397 :    78.582035177133700
 Root    398 :    78.643952895970630
 Root    399 :    78.965800067026310
 Root    400 :    80.144620577509910
 Root    401 :    80.503556671864790
 Root    402 :    81.432078246292050
 Root    403 :    81.471988425327350
 Root    404 :    82.427566062854580
 Root    405 :    82.959700999857320
 Root    406 :    83.159345254431730
 Root    407 :    84.928547161125520
 Root    408 :    85.163093084816450
 Root    409 :    85.451090774686750
 Root    410 :    85.807754394633020
 Root    411 :    86.029479928160900
 Root    412 :    87.076499354604020
 Root    413 :    87.603027679763540
 Root    414 :    88.200958629679230
 Root    415 :    88.349853570186080
 Root    416 :    88.605361376039650
 Root    417 :    88.835384441652270
 Root    418 :    89.362530067991660
 Root    419 :    90.042362798899590
 Root    420 :    90.054910579307760
 Root    421 :    90.254267429233990
 Root    422 :    90.505210072679250
 Root    423 :    90.560097349097760
 Root    424 :    90.807647074697140
 Root    425 :    90.930064843329830
 Root    426 :    90.976302018255420
 Root    427 :    91.418789768012390
 Root    428 :    92.101626808582950
 Root    429 :    92.224273977069560
 Root    430 :    92.632744934442830
 Root    431 :    93.386979545322820
 Root    432 :    93.816062791959140
 Root    433 :    94.021796615891520
 Root    434 :    94.800213599966000
 Root    435 :    95.416885141784600
 Root    436 :    95.686612749679430
 Root    437 :    96.073456577663420
 Root    438 :    96.317267261118660
 Root    439 :    96.765289055883030
 Root    440 :    97.469843054119250
 Root    441 :    97.878855453724580
 Root    442 :    98.500192288837950
 Root    443 :    98.686130657152970
 Root    444 :   100.015488705564000
 Root    445 :   101.109304565358200
 Root    446 :   101.589011719960800
 Root    447 :   101.723652558444000
 Root    448 :   103.667395116152800
 Root    449 :   103.764603422433700
 Root    450 :   104.881950292503600
 Root    451 :   106.220195712081500
 Root    452 :   107.403907185117800
 Root    453 :   108.640822175364100
 Root    454 :   110.565957699212900
 Root    455 :   110.750882155546300
 Root    456 :   112.928635973740300
 Root    457 :   114.968982618865800
 Root    458 :   114.974739311263500
 Root    459 :   116.119698338023900
 Root    460 :   117.731919542681000
 Root    461 :   121.139350161199800
 Root    462 :   129.840704699783500
 Convergence achieved for final wavefunctions.
 ***********************************************************************
 Excited states from <AA,BB:AA,BB> singles matrix:
 ***********************************************************************
 
 1PDM for each excited state written to RWF  633
 Ground to excited state transition densities written to RWF  633
 Ground to excited state transition electric dipole moments (Au):
       state          X           Y           Z        Dip. S.      Osc.
         1         0.0000     -0.0000     -0.0768      0.0059      0.0009
         2        -0.0000      0.0000      0.3956      0.1565      0.0269
         3        -0.0865      0.0169      0.0000      0.0078      0.0015
         4         0.0000      0.0000      0.2534      0.0642      0.0129
         5         0.1260     -0.5114     -0.0000      0.2774      0.0558
         6         0.4376     -0.1817     -0.0000      0.2245      0.0477
         7        -0.0000      0.0000     -0.1109      0.0123      0.0027
         8        -0.0000      0.0000     -0.1104      0.0122      0.0028
         9         0.1262     -0.0533      0.0000      0.0188      0.0045
        10        -0.0000     -0.0000      0.3036      0.0922      0.0221
        11        -0.0074     -0.5663      0.0000      0.3208      0.0777
        12        -0.2989      0.2529     -0.0000      0.1533      0.0384
        13         0.0000      0.0000     -0.0411      0.0017      0.0004
        14        -0.2014      0.2226     -0.0000      0.0901      0.0231
        15         0.0000      0.0000     -0.5079      0.2580      0.0662
        16        -0.0789      0.0417     -0.0000      0.0080      0.0021
        17        -0.1496     -0.3699     -0.0000      0.1592      0.0432
        18         0.0000      0.0000      0.0451      0.0020      0.0006
        19         0.3742      0.2926      0.0000      0.2257      0.0624
        20         0.0000     -0.0000      0.1609      0.0259      0.0072
        21        -0.0000      0.0000     -0.3709      0.1376      0.0384
        22        -0.0000      0.0000     -0.0254      0.0006      0.0002
        23        -0.0320     -0.1468     -0.0000      0.0226      0.0066
        24         0.0000      0.0000     -0.3761      0.1414      0.0423
        25        -0.0000     -0.0000      0.1134      0.0129      0.0039
        26         0.4182     -0.2358      0.0000      0.2305      0.0702
        27        -0.4264     -0.0710      0.0000      0.1869      0.0571
        28        -0.0000      0.0000     -0.0780      0.0061      0.0019
        29         0.2425      0.0230     -0.0000      0.0593      0.0189
        30         0.2693      0.1971      0.0000      0.1114      0.0359
        31         0.0000     -0.0000      0.0901      0.0081      0.0026
        32         0.0348      0.3951      0.0000      0.1573      0.0513
        33         0.0317     -0.2198     -0.0000      0.0493      0.0161
        34         0.0000     -0.0000     -0.0044      0.0000      0.0000
        35         0.3402     -0.1684      0.0000      0.1441      0.0477
        36        -0.0000      0.0000     -0.1904      0.0363      0.0120
        37        -0.4193     -0.3030      0.0000      0.2676      0.0888
        38        -0.0000     -0.0000      0.0446      0.0020      0.0007
        39        -0.0731      0.0272      0.0000      0.0061      0.0021
        40        -0.3831     -0.9571      0.0000      1.0629      0.3622
        41        -0.0000     -0.0000      0.6737      0.4538      0.1558
        42        -0.5122     -0.1160      0.0000      0.2758      0.0960
        43         0.0000     -0.0000     -0.1322      0.0175      0.0061
        44         0.0000     -0.0000     -0.4693      0.2202      0.0781
        45         0.0000      0.0000      0.1259      0.0158      0.0056
        46         0.5234     -0.1810      0.0000      0.3067      0.1092
        47        -0.5035     -0.1071      0.0000      0.2650      0.0949
        48         0.0000     -0.0000      0.5375      0.2889      0.1040
        49        -0.0475     -0.5417     -0.0000      0.2957      0.1074
        50        -0.3450      0.3481      0.0000      0.2401      0.0876
        51         0.0000      0.0000      0.6954      0.4836      0.1789
        52         0.1810      0.0614      0.0000      0.0365      0.0136
        53         0.0997      0.0336      0.0000      0.0111      0.0041
        54        -0.0000     -0.0000      0.2202      0.0485      0.0181
        55        -0.0000     -0.0000      0.0433      0.0019      0.0007
        56         0.1832      0.1624      0.0000      0.0599      0.0227
        57        -0.0000     -0.0000      0.0673      0.0045      0.0017
        58        -0.2746     -0.2823     -0.0000      0.1551      0.0593
        59        -0.1285      0.0757     -0.0000      0.0222      0.0086
        60        -0.0000      0.0000     -0.0858      0.0074      0.0029
        61        -0.6096      0.1407      0.0000      0.3913      0.1523
        62        -0.0000     -0.0000     -0.6732      0.4532      0.1780
        63        -0.3449      0.0204      0.0000      0.1194      0.0473
        64         0.0000     -0.0000      0.0492      0.0024      0.0010
        65        -0.0841     -0.5371     -0.0000      0.2956      0.1185
        66         0.0000      0.0000      0.0634      0.0040      0.0016
        67         0.0000     -0.0000     -0.0976      0.0095      0.0039
        68        -0.4594      0.2002     -0.0000      0.2512      0.1019
        69        -0.0007      0.1987      0.0000      0.0395      0.0162
        70         0.0000     -0.0000     -0.1310      0.0172      0.0071
        71         0.0660      0.1723     -0.0000      0.0341      0.0142
        72         0.0000     -0.0000     -0.1176      0.0138      0.0058
        73        -0.0561      0.0877      0.0000      0.0108      0.0046
        74         0.0000      0.0000     -0.2634      0.0694      0.0294
        75         0.0925     -0.0780     -0.0000      0.0146      0.0063
        76        -0.0000      0.0000     -0.0841      0.0071      0.0030
        77         0.0000      0.0000      0.2350      0.0552      0.0237
        78         0.0107     -0.2286      0.0000      0.0524      0.0226
        79        -0.0657      0.3770      0.0000      0.1465      0.0636
        80         0.4612      0.0265     -0.0000      0.2134      0.0928
        81        -0.0024     -0.2053      0.0000      0.0422      0.0184
        82        -0.0000      0.0000      0.2502      0.0626      0.0273
        83         0.0000      0.0000     -0.1822      0.0332      0.0146
        84         0.0040      0.0541      0.0000      0.0029      0.0013
        85         0.0000      0.0000      0.3426      0.1174      0.0520
        86        -0.1206      0.0565      0.0000      0.0177      0.0079
        87        -0.1454      0.2588     -0.0000      0.0881      0.0394
        88         0.0000     -0.0000     -0.0551      0.0030      0.0014
        89         0.1891      0.2814     -0.0000      0.1150      0.0522
        90         0.2400      0.1353      0.0000      0.0759      0.0347
        91        -0.0000      0.0000      0.0780      0.0061      0.0028
        92        -0.1852      0.1105      0.0000      0.0465      0.0214
        93         0.0000      0.0000      0.3736      0.1395      0.0645
        94        -0.1453     -0.3308      0.0000      0.1305      0.0604
        95         0.0000      0.0000      0.1078      0.0116      0.0055
        96         0.0625      0.2336     -0.0000      0.0584      0.0276
        97        -0.0000      0.0000     -0.0745      0.0055      0.0026
        98         0.0000      0.0000      0.0151      0.0002      0.0001
        99         0.0776      0.0309      0.0000      0.0070      0.0033
       100         0.0121      0.2505      0.0000      0.0629      0.0301
       101        -0.1761     -0.5303      0.0000      0.3122      0.1500
       102         0.0000     -0.0000     -0.0105      0.0001      0.0001
       103        -0.1372      0.1092     -0.0000      0.0308      0.0148
       104        -0.0000      0.0000      0.2238      0.0501      0.0241
       105        -0.0000      0.0000      0.0262      0.0007      0.0003
       106        -0.0726     -0.1605     -0.0000      0.0310      0.0150
       107        -0.2264      0.2695      0.0000      0.1239      0.0603
       108        -0.0000     -0.0000     -0.1781      0.0317      0.0156
       109        -0.4794      0.0149      0.0000      0.2300      0.1133
       110         0.1720     -0.1887      0.0000      0.0652      0.0322
       111         0.0000     -0.0000     -0.0384      0.0015      0.0007
       112         0.1408      0.1244     -0.0000      0.0353      0.0175
       113         0.0000      0.0000      0.3707      0.1374      0.0686
       114         0.0423      0.1546     -0.0000      0.0257      0.0129
       115        -0.0000      0.0000     -0.2096      0.0439      0.0222
       116         0.2755      0.0104      0.0000      0.0760      0.0385
       117         0.0000     -0.0000      0.1161      0.0135      0.0068
       118         0.0089      0.0005     -0.0000      0.0001      0.0000
       119         0.0000      0.0000      0.1346      0.0181      0.0092
       120        -0.1303     -0.0195     -0.0000      0.0174      0.0090
       121         0.2687     -0.0693     -0.0000      0.0770      0.0401
       122        -0.0000      0.0000     -0.1673      0.0280      0.0147
       123         0.0000     -0.0000     -0.1413      0.0200      0.0105
       124         0.1746      0.4435      0.0000      0.2272      0.1197
       125         0.0000      0.0000      0.1936      0.0375      0.0197
       126         0.0373      0.2899     -0.0000      0.0854      0.0456
       127        -0.0000     -0.0000     -0.0260      0.0007      0.0004
       128         0.1616     -0.2441      0.0000      0.0857      0.0459
       129         0.0000     -0.0000      0.3079      0.0948      0.0511
       130         0.0142     -0.5699      0.0000      0.3250      0.1756
       131         0.0540     -0.1565      0.0000      0.0274      0.0149
       132        -0.0034      0.1637      0.0000      0.0268      0.0146
       133        -0.0000     -0.0000     -0.0058      0.0000      0.0000
       134        -0.1911     -0.0447     -0.0000      0.0385      0.0212
       135        -0.0000      0.0000      0.1640      0.0269      0.0149
       136         0.1041     -0.2423      0.0000      0.0696      0.0386
       137         0.0008      0.2776     -0.0000      0.0770      0.0431
       138         0.0000      0.0000     -0.0500      0.0025      0.0014
       139        -0.0244     -0.3675      0.0000      0.1357      0.0763
       140         0.0000     -0.0000      0.1313      0.0172      0.0097
       141         0.0276     -0.3710     -0.0000      0.1384      0.0789
       142         0.0000      0.0000     -0.2140      0.0458      0.0262
       143         0.0189      0.0387     -0.0000      0.0019      0.0011
       144        -0.1867      0.1032     -0.0000      0.0455      0.0263
       145         0.0706     -0.2323      0.0000      0.0589      0.0340
       146        -0.0000     -0.0000      0.2525      0.0638      0.0370
       147         0.0000      0.0000     -0.1035      0.0107      0.0062
       148        -0.0000      0.0000      0.5723      0.3275      0.1917
       149        -0.0828     -0.3801      0.0000      0.1513      0.0886
       150        -0.0000      0.0000     -0.4008      0.1606      0.0950
       151         0.0000     -0.0000     -0.3714      0.1380      0.0817
       152        -0.0734      0.1370      0.0000      0.0242      0.0144
       153         0.1486      0.1751      0.0000      0.0527      0.0314
       154         0.0182      0.2981      0.0000      0.0892      0.0535
       155         0.0584      0.4339      0.0000      0.1917      0.1159
       156         0.1641     -0.2260     -0.0000      0.0780      0.0475
       157        -0.3718      0.3389      0.0000      0.2531      0.1551
       158         0.0268     -0.0277     -0.0000      0.0015      0.0009
       159         0.0000     -0.0000      0.0616      0.0038      0.0024
       160        -0.4070      0.0308     -0.0000      0.1666      0.1037
       161         0.0000     -0.0000     -0.0040      0.0000      0.0000
       162        -0.0000      0.0000     -0.0556      0.0031      0.0019
       163        -0.0646     -0.1423     -0.0000      0.0244      0.0154
       164         0.0000     -0.0000      0.0676      0.0046      0.0029
       165         0.5012     -0.1173     -0.0000      0.2650      0.1688
       166        -0.2798     -0.0196     -0.0000      0.0786      0.0503
       167         0.0000      0.0000     -0.4640      0.2153      0.1382
       168         0.4506      0.0454     -0.0000      0.2051      0.1318
       169        -0.3200      0.0355     -0.0000      0.1037      0.0669
       170         0.0000      0.0000      0.4703      0.2212      0.1431
       171        -0.2596     -0.1134     -0.0000      0.0802      0.0524
       172         0.2517     -0.1323     -0.0000      0.0809      0.0533
       173         0.0000     -0.0000      0.1724      0.0297      0.0196
       174         0.0576     -0.0054      0.0000      0.0033      0.0022
       175        -0.0000      0.0000     -0.0538      0.0029      0.0019
       176        -0.2342     -0.0201     -0.0000      0.0552      0.0369
       177        -0.0000     -0.0000      0.0107      0.0001      0.0001
       178        -0.1689     -0.1902      0.0000      0.0647      0.0436
       179        -0.1749      0.1140      0.0000      0.0436      0.0294
       180        -0.0000      0.0000     -0.0415      0.0017      0.0012
       181        -0.1565      0.1332     -0.0000      0.0422      0.0289
       182        -0.0000     -0.0000     -0.1646      0.0271      0.0187
       183         0.0000      0.0000     -0.1304      0.0170      0.0117
       184        -0.0257     -0.0023     -0.0000      0.0007      0.0005
       185         0.1836      0.0409     -0.0000      0.0354      0.0245
       186         0.0000     -0.0000     -0.1267      0.0161      0.0112
       187         0.0205     -0.0322      0.0000      0.0015      0.0010
       188        -0.0000     -0.0000     -0.2350      0.0552      0.0386
       189        -0.0000     -0.0000      0.1008      0.0102      0.0071
       190        -0.0150     -0.0549      0.0000      0.0032      0.0023
       191        -0.2349      0.0922      0.0000      0.0637      0.0452
       192        -0.0741     -0.0817      0.0000      0.0122      0.0087
       193        -0.0000      0.0000      0.0349      0.0012      0.0009
       194        -0.2264     -0.0763     -0.0000      0.0571      0.0410
       195        -0.2549     -0.1073      0.0000      0.0765      0.0551
       196         0.0000     -0.0000     -0.1951      0.0380      0.0275
       197         0.0051      0.1703     -0.0000      0.0290      0.0211
       198         0.2464     -0.0271     -0.0000      0.0614      0.0452
       199         0.2410      0.0062     -0.0000      0.0581      0.0430
       200        -0.1440     -0.0648     -0.0000      0.0249      0.0185
       201         0.0656     -0.0790      0.0000      0.0105      0.0079
       202        -0.0000     -0.0000     -0.1191      0.0142      0.0107
       203         0.0000      0.0000      0.3756      0.1411      0.1070
       204         0.0000     -0.0000     -0.1319      0.0174      0.0133
       205         0.0370      0.0510     -0.0000      0.0040      0.0030
       206         0.0870      0.3377     -0.0000      0.1216      0.0948
       207         0.0468     -0.1840     -0.0000      0.0360      0.0282
       208         0.0679      0.1226      0.0000      0.0196      0.0154
       209         0.0000     -0.0000      0.0317      0.0010      0.0008
       210         0.0000     -0.0000     -0.3040      0.0924      0.0730
       211         0.0000     -0.0000     -0.1016      0.0103      0.0082
       212        -0.1503      0.0172      0.0000      0.0229      0.0182
       213        -0.0000     -0.0000     -0.0398      0.0016      0.0013
       214        -0.0635     -0.0533      0.0000      0.0069      0.0055
       215        -0.0000     -0.0000     -0.0351      0.0012      0.0010
       216         0.0161     -0.1756     -0.0000      0.0311      0.0251
       217        -0.2709     -0.0645      0.0000      0.0776      0.0628
       218        -0.0000     -0.0000      0.1165      0.0136      0.0110
       219         0.0000      0.0000     -0.0595      0.0035      0.0029
       220         0.0507      0.1312     -0.0000      0.0198      0.0162
       221         0.0326      0.0321     -0.0000      0.0021      0.0017
       222         0.2019     -0.1480     -0.0000      0.0627      0.0516
       223        -0.0000      0.0000     -0.2507      0.0629      0.0518
       224         0.0734      0.1581     -0.0000      0.0304      0.0252
       225        -0.0000      0.0000     -0.0098      0.0001      0.0001
       226        -0.0273     -0.1099      0.0000      0.0128      0.0107
       227        -0.0549     -0.0435     -0.0000      0.0049      0.0041
       228         0.0000      0.0000     -0.0131      0.0002      0.0001
       229        -0.1112     -0.0761     -0.0000      0.0182      0.0154
       230         0.0000     -0.0000     -0.0946      0.0089      0.0076
       231        -0.0000      0.0000      0.1309      0.0171      0.0146
       232         0.1628     -0.0590      0.0000      0.0300      0.0257
       233         0.0226     -0.0043     -0.0000      0.0005      0.0005
       234        -0.0000     -0.0000      0.0492      0.0024      0.0021
       235         0.1478      0.0226      0.0000      0.0223      0.0193
       236         0.0000     -0.0000      0.1421      0.0202      0.0175
       237         0.0051     -0.1638      0.0000      0.0269      0.0234
       238         0.0000     -0.0000     -0.0946      0.0090      0.0079
       239         0.0000      0.0000      0.0781      0.0061      0.0054
       240         0.1517     -0.1174      0.0000      0.0368      0.0327
       241         0.0254     -0.0673      0.0000      0.0052      0.0046
       242        -0.1033     -0.0473      0.0000      0.0129      0.0115
       243        -0.0000     -0.0000      0.2601      0.0677      0.0607
       244         0.0000     -0.0000     -0.0519      0.0027      0.0024
       245         0.0444     -0.1842     -0.0000      0.0359      0.0324
       246         0.0321      0.0283      0.0000      0.0018      0.0017
       247         0.1176     -0.0852      0.0000      0.0211      0.0192
       248         0.0480     -0.0444      0.0000      0.0043      0.0039
       249         0.0000     -0.0000      0.1288      0.0166      0.0155
       250        -0.0341     -0.0653      0.0000      0.0054      0.0051
       251        -0.0000      0.0000      0.0844      0.0071      0.0067
       252         0.1540      0.0221      0.0000      0.0242      0.0228
       253        -0.0963     -0.0399      0.0000      0.0109      0.0103
       254         0.0936      0.1053     -0.0000      0.0198      0.0188
       255         0.0052      0.0071      0.0000      0.0001      0.0001
       256        -0.0000     -0.0000     -0.0357      0.0013      0.0012
       257        -0.1046     -0.0095      0.0000      0.0110      0.0107
       258        -0.0000     -0.0000      0.1250      0.0156      0.0152
       259         0.0000     -0.0000      0.1742      0.0304      0.0299
       260         0.1206     -0.0286      0.0000      0.0154      0.0151
       261        -0.0698     -0.0028      0.0000      0.0049      0.0049
       262        -0.0000      0.0000      0.0235      0.0006      0.0006
       263         0.0058     -0.0111     -0.0000      0.0002      0.0002
       264         0.0757     -0.0742     -0.0000      0.0112      0.0114
       265        -0.2286      0.1149      0.0000      0.0654      0.0668
       266         0.0145      0.0311      0.0000      0.0012      0.0012
       267         0.1213      0.0105      0.0000      0.0148      0.0153
       268         0.0000      0.0000      0.2897      0.0839      0.0874
       269         0.1539      0.1538     -0.0000      0.0473      0.0496
       270        -0.0000     -0.0000     -0.0611      0.0037      0.0040
       271        -0.0000      0.0000     -0.0813      0.0066      0.0072
       272        -0.0669     -0.1140      0.0000      0.0175      0.0194
       273        -0.0540     -0.1344     -0.0000      0.0210      0.0235
       274        -0.0379     -0.1460      0.0000      0.0228      0.0256
       275        -0.1251     -0.0959     -0.0000      0.0248      0.0281
       276        -0.0000      0.0000      0.0066      0.0000      0.0000
       277        -0.0000     -0.0000     -0.1055      0.0111      0.0126
       278         0.0916     -0.0337      0.0000      0.0095      0.0110
       279        -0.0504     -0.0148      0.0000      0.0028      0.0032
       280         0.0000      0.0000     -0.0651      0.0042      0.0049
       281        -0.0528      0.1047     -0.0000      0.0137      0.0161
       282        -0.0331      0.2517      0.0000      0.0645      0.0762
       283         0.0000      0.0000     -0.0152      0.0002      0.0003
       284         0.0000     -0.0000      0.0508      0.0026      0.0031
       285         0.0728     -0.1043      0.0000      0.0162      0.0194
       286        -0.0000      0.0000      0.0471      0.0022      0.0027
       287        -0.0610      0.1482     -0.0000      0.0257      0.0313
       288        -0.0645      0.0239     -0.0000      0.0047      0.0058
       289         0.0000     -0.0000     -0.0247      0.0006      0.0007
       290        -0.0290      0.0390      0.0000      0.0024      0.0029
       291         0.0000     -0.0000      0.2321      0.0539      0.0665
       292        -0.0000      0.0000     -0.1739      0.0303      0.0375
       293         0.3518      0.1759      0.0000      0.1547      0.1924
       294        -0.0000      0.0000      0.1262      0.0159      0.0198
       295         0.0000     -0.0000     -0.2138      0.0457      0.0570
       296         0.0507      0.0129      0.0000      0.0027      0.0034
       297         0.0292      0.2204     -0.0000      0.0494      0.0619
       298        -0.0000     -0.0000      0.1374      0.0189      0.0239
       299        -0.0125     -0.1111     -0.0000      0.0125      0.0159
       300        -0.0220      0.2338      0.0000      0.0552      0.0705
       301        -0.0000      0.0000     -0.0901      0.0081      0.0104
       302         0.2047      0.0182     -0.0000      0.0422      0.0548
       303         0.0000      0.0000      0.1366      0.0187      0.0244
       304        -0.0047     -0.0370     -0.0000      0.0014      0.0018
       305        -0.0515     -0.0146     -0.0000      0.0029      0.0038
       306         0.0000      0.0000     -0.1161      0.0135      0.0179
       307         0.0652     -0.1330      0.0000      0.0219      0.0292
       308         0.1372      0.0153      0.0000      0.0191      0.0254
       309         0.0000      0.0000     -0.0845      0.0071      0.0095
       310         0.0008     -0.0114     -0.0000      0.0001      0.0002
       311         0.0000      0.0000      0.1608      0.0259      0.0349
       312         0.3469     -0.1165      0.0000      0.1339      0.1808
       313        -0.0000      0.0000     -0.1773      0.0314      0.0428
       314        -0.0255     -0.1129     -0.0000      0.0134      0.0183
       315        -0.0000      0.0000     -0.0910      0.0083      0.0114
       316         0.0204     -0.0946      0.0000      0.0094      0.0130
       317        -0.0000     -0.0000      0.0727      0.0053      0.0073
       318        -0.0198     -0.1548      0.0000      0.0244      0.0339
       319         0.0000     -0.0000      0.0128      0.0002      0.0002
       320        -0.0466     -0.0732     -0.0000      0.0075      0.0106
       321         0.1051      0.1405      0.0000      0.0308      0.0434
       322        -0.0000     -0.0000      0.0342      0.0012      0.0017
       323        -0.0000     -0.0000      0.0907      0.0082      0.0117
       324        -0.0000     -0.0000     -0.0445      0.0020      0.0028
       325        -0.0634     -0.1587     -0.0000      0.0292      0.0418
       326        -0.0000      0.0000     -0.0238      0.0006      0.0008
       327        -0.0625     -0.1188      0.0000      0.0180      0.0259
       328         0.0085      0.0675     -0.0000      0.0046      0.0068
       329        -0.0814      0.0012      0.0000      0.0066      0.0097
       330        -0.0000      0.0000     -0.0742      0.0055      0.0081
       331         0.0506     -0.0235     -0.0000      0.0031      0.0046
       332        -0.0000      0.0000     -0.0104      0.0001      0.0002
[...]
      5  -0.124436D+00  0.000000D+00 -0.239613D+00  0.000000D+00  0.734799D-01
      6  -0.275110D-01  0.000000D+00 -0.140440D+00  0.000000D+00 -0.641174D-01
      7   0.000000D+00 -0.684567D-01  0.000000D+00  0.883017D-02  0.000000D+00
      8   0.000000D+00 -0.134296D+00  0.000000D+00 -0.378134D-02  0.000000D+00
      9   0.000000D+00  0.193904D+00  0.000000D+00 -0.815221D-01  0.000000D+00
     10  -0.128085D+00  0.000000D+00 -0.979284D-01  0.000000D+00  0.267419D-01
     11  -0.397061D+00  0.000000D+00 -0.130084D-01  0.000000D+00  0.466371D+00
     12  -0.131172D+00  0.000000D+00 -0.408086D+00  0.000000D+00  0.258038D+00
     13  -0.814016D-01  0.000000D+00  0.120062D+00  0.000000D+00  0.476002D+00
     14   0.275336D+00  0.000000D+00  0.116578D+00  0.000000D+00 -0.302049D+00
     15   0.000000D+00  0.119094D+00  0.000000D+00 -0.203010D+00  0.000000D+00
     16   0.000000D+00 -0.169659D+00  0.000000D+00 -0.154315D+00  0.000000D+00
               396           397           398           399           400 
      1  -0.112717D+03 -0.112716D+03 -0.112714D+03 -0.112702D+03 -0.112659D+03
      2  -0.450258D-01  0.000000D+00 -0.532559D-01  0.000000D+00 -0.174985D-01
      3  -0.333315D-01  0.000000D+00  0.146243D-01  0.000000D+00 -0.957294D-02
      4   0.000000D+00  0.790811D-02  0.000000D+00 -0.394994D-01  0.000000D+00
      5   0.118554D+00  0.000000D+00  0.152941D+00  0.000000D+00  0.921425D-01
      6   0.583257D-01  0.000000D+00 -0.130315D-02  0.000000D+00 -0.429856D-01
      7   0.000000D+00  0.294051D-01  0.000000D+00  0.903491D-01  0.000000D+00
      8   0.000000D+00 -0.113168D+00  0.000000D+00 -0.248056D+00  0.000000D+00
      9   0.000000D+00 -0.508444D-01  0.000000D+00  0.152316D-01  0.000000D+00
     10  -0.144890D+00  0.000000D+00  0.149246D+00  0.000000D+00 -0.247460D-01
     11  -0.110804D+00  0.000000D+00 -0.194480D-03  0.000000D+00 -0.453011D-01
     12  -0.275226D+00  0.000000D+00 -0.426159D+00  0.000000D+00 -0.134022D-01
     13  -0.287438D+00  0.000000D+00  0.216915D-01  0.000000D+00 -0.868942D+00
     14   0.191848D+00  0.000000D+00  0.433654D-01  0.000000D+00 -0.361299D+00
     15   0.000000D+00  0.198993D+00  0.000000D+00  0.449251D-01  0.000000D+00
     16   0.000000D+00 -0.336111D+00  0.000000D+00 -0.407367D+00  0.000000D+00
               401           402           403           404           405 
      1  -0.112646D+03 -0.112612D+03 -0.112610D+03 -0.112575D+03 -0.112555D+03
      2   0.493862D-01  0.000000D+00 -0.245229D-01 -0.249298D-01 -0.215985D-01
      3  -0.918774D-02  0.000000D+00 -0.171984D-01  0.863892D-03  0.190709D-01
      4   0.000000D+00 -0.422931D-01  0.000000D+00  0.000000D+00  0.000000D+00
      5  -0.111374D+00  0.000000D+00  0.776035D-01  0.416607D-01  0.182396D-01
      6   0.161413D-01  0.000000D+00  0.621063D-01 -0.159714D-01 -0.578405D-01
      7   0.000000D+00  0.100623D+00  0.000000D+00  0.000000D+00  0.000000D+00
      8   0.000000D+00 -0.139813D-01  0.000000D+00  0.000000D+00  0.000000D+00
      9   0.000000D+00 -0.245679D-01  0.000000D+00  0.000000D+00  0.000000D+00
     10  -0.174201D-02  0.000000D+00  0.274445D+00 -0.665797D-01 -0.108892D+00
     11  -0.817271D-01  0.000000D+00 -0.256404D-01 -0.178995D+00  0.640835D-01
     12  -0.265203D+00  0.000000D+00 -0.418815D+00 -0.790434D-01 -0.466597D+00
     13   0.112041D+00  0.000000D+00 -0.168817D+00  0.141507D+00  0.121701D+00
     14  -0.162245D+00  0.000000D+00 -0.115755D+00  0.211205D+00  0.205545D+00
     15   0.000000D+00  0.237340D+00  0.000000D+00  0.000000D+00  0.000000D+00
     16   0.000000D+00  0.288505D-01  0.000000D+00  0.000000D+00  0.000000D+00
               406           407           408           409           410 
      1  -0.112548D+03 -0.112483D+03 -0.112474D+03 -0.112464D+03 -0.112451D+03
      2   0.000000D+00 -0.809491D-01 -0.277079D-02 -0.602392D-01  0.000000D+00
      3   0.000000D+00 -0.118738D+00 -0.218167D-02 -0.412743D-01  0.000000D+00
      4  -0.714726D-01  0.000000D+00  0.000000D+00  0.000000D+00 -0.218227D-01
      5   0.000000D+00  0.199006D+00  0.830346D-02  0.218510D+00  0.000000D+00
      6   0.000000D+00  0.312661D+00  0.308432D-01  0.131026D+00  0.000000D+00
      7   0.131456D+00  0.000000D+00  0.000000D+00  0.000000D+00  0.414170D-01
      8   0.336403D-01  0.000000D+00  0.000000D+00  0.000000D+00 -0.215736D+00
      9  -0.166110D-01  0.000000D+00  0.000000D+00  0.000000D+00  0.580728D-02
     10   0.000000D+00  0.461392D+00 -0.981042D-01  0.463053D+00  0.000000D+00
     11   0.000000D+00  0.489284D-01 -0.150002D+00  0.187090D+00  0.000000D+00
     12   0.000000D+00 -0.201336D+00  0.158246D+00 -0.803078D+00  0.000000D+00
     13   0.000000D+00 -0.982053D-01  0.596078D-01  0.173125D+00  0.000000D+00
     14   0.000000D+00 -0.259615D+00  0.484404D-01 -0.510466D+00  0.000000D+00
     15   0.205564D-01  0.000000D+00  0.000000D+00  0.000000D+00  0.159163D-01
     16   0.180889D+00  0.000000D+00  0.000000D+00  0.000000D+00 -0.179282D+00
               411           412           413           414           415 
      1  -0.112443D+03 -0.112404D+03 -0.112385D+03 -0.112363D+03 -0.112357D+03
      2   0.000000D+00 -0.904890D-01  0.275182D-01  0.958900D-01  0.000000D+00
      3   0.000000D+00  0.525734D-01  0.334932D-01 -0.147614D+00  0.000000D+00
      4   0.249048D-01  0.000000D+00  0.000000D+00  0.000000D+00 -0.630663D-01
      5   0.000000D+00  0.262433D+00 -0.135153D+00 -0.284300D+00  0.000000D+00
      6   0.000000D+00 -0.152492D+00 -0.903341D-01  0.398544D+00  0.000000D+00
      7  -0.661472D-01  0.000000D+00  0.000000D+00  0.000000D+00  0.164991D+00
      8  -0.361022D+00  0.000000D+00  0.000000D+00  0.000000D+00 -0.103922D+00
      9  -0.104439D-02  0.000000D+00  0.000000D+00  0.000000D+00 -0.147503D-01
     10   0.000000D+00  0.153176D+00 -0.223704D+00 -0.687036D+00  0.000000D+00
     11   0.000000D+00  0.147377D+00  0.204787D+00 -0.314559D-01  0.000000D+00
     12   0.000000D+00  0.102366D+01  0.678945D-01 -0.102533D+01  0.000000D+00
     13   0.000000D+00 -0.156939D+00 -0.274496D-01  0.358360D-01  0.000000D+00
     14   0.000000D+00 -0.381257D-01  0.246817D+00  0.588402D+00  0.000000D+00
     15   0.192591D+00  0.000000D+00  0.000000D+00  0.000000D+00 -0.418415D-01
     16  -0.199442D+00  0.000000D+00  0.000000D+00  0.000000D+00 -0.149547D+00
               416           417           418           419           420 
      1  -0.112348D+03 -0.112340D+03 -0.112320D+03 -0.112295D+03 -0.112295D+03
      2   0.000000D+00 -0.788694D-01  0.564295D-01  0.000000D+00  0.562453D-01
      3   0.000000D+00  0.554080D-01 -0.254753D-01  0.000000D+00 -0.395996D-01
      4   0.783137D-01  0.000000D+00  0.000000D+00 -0.779340D-01  0.000000D+00
      5   0.000000D+00  0.204106D+00 -0.150480D+00  0.000000D+00 -0.137757D+00
      6   0.000000D+00 -0.156041D+00  0.739753D-01  0.000000D+00  0.125142D+00
      7  -0.233454D+00  0.000000D+00  0.000000D+00  0.210251D+00  0.000000D+00
      8   0.510135D+00  0.000000D+00  0.000000D+00  0.118387D+00  0.000000D+00
      9  -0.734462D-02  0.000000D+00  0.000000D+00  0.797486D-03  0.000000D+00
     10   0.000000D+00 -0.271865D-01  0.195614D-01  0.000000D+00  0.228490D+00
     11   0.000000D+00  0.883713D-01  0.145828D+00  0.000000D+00  0.121272D-01
     12   0.000000D+00 -0.354610D+00 -0.825899D+00  0.000000D+00 -0.826363D+00
     13   0.000000D+00 -0.117185D+00  0.125076D+00  0.000000D+00 -0.120251D+00
     14   0.000000D+00  0.997341D-02 -0.100520D+00  0.000000D+00 -0.388454D+00
     15  -0.113775D+00  0.000000D+00  0.000000D+00 -0.975403D-01  0.000000D+00
     16   0.427989D+00  0.000000D+00  0.000000D+00 -0.300302D-01  0.000000D+00
               421           422           423           424           425 
      1  -0.112287D+03 -0.112278D+03 -0.112276D+03 -0.112267D+03 -0.112263D+03
      2   0.000000D+00  0.000000D+00  0.229333D+00  0.000000D+00  0.530912D-01
      3   0.000000D+00  0.000000D+00  0.100084D+00  0.000000D+00 -0.694253D-01
      4  -0.196829D-01 -0.315181D-01  0.000000D+00 -0.471848D-01  0.000000D+00
      5   0.000000D+00  0.000000D+00 -0.663140D+00  0.000000D+00 -0.134026D+00
      6   0.000000D+00  0.000000D+00 -0.315214D+00  0.000000D+00  0.215740D+00
      7   0.239049D-01  0.108080D+00  0.000000D+00  0.112597D+00  0.000000D+00
      8   0.289726D-01  0.316863D+00  0.000000D+00 -0.976715D-01  0.000000D+00
      9   0.240649D-01 -0.121926D-02  0.000000D+00 -0.266559D-01  0.000000D+00
     10   0.000000D+00  0.000000D+00 -0.364829D+00  0.000000D+00 -0.246252D+00
     11   0.000000D+00  0.000000D+00 -0.346531D+00  0.000000D+00 -0.536758D-01
     12   0.000000D+00  0.000000D+00  0.143770D+01  0.000000D+00 -0.339712D+00
     13   0.000000D+00  0.000000D+00  0.150962D+00  0.000000D+00  0.296948D-02
     14   0.000000D+00  0.000000D+00  0.391106D+00  0.000000D+00  0.281409D+00
     15  -0.253740D+00  0.181631D-01  0.000000D+00  0.250259D-01  0.000000D+00
     16   0.840681D-01  0.523657D+00  0.000000D+00  0.102097D+00  0.000000D+00
               426           427           428           429           430 
      1  -0.112261D+03 -0.112245D+03 -0.112220D+03 -0.112215D+03 -0.112200D+03
      2   0.000000D+00 -0.173437D+00  0.723992D-02  0.000000D+00  0.000000D+00
      3   0.000000D+00 -0.424036D-02 -0.195822D-01  0.000000D+00  0.000000D+00
      4   0.741065D-01  0.000000D+00  0.000000D+00  0.216387D+00  0.634755D-01
      5   0.000000D+00  0.511649D+00  0.615022D-02  0.000000D+00  0.000000D+00
      6   0.000000D+00  0.342003D-01  0.690496D-01  0.000000D+00  0.000000D+00
      7  -0.203746D+00  0.000000D+00  0.000000D+00 -0.628714D+00 -0.178385D+00
      8  -0.241028D+00  0.000000D+00  0.000000D+00  0.665843D+00  0.996832D-01
      9   0.607130D-01  0.000000D+00  0.000000D+00  0.273119D-01  0.402336D-01
     10   0.000000D+00  0.330953D+00  0.254167D+00  0.000000D+00  0.000000D+00
     11   0.000000D+00 -0.872982D-02 -0.123270D+00  0.000000D+00  0.000000D+00
     12   0.000000D+00 -0.321030D+00 -0.528410D+00  0.000000D+00  0.000000D+00
     13   0.000000D+00  0.159210D+00  0.419706D-01  0.000000D+00  0.000000D+00
     14   0.000000D+00 -0.174599D+00 -0.127938D+00  0.000000D+00  0.000000D+00
     15  -0.244090D+00  0.000000D+00  0.000000D+00 -0.197587D+00 -0.265716D+00
     16  -0.459096D+00  0.000000D+00  0.000000D+00  0.683677D+00  0.784511D-01
               431           432           433           434           435 
      1  -0.112172D+03 -0.112156D+03 -0.112149D+03 -0.112120D+03 -0.112098D+03
      2   0.000000D+00 -0.315289D-01 -0.133647D+00  0.000000D+00  0.000000D+00
      3   0.000000D+00  0.148415D+00  0.202331D-01  0.000000D+00  0.000000D+00
      4  -0.834646D-01  0.000000D+00  0.000000D+00 -0.134051D+00 -0.570040D-02
      5   0.000000D+00  0.823492D-01  0.413072D+00  0.000000D+00  0.000000D+00
      6   0.000000D+00 -0.461895D+00 -0.673801D-01  0.000000D+00  0.000000D+00
      7   0.245663D+00  0.000000D+00  0.000000D+00  0.369530D+00  0.143567D-01
      8  -0.242263D+00  0.000000D+00  0.000000D+00  0.146417D+00  0.714217D-01
      9  -0.241773D-01  0.000000D+00  0.000000D+00 -0.394952D-01  0.551978D-02
     10   0.000000D+00 -0.274808D+00  0.517083D+00  0.000000D+00  0.000000D+00
     11   0.000000D+00  0.183084D-01  0.274529D+00  0.000000D+00  0.000000D+00
     12   0.000000D+00  0.110965D+01  0.134569D+01  0.000000D+00  0.000000D+00
     13   0.000000D+00 -0.404418D-01 -0.149508D+00  0.000000D+00  0.000000D+00
     14   0.000000D+00 -0.677052D-01 -0.777332D+00  0.000000D+00  0.000000D+00
     15  -0.353852D-01  0.000000D+00  0.000000D+00  0.166956D+00  0.889722D-01
     16  -0.538803D+00  0.000000D+00  0.000000D+00  0.989788D-02  0.378598D-01
               436           437           438           439           440 
      1  -0.112088D+03 -0.112074D+03 -0.112065D+03 -0.112048D+03 -0.112022D+03
      2   0.000000D+00 -0.805031D-01 -0.214440D+00  0.000000D+00 -0.489175D-01
      3   0.000000D+00 -0.450133D-01  0.165131D+00  0.000000D+00  0.867020D-01
      4   0.230972D-01  0.000000D+00  0.000000D+00  0.598688D-02  0.000000D+00
      5   0.000000D+00  0.214144D+00  0.683740D+00  0.000000D+00  0.156768D+00
      6   0.000000D+00  0.145447D+00 -0.514849D+00  0.000000D+00 -0.295115D+00
      7  -0.728677D-01  0.000000D+00  0.000000D+00 -0.368990D-01  0.000000D+00
      8   0.500312D+00  0.000000D+00  0.000000D+00  0.177861D+00  0.000000D+00
      9   0.284972D-01  0.000000D+00  0.000000D+00  0.112012D-01  0.000000D+00
     10   0.000000D+00 -0.310415D+00  0.116657D+01  0.000000D+00  0.435764D-01
     11   0.000000D+00 -0.138103D+00  0.297705D+00  0.000000D+00  0.228824D+00
     12   0.000000D+00 -0.349229D+00  0.117990D+01  0.000000D+00  0.715479D+00
     13   0.000000D+00  0.901416D-01 -0.221482D+00  0.000000D+00 -0.726367D-01
     14   0.000000D+00  0.213505D+00 -0.133783D+01  0.000000D+00 -0.224961D+00
     15  -0.229023D+00  0.000000D+00  0.000000D+00 -0.242422D-01  0.000000D+00
     16   0.542052D+00  0.000000D+00  0.000000D+00 -0.429275D-01  0.000000D+00
               441           442           443           444           445 
      1  -0.112007D+03 -0.111984D+03 -0.111978D+03 -0.111929D+03 -0.111888D+03
      2   0.206295D-01  0.000000D+00  0.132862D+00  0.000000D+00  0.154527D-01
      3   0.304472D-01  0.000000D+00  0.255696D-02  0.000000D+00  0.742451D-01
      4   0.000000D+00  0.293302D+00  0.000000D+00  0.156760D+00  0.000000D+00
      5  -0.631111D-01  0.000000D+00 -0.427735D+00  0.000000D+00 -0.736846D-01
      6  -0.999295D-01  0.000000D+00 -0.171417D-01  0.000000D+00 -0.250707D+00
      7   0.000000D+00 -0.913752D+00  0.000000D+00 -0.510499D+00  0.000000D+00
      8   0.000000D+00  0.934996D+00  0.000000D+00  0.818703D+00  0.000000D+00
      9   0.000000D+00  0.679760D-01  0.000000D+00  0.466314D-01  0.000000D+00
     10  -0.510438D-01  0.000000D+00 -0.416319D+00  0.000000D+00 -0.288091D+00
     11  -0.102245D+00  0.000000D+00 -0.138199D+00  0.000000D+00 -0.104100D+00
     12   0.268551D+00  0.000000D+00  0.275620D-02  0.000000D+00  0.102947D+01
     13   0.396471D-01  0.000000D+00 -0.116153D+00  0.000000D+00 -0.114318D+00
     14   0.117448D+00  0.000000D+00  0.653845D+00  0.000000D+00  0.382635D+00
     15   0.000000D+00 -0.330448D+00  0.000000D+00 -0.127431D+00  0.000000D+00
     16   0.000000D+00  0.103625D+01  0.000000D+00  0.858298D+00  0.000000D+00
               446           447           448           449           450 
      1  -0.111871D+03 -0.111866D+03 -0.111794D+03 -0.111791D+03 -0.111750D+03
      2   0.423684D-01  0.000000D+00  0.000000D+00 -0.115390D-01 -0.705030D-01
      3   0.749476D-01  0.000000D+00  0.000000D+00 -0.236749D+00  0.277817D-01
      4   0.000000D+00  0.239349D+00 -0.309993D-01  0.000000D+00  0.000000D+00
      5  -0.153095D+00  0.000000D+00  0.000000D+00  0.448868D-01  0.219588D+00
      6  -0.238771D+00  0.000000D+00  0.000000D+00  0.822152D+00 -0.930918D-01
      7   0.000000D+00 -0.774701D+00  0.831503D-01  0.000000D+00  0.000000D+00
      8   0.000000D+00  0.131339D+01  0.220349D+00  0.000000D+00  0.000000D+00
      9   0.000000D+00  0.422024D-01 -0.108486D-01  0.000000D+00  0.000000D+00
     10  -0.505121D+00  0.000000D+00  0.000000D+00  0.115815D+00 -0.458068D-01
     11  -0.185872D+00  0.000000D+00  0.000000D+00 -0.298685D-01 -0.141221D+00
     12   0.159876D+00  0.000000D+00  0.000000D+00 -0.146248D+01  0.186212D+00
     13   0.184583D+00  0.000000D+00  0.000000D+00 -0.264779D-03  0.208469D+00
     14   0.561663D+00  0.000000D+00  0.000000D+00  0.206715D+00  0.134326D+00
     15   0.000000D+00 -0.164623D+00  0.284564D+00  0.000000D+00  0.000000D+00
     16   0.000000D+00  0.161098D+01  0.346516D+00  0.000000D+00  0.000000D+00
               451           452           453           454           455 
      1  -0.111701D+03 -0.111657D+03 -0.111612D+03 -0.111541D+03 -0.111534D+03
      2   0.000000D+00 -0.927299D-03  0.000000D+00  0.179766D-01  0.000000D+00
      3   0.000000D+00 -0.563357D-01  0.000000D+00 -0.320522D-01  0.000000D+00
      4  -0.877650D-01  0.000000D+00 -0.371988D-01  0.000000D+00 -0.138260D+00
      5   0.000000D+00  0.707969D-02  0.000000D+00 -0.754975D-01  0.000000D+00
      6   0.000000D+00  0.263072D+00  0.000000D+00  0.141826D+00  0.000000D+00
      7   0.292807D+00  0.000000D+00  0.124950D+00  0.000000D+00  0.515328D+00
      8  -0.399616D+00  0.000000D+00  0.218962D-01  0.000000D+00 -0.744039D+00
      9  -0.206060D-01  0.000000D+00 -0.568369D-02  0.000000D+00 -0.192329D-01
     10   0.000000D+00  0.499256D-01  0.000000D+00 -0.230577D+00  0.000000D+00
     11   0.000000D+00  0.868172D-01  0.000000D+00  0.111878D+00  0.000000D+00
     12   0.000000D+00 -0.190142D+01  0.000000D+00 -0.375760D+00  0.000000D+00
     13   0.000000D+00  0.157231D+00  0.000000D+00 -0.199499D+00  0.000000D+00
     14   0.000000D+00  0.163339D-01  0.000000D+00  0.893245D-01  0.000000D+00
     15  -0.291358D+00  0.000000D+00 -0.140677D+00  0.000000D+00  0.254651D+00
     16  -0.105907D+00  0.000000D+00 -0.208867D+00  0.000000D+00 -0.645598D+00
               456           457           458           459           460 
      1  -0.111454D+03 -0.111379D+03 -0.111379D+03 -0.111337D+03 -0.111278D+03
      2   0.112854D+00 -0.202626D-02  0.000000D+00 -0.148731D-01  0.183962D+00
      3   0.132194D+00  0.137293D+00  0.000000D+00  0.101035D-02  0.829605D-02
      4   0.000000D+00  0.000000D+00 -0.617574D-01  0.000000D+00  0.000000D+00
      5  -0.413621D+00  0.156937D-01  0.000000D+00  0.558305D-01 -0.701559D+00
      6  -0.504160D+00 -0.543249D+00  0.000000D+00  0.551496D-01 -0.307003D-01
      7   0.000000D+00  0.000000D+00  0.234310D+00  0.000000D+00  0.000000D+00
      8   0.000000D+00  0.000000D+00 -0.285623D+00  0.000000D+00  0.000000D+00
      9   0.000000D+00  0.000000D+00  0.151072D-02  0.000000D+00  0.000000D+00
     10  -0.488142D+00 -0.677229D-01  0.000000D+00  0.111033D+00 -0.100682D+01
     11  -0.253132D+00 -0.544185D-03  0.000000D+00 -0.313414D-02 -0.525814D+00
     12   0.148206D+01  0.151274D+01  0.000000D+00  0.495944D-01  0.408851D+00
     13   0.705508D-01  0.314987D-01  0.000000D+00 -0.298018D+00  0.206693D+00
     14   0.252896D+00 -0.485918D-01  0.000000D+00 -0.287307D-01  0.968187D+00
     15   0.000000D+00  0.000000D+00  0.181940D+00  0.000000D+00  0.000000D+00
     16   0.000000D+00  0.000000D+00 -0.231485D+00  0.000000D+00  0.000000D+00
               461           462 
      1  -0.111152D+03 -0.110833D+03
      2   0.851717D-01  0.330611D-01
      3  -0.471823D-02 -0.858612D-03
      4   0.000000D+00  0.000000D+00
      5  -0.328435D+00 -0.123561D+00
      6   0.481890D-01  0.390005D-01
      7   0.000000D+00  0.000000D+00
      8   0.000000D+00  0.000000D+00
      9   0.000000D+00  0.000000D+00
     10  -0.432096D+00 -0.150441D+00
     11  -0.167285D+00 -0.229810D+00
     12  -0.535964D+00  0.108666D-01
     13   0.387029D-01  0.168198D+00
     14   0.479541D+00  0.623435D-01
     15   0.000000D+00  0.000000D+00
     16   0.000000D+00  0.000000D+00
 Unable to Open any file for archive entry.
 1\1\GINC-HEL25\SP\RBLYP TD-FC\Gen\C1H4O1\SABYASACHI\21-Mar-2022\0\\#P 
 TD(Nstates=10000) blyp/Gen SCF(maxcycles=100) Int(Grid=ultrafine)\\xGD
 B7_00001_tier4.com\\0,1\C,0,0.046419,0.658432,0.\O,0,0.046419,-0.75192
 9,0.\H,0,-0.438905,1.073261,0.890797\H,0,-0.438905,1.073261,-0.890797\
 H,0,1.087855,0.977571,0.\H,0,-0.859911,-1.059251,0.\\Version=EM64L-G16
 RevC.01\State=1-A'\HF=-115.6041762\RMSD=3.178e-09\PG=CS [SG(C1H2O1),X(
 H2)]\\@
 The archive entry for this job was punched.


 NATURE GIVES TO EVERY TIME AND SEASON SOME BEAUTY OF ITS OWN.

                                                    --DICKENS
 Job cpu time:       0 days  0 hours  2 minutes  9.9 seconds.
 Elapsed time:       0 days  0 hours  0 minutes 16.5 seconds.
 File lengths (MBytes):  RWF=    110 Int=      0 D2E=      0 Chk=     64 Scr=      1
 Normal termination of Gaussian 16 at Mon Mar 21 19:58:17 2022.
