 Entering Gaussian System, Link 0=g16
 Input=000003.com
 Output=000003.log
 Initial command:
 /home/sabyasachi/g16/l1.exe "/scratch/sabyasachi/PBS_7976236.helios/Gau-109655.inp" -scrdir="/scratch/sabyasachi/PBS_7976236.helios/"
 Entering Link 1 = /home/sabyasachi/g16/l1.exe PID=    109656.
  
 Copyright (c) 1988-2019, Gaussian, Inc.  All Rights Reserved.
  
 This is part of the Gaussian(R) 16 program.  It is based on
 the Gaussian(R) 09 system (copyright 2009, Gaussian, Inc.),
 the Gaussian(R) 03 system (copyright 2003, Gaussian, Inc.),
 the Gaussian(R) 98 system (copyright 1998, Gaussian, Inc.),
 the Gaussian(R) 94 system (copyright 1995, Gaussian, Inc.),
 the Gaussian 92(TM) system (copyright 1992, Gaussian, Inc.),
 the Gaussian 90(TM) system (copyright 1990, Gaussian, Inc.),
 the Gaussian 88(TM) system (copyright 1988, Gaussian, Inc.),
 the Gaussian 86(TM) system (copyright 1986, Carnegie Mellon
 University), and the Gaussian 82(TM) system (copyright 1983,
 Carnegie Mellon University). Gaussian is a federally registered
 trademark of Gaussian, Inc.
  
 This software contains proprietary and confidential information,
 including trade secrets, belonging to Gaussian, Inc.
  
 This software is provided under written license and may be
 used, copied, transmitted, or stored only in accord with that
 written license.
  
 The following legend is applicable only to US Government
 contracts under FAR:
  
                    RESTRICTED RIGHTS LEGEND
  
 Use, reproduction and disclosure by the US Government is
 subject to restrictions as set forth in subparagraphs (a)
 and (c) of the Commercial Computer Software - Restricted
 Rights clause in FAR 52.227-19.
  
 Gaussian, Inc.
 340 Quinnipiac St., Bldg. 40, Wallingford CT 06492
  
  
 ---------------------------------------------------------------
 Warning -- This program may not be used in any manner that
 competes with the business of Gaussian, Inc. or will provide
 assistance to any competitor of Gaussian, Inc.  The licensee
 of this program is prohibited from giving any competitor of
 Gaussian, Inc. access to this program.  By using this program,
 the user acknowledges that Gaussian, Inc. is engaged in the
 business of creating and licensing software in the field of
 computational chemistry and represents and warrants to the
 licensee that it is not a competitor of Gaussian, Inc. and that
 it will not use this program in any manner prohibited above.
 ---------------------------------------------------------------
  

 Cite this work as:
 Gaussian 16, Revision C.01,
 M. J. Frisch, G. W. Trucks, H. B. Schlegel, G. E. Scuseria, 
 M. A. Robb, J. R. Cheeseman, G. Scalmani, V. Barone, 
 G. A. Petersson, H. Nakatsuji, X. Li, M. Caricato, A. V. Marenich, 
 J. Bloino, B. G. Janesko, R. Gomperts, B. Mennucci, H. P. Hratchian, 
 J. V. Ortiz, A. F. Izmaylov, J. L. Sonnenberg, D. Williams-Young, 
 F. Ding, F. Lipparini, F. Egidi, J. Goings, B. Peng, A. Petrone, 
 T. Henderson, D. Ranasinghe, V. G. Zakrzewski, J. Gao, N. Rega, 
 G. Zheng, W. Liang, M. Hada, M. Ehara, K. Toyota, R. Fukuda, 
 J. Hasegawa, M. Ishida, T. Nakajima, Y. Honda, O. Kitao, H. Nakai, 
 T. Vreven, K. Throssell, J. A. Montgomery, Jr., J. E. Peralta, 
 F. Ogliaro, M. J. Bearpark, J. J. Heyd, E. N. Brothers, K. N. Kudin, 
 V. N. Staroverov, T. A. Keith, R. Kobayashi, J. Normand, 
 K. Raghavachari, A. P. Rendell, J. C. Burant, S. S. Iyengar, 
 J. Tomasi, M. Cossi, J. M. Millam, M. Klene, C. Adamo, R. Cammi, 
 J. W. Ochterski, R. L. Martin, K. Morokuma, O. Farkas, 
 J. B. Foresman, and D. J. Fox, Gaussian, Inc., Wallingford CT, 2019.
 
 ******************************************
 Gaussian 16:  EM64L-G16RevC.01  3-Jul-2019
                21-Mar-2022 
 ******************************************
 %mem=64gb
 %nproc=8
 Will use up to    8 processors via shared memory.
 ----------------------------------------------------------------------
 #P TD(Nstates=10000) lc-whpbe/Gen SCF(maxcycles=100) Int(Grid=ultrafin
 e)
 ----------------------------------------------------------------------
 1/38=1,172=1/1;
 2/12=2,17=6,18=5,40=1/2;
 3/5=7,11=9,25=1,30=1,74=-71,75=-5/1,2,3,8;
 4//1;
 5/5=2,7=100,38=5/2;
 8/6=1,10=1,108=10000/1;
 9/41=10000,42=1,70=2/14;
 6/7=2,8=2,9=2,10=2/1;
 99/5=1,9=1/99;
 Leave Link    1 at Mon Mar 21 20:08:42 2022, MaxMem=  8589934592 cpu:               0.4 elap:               0.1
 (Enter /home/sabyasachi/g16/l101.exe)
 ---------------------
 xGDB7_00001_tier4.com
 ---------------------
 Symbolic Z-matrix:
 Charge =  0 Multiplicity = 1
 8                     0.        0.        0.11602 
 1                     0.        0.7619   -0.46406 
 1                     0.       -0.7619   -0.46406 
 
 ITRead=  0  0  0
 MicOpt= -1 -1 -1
 NAtoms=      3 NQM=        3 NQMF=       0 NMMI=      0 NMMIF=      0
                NMic=       0 NMicF=      0.
                    Isotopes and Nuclear Properties:
 (Nuclear quadrupole moments (NQMom) in fm**2, nuclear magnetic moments (NMagM)
  in nuclear magnetons)

  Atom         1           2           3
 IAtWgt=          16           1           1
 AtmWgt=  15.9949146   1.0078250   1.0078250
 NucSpn=           0           1           1
 AtZEff=  -0.0000000  -0.0000000  -0.0000000
 NQMom=    0.0000000   0.0000000   0.0000000
 NMagM=    0.0000000   2.7928460   2.7928460
 AtZNuc=   8.0000000   1.0000000   1.0000000
 Leave Link  101 at Mon Mar 21 20:08:42 2022, MaxMem=  8589934592 cpu:               0.6 elap:               0.1
 (Enter /home/sabyasachi/g16/l202.exe)
                          Input orientation:                          
 ---------------------------------------------------------------------
 Center     Atomic      Atomic             Coordinates (Angstroms)
 Number     Number       Type             X           Y           Z
 ---------------------------------------------------------------------
      1          8           0        0.000000    0.000000    0.116015
      2          1           0        0.000000    0.761895   -0.464058
      3          1           0        0.000000   -0.761895   -0.464058
 ---------------------------------------------------------------------
                    Distance matrix (angstroms):
                    1          2          3
     1  O    0.000000
     2  H    0.957585   0.000000
     3  H    0.957585   1.523790   0.000000
 Stoichiometry    H2O
 Framework group  C2V[C2(O),SGV(H2)]
 Deg. of freedom     2
 Full point group                 C2V     NOp   4
 Largest Abelian subgroup         C2V     NOp   4
 Largest concise Abelian subgroup C2      NOp   2
                         Standard orientation:                         
 ---------------------------------------------------------------------
 Center     Atomic      Atomic             Coordinates (Angstroms)
 Number     Number       Type             X           Y           Z
 ---------------------------------------------------------------------
      1          8           0        0.000000   -0.000000    0.116015
      2          1           0        0.000000    0.761895   -0.464058
      3          1           0       -0.000000   -0.761895   -0.464058
 ---------------------------------------------------------------------
 Rotational constants (GHZ):         839.0390262         431.9284530         285.1409139
 Leave Link  202 at Mon Mar 21 20:08:42 2022, MaxMem=  8589934592 cpu:               0.1 elap:               0.0
 (Enter /home/sabyasachi/g16/l301.exe)
 General basis read from cards:  (5D, 7F)
 Centers:       2      3
 S 3 1.00
     Exponent=  1.3010701000D+01 Coefficients=  1.9682158000D-02
     Exponent=  1.9622572000D+00 Coefficients=  1.3796524000D-01
     Exponent=  4.4453796000D-01 Coefficients=  4.7831935000D-01
 S 1 1.00
     Exponent=  1.2194962000D-01 Coefficients=  1.0000000000D+00
 P 1 1.00
     Exponent=  8.0000000000D-01 Coefficients=  1.0000000000D+00
 P 1 1.00
     Exponent=  1.1704099050D-01 Coefficients=  1.0000000000D+00
 ****
 Centers:       1
 S 5 1.00
     Exponent=  2.2661767785D+03 Coefficients= -5.3431809926D-03
     Exponent=  3.4087010191D+02 Coefficients= -3.9890039230D-02
     Exponent=  7.7363135167D+01 Coefficients= -1.7853911985D-01
     Exponent=  2.1479644940D+01 Coefficients= -4.6427684959D-01
     Exponent=  6.6589433124D+00 Coefficients= -4.4309745172D-01
 S 1 1.00
     Exponent=  8.0975975668D-01 Coefficients=  1.0000000000D+00
 S 1 1.00
     Exponent=  2.5530772234D-01 Coefficients=  1.0000000000D+00
 S 1 1.00
     Exponent=  7.6572453250D-02 Coefficients=  1.0000000000D+00
 P 3 1.00
     Exponent=  1.7721504317D+01 Coefficients=  4.3394573193D-02
     Exponent=  3.8635505440D+00 Coefficients=  2.3094120765D-01
     Exponent=  1.0480920883D+00 Coefficients=  5.1375311064D-01
 P 1 1.00
     Exponent=  2.7641544411D-01 Coefficients=  1.0000000000D+00
 P 1 1.00
     Exponent=  6.9002276350D-02 Coefficients=  1.0000000000D+00
 D 1 1.00
     Exponent=  1.2000000000D+00 Coefficients=  1.0000000000D+00
 D 1 1.00
     Exponent=  1.7992024323D-01 Coefficients=  1.0000000000D+00
 ****
 Ernie: Thresh=  0.10000D-02 Tol=  0.10000D-05 Strict=F.
 There are    19 symmetry adapted cartesian basis functions of A1  symmetry.
 There are     4 symmetry adapted cartesian basis functions of A2  symmetry.
 There are     7 symmetry adapted cartesian basis functions of B1  symmetry.
 There are    11 symmetry adapted cartesian basis functions of B2  symmetry.
 There are    17 symmetry adapted basis functions of A1  symmetry.
 There are     4 symmetry adapted basis functions of A2  symmetry.
 There are     7 symmetry adapted basis functions of B1  symmetry.
 There are    11 symmetry adapted basis functions of B2  symmetry.
    39 basis functions,    55 primitive gaussians,    41 cartesian basis functions
     5 alpha electrons        5 beta electrons
       nuclear repulsion energy         9.1891417035 Hartrees.
 IExCor=33909 DFT=T Ex+Corr=LC-wHPBE ExCW=0 ScaHFX=  1.000000
 ScaDFX=  1.000000  1.000000  1.000000  1.000000 ScalE2=  1.000000  1.000000
 IRadAn=      5 IRanWt=     -1 IRanGd=            0 ICorTp=0 IEmpDi=  4
 HFx  wShort=  0.000000 wLong=  0.400000 cFull=  0.000000 cShort=  0.000000 cLong=  1.000000
 DFx  wShort=  0.000000 wLong=  0.400000 cFull=  0.000000 cShort=  1.000000 cLong=  0.000000
 NAtoms=    3 NActive=    3 NUniq=    2 SFac= 2.25D+00 NAtFMM=   60 NAOKFM=F Big=F
 Integral buffers will be    131072 words long.
 Raffenetti 1 integral format.
 Two-electron integral symmetry is turned on.
 Leave Link  301 at Mon Mar 21 20:08:42 2022, MaxMem=  8589934592 cpu:               0.4 elap:               0.1
 (Enter /home/sabyasachi/g16/l302.exe)
 NPDir=0 NMtPBC=     1 NCelOv=     1 NCel=       1 NClECP=     1 NCelD=      1
         NCelK=      1 NCelE2=     1 NClLst=     1 CellRange=     0.0.
 One-electron integrals computed using PRISM.
 One-electron integral symmetry used in STVInt
 NBasis=    39 RedAO= T EigKep=  5.25D-03  NBF=    17     4     7    11
 NBsUse=    39 1.00D-06 EigRej= -1.00D+00 NBFU=    17     4     7    11
 Precomputing XC quadrature grid using
 IXCGrd= 4 IRadAn=           5 IRanWt=          -1 IRanGd=           0 AccXCQ= 0.00D+00.
 Generated NRdTot=       0 NPtTot=           0 NUsed=           0 NTot=          32
 NSgBfM=    41    41    41    41    41 MxSgAt=     3 MxSgA2=     3.
 Leave Link  302 at Mon Mar 21 20:08:42 2022, MaxMem=  8589934592 cpu:               0.9 elap:               0.1
 (Enter /home/sabyasachi/g16/l303.exe)
 DipDrv:  MaxL=1.
 Leave Link  303 at Mon Mar 21 20:08:42 2022, MaxMem=  8589934592 cpu:               0.2 elap:               0.0
 (Enter /home/sabyasachi/g16/l308.exe)
 Leave Link  308 at Mon Mar 21 20:08:42 2022, MaxMem=  8589934592 cpu:               0.2 elap:               0.0
 (Enter /home/sabyasachi/g16/l401.exe)
 ExpMin= 6.90D-02 ExpMax= 2.27D+03 ExpMxC= 3.41D+02 IAcc=3 IRadAn=         5 AccDes= 0.00D+00
 Harris functional with IExCor=33909 and IRadAn=       5 diagonalized for initial guess.
 HarFok:  IExCor=33909 AccDes= 0.00D+00 IRadAn=         5 IDoV= 1 UseB2=F ITyADJ=14
 ICtDFT=  3500011 ScaDFX=  1.000000  1.000000  1.000000  1.000000
 FoFCou: FMM=F IPFlag=           0 FMFlag=      100000 FMFlg1=           0
         NFxFlg=           0 DoJE=T BraDBF=F KetDBF=T FulRan=T
         wScrn=  0.000000 ICntrl=       500 IOpCl=  0 I1Cent=   200000004 NGrid=           0
         NMat0=    1 NMatS0=      1 NMatT0=    0 NMatD0=    1 NMtDS0=    0 NMtDT0=    0
 Petite list used in FoFCou.
 Harris En= -74.3341448246612    
 JPrj=0 DoOrth=F DoCkMO=F.
 Initial guess orbital symmetries:
       Occupied  (A1) (A1) (B2) (A1) (B1)
       Virtual   (A1) (B2) (A1) (B1) (B2) (A1) (A2) (A1) (B1) (A1)
                 (B2) (B2) (B2) (A1) (B1) (A1) (A2) (A1) (B2) (B1)
                 (A1) (B2) (A1) (A2) (B1) (A1) (B2) (B2) (A1) (B1)
                 (A2) (A1) (A1) (B2)
 The electronic state of the initial guess is 1-A1.
 Leave Link  401 at Mon Mar 21 20:08:42 2022, MaxMem=  8589934592 cpu:               1.2 elap:               0.2
 (Enter /home/sabyasachi/g16/l502.exe)
 Keep R1 ints in memory in symmetry-blocked form, NReq=7559224.
 FoFCou: FMM=F IPFlag=           0 FMFlag=           0 FMFlg1=           0
         NFxFlg=           0 DoJE=F BraDBF=F KetDBF=F FulRan=T
         wScrn=  0.000000 ICntrl=       600 IOpCl=  0 I1Cent=           0 NGrid=           0
         NMat0=    1 NMatS0=    780 NMatT0=    0 NMatD0=    1 NMtDS0=    0 NMtDT0=    0
 Petite list used in FoFCou.
 Closed shell SCF:
 Using DIIS extrapolation, IDIIS=  1040.
 NGot=  8589934592 LenX=  8589846988 LenY=  8589844866
 Requested convergence on RMS density matrix=1.00D-08 within 100 cycles.
 Requested convergence on MAX density matrix=1.00D-06.
 Requested convergence on             energy=1.00D-06.
 No special actions if energy rises.
 Integral accuracy reduced to 1.0D-05 until final iterations.

 Cycle   1  Pass 0  IDiag  1:
 E= -76.3121017254874    
 DIIS: error= 2.65D-02 at cycle   1 NSaved=   1.
 NSaved= 1 IEnMin= 1 EnMin= -76.3121017254874     IErMin= 1 ErrMin= 2.65D-02
 ErrMax= 2.65D-02  0.00D+00 EMaxC= 1.00D-01 BMatC= 3.59D-02 BMatP= 3.59D-02
 IDIUse=3 WtCom= 7.35D-01 WtEn= 2.65D-01
 Coeff-Com:  0.100D+01
 Coeff-En:   0.100D+01
 Coeff:      0.100D+01
 Gap=     0.438 Goal=   None    Shift=    0.000
 GapD=    0.438 DampG=2.000 DampE=0.500 DampFc=1.0000 IDamp=-1.
 RMSDP=5.30D-03 MaxDP=7.34D-02              OVMax= 8.72D-02

 Cycle   2  Pass 0  IDiag  1:
 E= -76.3123050867292     Delta-E=       -0.000203361242 Rises=F Damp=F
 DIIS: error= 3.39D-02 at cycle   2 NSaved=   2.
 NSaved= 2 IEnMin= 2 EnMin= -76.3123050867292     IErMin= 1 ErrMin= 2.65D-02
 ErrMax= 3.39D-02  0.00D+00 EMaxC= 1.00D-01 BMatC= 3.81D-02 BMatP= 3.59D-02
 IDIUse=3 WtCom= 6.61D-01 WtEn= 3.39D-01
 Coeff-Com:  0.508D+00 0.492D+00
 Coeff-En:   0.498D+00 0.502D+00
 Coeff:      0.504D+00 0.496D+00
 Gap=     0.525 Goal=   None    Shift=    0.000
 RMSDP=2.70D-03 MaxDP=4.26D-02 DE=-2.03D-04 OVMax= 4.61D-02

 Cycle   3  Pass 0  IDiag  1:
 E= -76.3389229685625     Delta-E=       -0.026617881833 Rises=F Damp=F
 DIIS: error= 1.22D-03 at cycle   3 NSaved=   3.
 NSaved= 3 IEnMin= 3 EnMin= -76.3389229685625     IErMin= 3 ErrMin= 1.22D-03
 ErrMax= 1.22D-03  0.00D+00 EMaxC= 1.00D-01 BMatC= 4.99D-05 BMatP= 3.59D-02
 IDIUse=3 WtCom= 9.88D-01 WtEn= 1.22D-02
 Coeff-Com: -0.410D-02 0.198D-01 0.984D+00
 Coeff-En:   0.000D+00 0.000D+00 0.100D+01
 Coeff:     -0.405D-02 0.195D-01 0.985D+00
 Gap=     0.525 Goal=   None    Shift=    0.000
 RMSDP=2.61D-04 MaxDP=2.80D-03 DE=-2.66D-02 OVMax= 2.59D-03

 Cycle   4  Pass 0  IDiag  1:
 E= -76.3389864715490     Delta-E=       -0.000063502987 Rises=F Damp=F
 DIIS: error= 2.30D-04 at cycle   4 NSaved=   4.
 NSaved= 4 IEnMin= 4 EnMin= -76.3389864715490     IErMin= 4 ErrMin= 2.30D-04
 ErrMax= 2.30D-04  0.00D+00 EMaxC= 1.00D-01 BMatC= 1.96D-06 BMatP= 4.99D-05
 IDIUse=3 WtCom= 9.98D-01 WtEn= 2.30D-03
 Coeff-Com: -0.166D-01-0.145D-01 0.182D-01 0.101D+01
 Coeff-En:   0.000D+00 0.000D+00 0.000D+00 0.100D+01
 Coeff:     -0.165D-01-0.144D-01 0.181D-01 0.101D+01
 Gap=     0.525 Goal=   None    Shift=    0.000
 RMSDP=7.58D-05 MaxDP=9.63D-04 DE=-6.35D-05 OVMax= 1.04D-03

 Cycle   5  Pass 0  IDiag  1:
 E= -76.3389903800469     Delta-E=       -0.000003908498 Rises=F Damp=F
 DIIS: error= 4.90D-05 at cycle   5 NSaved=   5.
 NSaved= 5 IEnMin= 5 EnMin= -76.3389903800469     IErMin= 5 ErrMin= 4.90D-05
 ErrMax= 4.90D-05  0.00D+00 EMaxC= 1.00D-01 BMatC= 7.15D-08 BMatP= 1.96D-06
 IDIUse=1 WtCom= 1.00D+00 WtEn= 0.00D+00
 Coeff-Com:  0.131D-02 0.106D-02-0.297D-01-0.107D+00 0.113D+01
 Coeff:      0.131D-02 0.106D-02-0.297D-01-0.107D+00 0.113D+01
 Gap=     0.525 Goal=   None    Shift=    0.000
 RMSDP=1.89D-05 MaxDP=2.40D-04 DE=-3.91D-06 OVMax= 2.73D-04

 Cycle   6  Pass 0  IDiag  1:
 E= -76.3389905969414     Delta-E=       -0.000000216895 Rises=F Damp=F
 DIIS: error= 1.04D-05 at cycle   6 NSaved=   6.
 NSaved= 6 IEnMin= 6 EnMin= -76.3389905969414     IErMin= 6 ErrMin= 1.04D-05
 ErrMax= 1.04D-05  0.00D+00 EMaxC= 1.00D-01 BMatC= 2.03D-09 BMatP= 7.15D-08
 IDIUse=1 WtCom= 1.00D+00 WtEn= 0.00D+00
 Coeff-Com: -0.164D-03-0.696D-04 0.712D-02 0.930D-02-0.291D+00 0.127D+01
 Coeff:     -0.164D-03-0.696D-04 0.712D-02 0.930D-02-0.291D+00 0.127D+01
 Gap=     0.525 Goal=   None    Shift=    0.000
 RMSDP=2.90D-06 MaxDP=3.18D-05 DE=-2.17D-07 OVMax= 5.77D-05

 Initial convergence to 1.0D-05 achieved.  Increase integral accuracy.
 Cycle   7  Pass 1  IDiag  1:
 E= -76.3389910129081     Delta-E=       -0.000000415967 Rises=F Damp=F
 DIIS: error= 1.27D-06 at cycle   1 NSaved=   1.
 NSaved= 1 IEnMin= 1 EnMin= -76.3389910129081     IErMin= 1 ErrMin= 1.27D-06
 ErrMax= 1.27D-06  0.00D+00 EMaxC= 1.00D-01 BMatC= 4.45D-11 BMatP= 4.45D-11
 IDIUse=1 WtCom= 1.00D+00 WtEn= 0.00D+00
 Coeff-Com:  0.100D+01
 Coeff:      0.100D+01
 Gap=     0.525 Goal=   None    Shift=    0.000
 RMSDP=2.90D-06 MaxDP=3.18D-05 DE=-4.16D-07 OVMax= 7.39D-06

 Cycle   8  Pass 1  IDiag  1:
 E= -76.3389910130428     Delta-E=       -0.000000000135 Rises=F Damp=F
 DIIS: error= 6.39D-07 at cycle   2 NSaved=   2.
 NSaved= 2 IEnMin= 2 EnMin= -76.3389910130428     IErMin= 2 ErrMin= 6.39D-07
 ErrMax= 6.39D-07  0.00D+00 EMaxC= 1.00D-01 BMatC= 8.27D-12 BMatP= 4.45D-11
 IDIUse=1 WtCom= 1.00D+00 WtEn= 0.00D+00
 Coeff-Com: -0.234D-02 0.100D+01
 Coeff:     -0.234D-02 0.100D+01
 Gap=     0.525 Goal=   None    Shift=    0.000
 RMSDP=1.34D-07 MaxDP=1.70D-06 DE=-1.35D-10 OVMax= 3.50D-06

 Cycle   9  Pass 1  IDiag  1:
 E= -76.3389910130619     Delta-E=       -0.000000000019 Rises=F Damp=F
 DIIS: error= 4.85D-07 at cycle   3 NSaved=   3.
 NSaved= 3 IEnMin= 3 EnMin= -76.3389910130619     IErMin= 3 ErrMin= 4.85D-07
 ErrMax= 4.85D-07  0.00D+00 EMaxC= 1.00D-01 BMatC= 5.25D-12 BMatP= 8.27D-12
 IDIUse=1 WtCom= 1.00D+00 WtEn= 0.00D+00
 Coeff-Com: -0.269D+00 0.492D+00 0.777D+00
 Coeff:     -0.269D+00 0.492D+00 0.777D+00
 Gap=     0.525 Goal=   None    Shift=    0.000
 RMSDP=7.85D-08 MaxDP=1.09D-06 DE=-1.90D-11 OVMax= 1.53D-06

 Cycle  10  Pass 1  IDiag  1:
 E= -76.3389910130677     Delta-E=       -0.000000000006 Rises=F Damp=F
 DIIS: error= 3.00D-08 at cycle   4 NSaved=   4.
 NSaved= 4 IEnMin= 4 EnMin= -76.3389910130677     IErMin= 4 ErrMin= 3.00D-08
 ErrMax= 3.00D-08  0.00D+00 EMaxC= 1.00D-01 BMatC= 3.28D-14 BMatP= 5.25D-12
 IDIUse=1 WtCom= 1.00D+00 WtEn= 0.00D+00
 Coeff-Com:  0.451D-01-0.125D+00-0.927D-01 0.117D+01
 Coeff:      0.451D-01-0.125D+00-0.927D-01 0.117D+01
 Gap=     0.525 Goal=   None    Shift=    0.000
 RMSDP=1.03D-08 MaxDP=1.18D-07 DE=-5.77D-12 OVMax= 2.34D-07

 Cycle  11  Pass 1  IDiag  1:
 E= -76.3389910130681     Delta-E=       -0.000000000000 Rises=F Damp=F
 DIIS: error= 3.55D-09 at cycle   5 NSaved=   5.
 NSaved= 5 IEnMin= 5 EnMin= -76.3389910130681     IErMin= 5 ErrMin= 3.55D-09
 ErrMax= 3.55D-09  0.00D+00 EMaxC= 1.00D-01 BMatC= 4.34D-16 BMatP= 3.28D-14
 IDIUse=1 WtCom= 1.00D+00 WtEn= 0.00D+00
 Coeff-Com:  0.666D-02-0.142D-01-0.174D-01 0.236D-01 0.100D+01
 Coeff:      0.666D-02-0.142D-01-0.174D-01 0.236D-01 0.100D+01
 Gap=     0.525 Goal=   None    Shift=    0.000
 RMSDP=1.28D-09 MaxDP=1.21D-08 DE=-4.26D-13 OVMax= 2.20D-08

 SCF Done:  E(RLC-wHPBE) =  -76.3389910131     A.U. after   11 cycles
            NFock= 11  Conv=0.13D-08     -V/T= 2.0086
 KE= 7.568982463900D+01 PE=-1.985710931291D+02 EE= 3.735313577354D+01
 Leave Link  502 at Mon Mar 21 20:08:43 2022, MaxMem=  8589934592 cpu:               2.8 elap:               0.4
 (Enter /home/sabyasachi/g16/l801.exe)
 DoSCS=F DFT=T ScalE2(SS,OS)=  1.000000  1.000000
 ExpMin= 6.90D-02 ExpMax= 2.27D+03 ExpMxC= 3.41D+02 IAcc=3 IRadAn=         5 AccDes= 0.00D+00
 HarFok:  IExCor=  205 AccDes= 0.00D+00 IRadAn=         5 IDoV=-2 UseB2=F ITyADJ=14
 ICtDFT= 12500011 ScaDFX=  1.000000  1.000000  1.000000  1.000000
 Largest valence mixing into a core orbital is  3.44D-05
 Largest core mixing into a valence orbital is  4.42D-06
 Range of M.O.s used for correlation:     2    39
 NBasis=    39 NAE=     5 NBE=     5 NFC=     1 NFV=     0
 NROrb=     38 NOA=     4 NOB=     4 NVA=    34 NVB=    34
 Leave Link  801 at Mon Mar 21 20:08:43 2022, MaxMem=  8589934592 cpu:               0.4 elap:               0.1
 (Enter /home/sabyasachi/g16/l914.exe)
 RHF ground state
 Keep R1, R2, and R3 ints in memory in symmetry-blocked form, NReq=35785796.
 FoFCou: FMM=F IPFlag=           0 FMFlag=           0 FMFlg1=           0
         NFxFlg=           0 DoJE=F BraDBF=F KetDBF=F FulRan=T
         wScrn=  0.000000 ICntrl=       600 IOpCl=  0 I1Cent=           0 NGrid=           0
         NMat0=    1 NMatS0=    780 NMatT0=    0 NMatD0=    1 NMtDS0=    0 NMtDT0=    0
 Petite list used in FoFCou.
 MDV=  8589934592 DFT=T DoStab=F Mixed=T DoRPA=T DoScal=F NonHer=T
 Making orbital integer symmetry assigments:
 Orbital symmetries:
       Occupied  (A1) (A1) (B2) (A1) (B1)
       Virtual   (A1) (B2) (B1) (A1) (B2) (A1) (A2) (A1) (B1) (A1)
                 (B2) (B2) (B2) (A1) (B1) (A1) (A2) (A1) (B2) (B1)
                 (A1) (B2) (A1) (A2) (B1) (A1) (B2) (B2) (A1) (B1)
                 (A2) (A1) (A1) (B2)
   136 initial guesses have been made.
 Convergence on wavefunction:    0.001000000000000
 Davidson Disk Diagonalization:  ConvIn= 1.00D-03 SkipCon=T Conv= 1.00D-03.
 Max sub-space:   816 roots to seek:   272 dimension of matrix:          272
 *** WARNING: Number of orthogonal guesses is          136
 Iteration     1 Dimension   136 NMult     0 NNew    136
 CISAX will form   136 AO SS matrices at one time.
 NMat=   136 NSing=   136 JSym2X=-1.
 New state      4 was old state      5
 New state      5 was old state      4
 New state      8 was old state     10
 New state      9 was old state      8
 New state     10 was old state      9
 New state     13 was old state     14
 New state     14 was old state     13
 New state     16 was old state     17
 New state     17 was old state     18
 New state     18 was old state     16
 New state     20 was old state     23
 New state     21 was old state     20
 New state     22 was old state     21
 New state     23 was old state     22
 New state     25 was old state     26
 New state     26 was old state     25
 New state     31 was old state     32
 New state     32 was old state     31
 New state     36 was old state     38
 New state     37 was old state     36
 New state     38 was old state     39
 New state     39 was old state     42
 New state     40 was old state     41
 New state     41 was old state     37
 New state     42 was old state     43
 New state     43 was old state     44
 New state     44 was old state     40
 New state     45 was old state     47
 New state     47 was old state     45
 New state     48 was old state     50
 New state     50 was old state     48
 New state     51 was old state     53
 New state     52 was old state     51
 New state     53 was old state     52
 New state     57 was old state     59
 New state     58 was old state     57
 New state     59 was old state     58
 New state     63 was old state     64
 New state     64 was old state     65
 New state     65 was old state     63
 New state     66 was old state     67
 New state     67 was old state     66
 New state     69 was old state     72
 New state     71 was old state     69
 New state     72 was old state     75
 New state     73 was old state     71
 New state     74 was old state     73
 New state     75 was old state     74
 New state     76 was old state     78
 New state     77 was old state     76
 New state     78 was old state     79
 New state     79 was old state     80
 New state     80 was old state     77
 New state     83 was old state     84
 New state     84 was old state     83
 New state     87 was old state     88
 New state     88 was old state     87
 New state     89 was old state     90
 New state     90 was old state     89
 New state     92 was old state     93
 New state     93 was old state     94
 New state     94 was old state     92
 New state     96 was old state     97
 New state     97 was old state     96
 New state     98 was old state     99
 New state     99 was old state    100
 New state    100 was old state     98
 New state    101 was old state    102
 New state    102 was old state    101
 New state    105 was old state    106
 New state    106 was old state    107
 New state    107 was old state    105
 New state    110 was old state    111
 New state    111 was old state    110
 New state    113 was old state    114
 New state    114 was old state    113
 New state    117 was old state    118
 New state    118 was old state    119
 New state    119 was old state    120
 New state    120 was old state    117
 New state    123 was old state    124
 New state    124 was old state    123
 New state    127 was old state    128
 New state    128 was old state    127
 Excitation Energies [eV] at current iteration:
 Root      1 :     7.940836005886074
 Root      2 :     9.807695471325674
 Root      3 :    10.012267841825760
 Root      4 :    11.194930646896440
 Root      5 :    11.630296367079740
 Root      6 :    11.923098812792790
 Root      7 :    12.171923812507250
 Root      8 :    12.953121276929100
 Root      9 :    13.164932619553820
 Root     10 :    13.477584414481230
 Root     11 :    13.915427795860870
 Root     12 :    14.139104999871000
 Root     13 :    14.559002248213550
 Root     14 :    14.676690640355560
 Root     15 :    14.994985506682510
 Root     16 :    15.366269482396580
 Root     17 :    16.202127016565620
 Root     18 :    16.220337394834010
 Root     19 :    17.206576090760290
 Root     20 :    17.301614207455850
 Root     21 :    17.373549048635260
 Root     22 :    17.537474667747750
 Root     23 :    17.584095829209500
 Root     24 :    17.601111053845550
 Root     25 :    18.513003381163380
 Root     26 :    19.026049945971740
 Root     27 :    19.225226802652240
 Root     28 :    19.398729571772120
 Root     29 :    19.675169604631040
 Root     30 :    20.165146009532100
 Root     31 :    20.480194176725610
 Root     32 :    20.786171428771630
 Root     33 :    21.228024487857820
 Root     34 :    21.562741026923810
 Root     35 :    22.329903004940560
 Root     36 :    23.099608939020220
 Root     37 :    23.350458524763710
 Root     38 :    23.635851649131650
 Root     39 :    23.680662304949220
 Root     40 :    23.799456627799980
 Root     41 :    24.117279353393630
 Root     42 :    24.576870157433520
 Root     43 :    25.035461086455090
 Root     44 :    25.204202722231440
 Root     45 :    25.796257121680830
 Root     46 :    26.008613887728130
 Root     47 :    27.353963217801820
 Root     48 :    28.258221773101540
 Root     49 :    28.529782838824390
 Root     50 :    28.838287893972110
 Root     51 :    29.016861384185470
 Root     52 :    29.980668641603290
 Root     53 :    30.256218937972790
 Root     54 :    30.610447648739990
 Root     55 :    30.629829663765370
 Root     56 :    31.211883004209110
 Root     57 :    31.761486772988400
 Root     58 :    31.912043994877520
 Root     59 :    32.899796446403220
 Root     60 :    33.371948963104800
 Root     61 :    34.067525287771200
 Root     62 :    34.237062111821520
 Root     63 :    34.695905651364340
 Root     64 :    36.439523250924050
 Root     65 :    36.519977341332710
 Root     66 :    36.988218953622760
 Root     67 :    37.411958477067120
 Root     68 :    38.531671409119470
 Root     69 :    39.335371059578200
 Root     70 :    39.736083399132300
 Root     71 :    40.754202600315080
 Root     72 :    40.840432692305610
 Root     73 :    40.900789116822660
 Root     74 :    41.236785563728010
 Root     75 :    42.012338536918170
 Root     76 :    42.818155978392750
 Root     77 :    42.983612539072030
 Root     78 :    44.831292871153370
 Root     79 :    45.639966411545880
 Root     80 :    47.422767921647760
 Root     81 :    47.583833332396970
 Root     82 :    49.768672546135800
 Root     83 :    50.649413204766440
 Root     84 :    51.450902095007270
 Root     85 :    52.069945180804990
 Root     86 :    52.530087794622260
 Root     87 :    53.564075905218500
 Root     88 :    53.842200270110790
 Root     89 :    55.619280800830070
 Root     90 :    56.315470532259380
 Root     91 :    56.871186808498390
 Root     92 :    57.750555797366400
 Root     93 :    57.884889749302680
 Root     94 :    58.256003367122140
 Root     95 :    58.639711457650830
 Root     96 :    58.957742715293890
 Root     97 :    59.321230504136350
 Root     98 :    61.155824390674650
 Root     99 :    61.775568987619830
 Root    100 :    61.814292921854150
 Root    101 :    65.314366628187730
 Root    102 :    65.323718201256780
 Root    103 :    66.935882872361690
 Root    104 :    67.225007221555910
 Root    105 :    69.959612517806480
 Root    106 :    70.508836898669430
 Root    107 :    70.933002950716880
 Root    108 :    72.030833018601130
 Root    109 :    72.676954764417350
 Root    110 :    74.539385084725140
 Root    111 :    74.768463940196170
 Root    112 :    76.711862683529630
 Root    113 :    77.657146604179300
 Root    114 :    78.164206005170130
 Root    115 :    86.475321467972120
 Root    116 :    88.460456694482300
 Root    117 :    89.995097479608050
 Root    118 :    90.156522014420160
 Root    119 :    90.390056108661480
 Root    120 :    90.410173020370490
 Root    121 :    92.396360180693560
 Root    122 :    92.585598266994310
 Root    123 :    96.391014965091640
 Root    124 :    97.172057236517110
 Root    125 :    99.048576021411850
 Root    126 :   105.924542431447000
 Root    127 :   106.316482935609300
 Root    128 :   106.637133614846700
 Root    129 :   107.948352377875800
 Root    130 :   110.751672183892400
 Root    131 :   111.843580803880000
 Root    132 :   114.849758113005400
 Root    133 :   118.268417590535100
 Root    134 :   122.019778686897000
 Root    135 :   123.296799680717400
 Root    136 :   134.118885921907000
 Convergence achieved for final wavefunctions.
 ***********************************************************************
 Excited states from <AA,BB:AA,BB> singles matrix:
 ***********************************************************************
 
 1PDM for each excited state written to RWF  633
 Ground to excited state transition densities written to RWF  633
 Ground to excited state transition electric dipole moments (Au):
       state          X           Y           Z        Dip. S.      Osc.
         1        -0.5393      0.0000     -0.0000      0.2908      0.0566
         2        -0.0000     -0.0000      0.0000      0.0000      0.0000
         3         0.0000      0.0000     -0.6372      0.4060      0.0996
         4        -0.1359     -0.0000      0.0000      0.0185      0.0051
         5         0.0000      0.0000      0.0748      0.0056      0.0016
         6        -0.0000     -0.1880     -0.0000      0.0353      0.0103
         7        -0.0000      0.0000      0.0000      0.0000      0.0000
         8        -0.3938      0.0000     -0.0000      0.1551      0.0492
         9         0.1096     -0.0000     -0.0000      0.0120      0.0039
        10        -0.0000     -0.0000     -0.3403      0.1158      0.0382
        11         0.0000     -0.4742      0.0000      0.2248      0.0766
        12         0.0000     -0.1777      0.0000      0.0316      0.0109
        13        -0.4443     -0.0000     -0.0000      0.1974      0.0704
        14        -0.0000     -0.9939      0.0000      0.9878      0.3552
        15         0.0000     -0.0000     -0.4072      0.1658      0.0609
        16        -0.0000      0.0000     -0.2609      0.0681      0.0256
        17        -0.0000      0.0000      0.0000      0.0000      0.0000
        18        -0.0000      0.0000      0.0415      0.0017      0.0007
        19        -0.0000      0.0000      0.0000      0.0000      0.0000
        20         0.0593     -0.0000     -0.0000      0.0035      0.0015
        21         0.0000     -0.3242      0.0000      0.1051      0.0447
        22        -0.0000     -0.0000      0.3363      0.1131      0.0486
        23        -0.7296      0.0000     -0.0000      0.5323      0.2293
        24         0.0000      0.0000     -0.0000      0.0000      0.0000
        25        -0.0000     -0.0000     -0.0000      0.0000      0.0000
        26        -0.0000      0.0000     -0.7709      0.5943      0.2770
        27        -0.0000      0.6878      0.0000      0.4731      0.2228
        28        -0.0000     -0.0000      0.4101      0.1681      0.0799
        29         0.0000     -0.0652      0.0000      0.0043      0.0021
        30        -0.4651      0.0000      0.0000      0.2163      0.1068
        31         0.0000      0.0626      0.0000      0.0039      0.0020
        32         0.0000      0.2500      0.0000      0.0625      0.0318
        33        -0.0000      0.0000     -0.0000      0.0000      0.0000
        34         0.0000      0.0000     -0.0000      0.0000      0.0000
        35         0.6179      0.0000     -0.0000      0.3818      0.2089
        36         0.0000     -0.0000      0.3692      0.1363      0.0771
        37        -0.0000      0.2029      0.0000      0.0412      0.0236
        38         0.0000     -0.1316      0.0000      0.0173      0.0100
        39         0.0219      0.0000      0.0000      0.0005      0.0003
        40         0.0000      0.0000     -0.2077      0.0431      0.0252
        41         0.0000      0.0000      0.1568      0.0246      0.0145
        42        -0.0000     -0.7514     -0.0000      0.5645      0.3399
        43         0.6502     -0.0000     -0.0000      0.4228      0.2593
        44         0.0000     -0.0000      0.2388      0.0570      0.0352
        45         0.0000     -0.0000      0.0000      0.0000      0.0000
        46        -0.0000     -0.0000     -0.6969      0.4857      0.3095
        47         0.0000     -0.0000      0.1492      0.0223      0.0149
        48        -0.0000     -0.4281      0.0000      0.1832      0.1269
        49         0.0000      0.0000     -0.6417      0.4118      0.2878
        50        -0.0000      0.1457     -0.0000      0.0212      0.0150
        51         0.0000      0.0000      0.0000      0.0000      0.0000
        52        -0.3522      0.0000     -0.0000      0.1240      0.0911
        53        -0.0000      0.0000      0.1122      0.0126      0.0093
        54        -0.0000      0.6102      0.0000      0.3724      0.2793
        55        -0.4614     -0.0000     -0.0000      0.2129      0.1598
        56        -0.0000      0.1305     -0.0000      0.0170      0.0130
        57         0.0744      0.0000      0.0000      0.0055      0.0043
        58        -0.0000     -0.0000      0.0514      0.0026      0.0021
        59         0.0000      0.0000     -0.0000      0.0000      0.0000
        60         0.0000      0.0000     -0.0737      0.0054      0.0044
        61         0.1092      0.0000     -0.0000      0.0119      0.0100
        62        -0.0000     -0.0000     -0.1816      0.0330      0.0277
        63         0.0000     -0.0000      0.0000      0.0000      0.0000
        64         0.0000      0.0744     -0.0000      0.0055      0.0049
        65         0.0000     -0.0000     -0.0863      0.0075      0.0067
        66        -0.0000      0.0410      0.0000      0.0017      0.0015
        67        -0.0000     -0.0446     -0.0000      0.0020      0.0018
        68        -0.0000     -0.2533     -0.0000      0.0642      0.0606
        69        -0.0922      0.0000     -0.0000      0.0085      0.0082
        70         0.0000     -0.0000      0.0971      0.0094      0.0092
        71         0.0000     -0.0039     -0.0000      0.0000      0.0000
        72        -0.0371      0.0000      0.0000      0.0014      0.0014
        73         0.0000     -0.0000      0.0034      0.0000      0.0000
        74        -0.0000      0.0000     -0.1582      0.0250      0.0253
        75        -0.0259     -0.0000     -0.0000      0.0007      0.0007
        76         0.0000     -0.0000     -0.0000      0.0000      0.0000
        77        -0.0000     -0.0000      0.0969      0.0094      0.0099
        78        -0.0000      0.0000      0.0000      0.0000      0.0000
        79         0.0000     -0.2383     -0.0000      0.0568      0.0635
        80        -0.0000     -0.0000      0.0998      0.0100      0.0116
        81        -0.0000     -0.0000     -0.0000      0.0000      0.0000
        82        -0.0000      0.1781      0.0000      0.0317      0.0387
        83        -0.2899     -0.0000     -0.0000      0.0840      0.1043
        84         0.0000     -0.0000      0.2767      0.0766      0.0965
        85         0.0000     -0.3220     -0.0000      0.1037      0.1323
        86         0.0000     -0.0000     -0.1139      0.0130      0.0167
        87         0.0000     -0.0000      0.0000      0.0000      0.0000
        88         0.0000      0.1949     -0.0000      0.0380      0.0501
        89        -0.0000     -0.0000     -0.0903      0.0082      0.0111
        90         0.0000      0.0000     -0.2040      0.0416      0.0574
        91         0.0000      0.0906      0.0000      0.0082      0.0114
        92        -0.0636     -0.0000      0.0000      0.0040      0.0057
        93        -0.4021     -0.0000     -0.0000      0.1617      0.2292
        94        -0.2764      0.0000      0.0000      0.0764      0.1090
        95         0.0000     -0.0000     -0.2576      0.0663      0.0953
        96        -0.0000      0.0000      0.0000      0.0000      0.0000
        97         0.3391     -0.0000      0.0000      0.1150      0.1671
        98        -0.0000      0.1090     -0.0000      0.0119      0.0178
        99        -0.0000     -0.0000     -0.0000      0.0000      0.0000
       100         0.0000     -0.0000     -0.3835      0.1471      0.2228
       101        -0.0000      0.0000     -0.0085      0.0001      0.0001
       102         0.0000      0.2578      0.0000      0.0664      0.1063
       103        -0.0000      0.1521     -0.0000      0.0231      0.0380
       104         0.0000      0.0000      0.0000      0.0000      0.0000
       105        -0.0000      0.0825      0.0000      0.0068      0.0117
       106        -0.0000      0.0000     -0.0000      0.0000      0.0000
       107         0.0000     -0.0000      0.0376      0.0014      0.0025
       108        -0.2875      0.0000      0.0000      0.0826      0.1458
       109         0.0000     -0.0000      0.0714      0.0051      0.0091
       110         0.1148     -0.0000     -0.0000      0.0132      0.0241
       111         0.0000     -0.0000      0.1274      0.0162      0.0297
       112        -0.0000      0.0885     -0.0000      0.0078      0.0147
       113         0.0000     -0.0103      0.0000      0.0001      0.0002
       114        -0.0000     -0.0000      0.0447      0.0020      0.0038
       115         0.0000     -0.0923      0.0000      0.0085      0.0180
       116         0.0000      0.0000     -0.2745      0.0754      0.1633
       117        -0.1994     -0.0000      0.0000      0.0398      0.0876
       118        -0.0000     -0.0000     -0.0761      0.0058      0.0128
       119         0.0000     -0.0000     -0.0000      0.0000      0.0000
       120         0.0000     -0.3032      0.0000      0.0919      0.2036
       121         0.0849     -0.0000     -0.0000      0.0072      0.0163
       122         0.0000     -0.0000      0.0000      0.0000      0.0000
       123        -0.2857     -0.0000      0.0000      0.0816      0.1927
       124        -0.0000     -0.0000     -0.3520      0.1239      0.2951
       125        -0.0000      0.1708     -0.0000      0.0292      0.0708
       126         0.2697      0.0000      0.0000      0.0727      0.1888
       127         0.0000      0.0000     -0.0618      0.0038      0.0100
       128         0.2204      0.0000      0.0000      0.0486      0.1269
       129        -0.0000     -0.0000     -0.0000      0.0000      0.0000
       130        -0.0000     -0.1455     -0.0000      0.0212      0.0574
       131         0.0000      0.0000      0.0483      0.0023      0.0064
       132        -0.0000     -0.0000     -0.0000      0.0000      0.0000
       133         0.0000      0.2366     -0.0000      0.0560      0.1622
       134        -0.0000     -0.0000      0.1676      0.0281      0.0840
       135        -0.0000     -0.0000     -0.0839      0.0070      0.0213
       136         0.0000      0.0264     -0.0000      0.0007      0.0023
 Ground to excited state transition velocity dipole moments (Au):
       state          X           Y           Z        Dip. S.      Osc.
         1         0.1577     -0.0000      0.0000      0.0249      0.0568
         2        -0.0000      0.0000     -0.0000      0.0000      0.0000
         3        -0.0000     -0.0000      0.2375      0.0564      0.1022
         4         0.0685      0.0000     -0.0000      0.0047      0.0076
         5        -0.0000     -0.0000     -0.0289      0.0008      0.0013
         6         0.0000      0.0896      0.0000      0.0080      0.0122
         7         0.0000     -0.0000      0.0000      0.0000      0.0000
         8         0.1682     -0.0000     -0.0000      0.0283      0.0396
         9        -0.0556      0.0000      0.0000      0.0031      0.0043
        10         0.0000      0.0000      0.1574      0.0248      0.0333
        11        -0.0000      0.2530     -0.0000      0.0640      0.0835
        12         0.0000      0.0875      0.0000      0.0077      0.0098
        13         0.2175      0.0000      0.0000      0.0473      0.0589
        14        -0.0000      0.5089     -0.0000      0.2590      0.3201
        15        -0.0000      0.0000      0.2160      0.0467      0.0564
        16         0.0000     -0.0000      0.1333      0.0178      0.0210
        17         0.0000     -0.0000     -0.0000      0.0000      0.0000
        18         0.0000     -0.0000     -0.0272      0.0007      0.0008
        19         0.0000     -0.0000     -0.0000      0.0000      0.0000
        20        -0.0485      0.0000      0.0000      0.0024      0.0025
        21         0.0000      0.2063      0.0000      0.0426      0.0444
        22         0.0000      0.0000     -0.2218      0.0492      0.0509
        23         0.4674     -0.0000      0.0000      0.2185      0.2254
        24        -0.0000     -0.0000      0.0000      0.0000      0.0000
        25         0.0000      0.0000      0.0000      0.0000      0.0000
        26         0.0000     -0.0000      0.5132      0.2633      0.2511
        27         0.0000     -0.4695     -0.0000      0.2205      0.2080
        28         0.0000      0.0000     -0.3063      0.0938      0.0877
        29         0.0000      0.0603     -0.0000      0.0036      0.0034
        30         0.3605      0.0000     -0.0000      0.1300      0.1169
        31         0.0000     -0.0384      0.0000      0.0015      0.0013
        32        -0.0000     -0.1903      0.0000      0.0362      0.0316
        33         0.0000     -0.0000     -0.0000      0.0000      0.0000
        34        -0.0000     -0.0000      0.0000      0.0000      0.0000
        35        -0.5162     -0.0000      0.0000      0.2665      0.2165
        36        -0.0000      0.0000     -0.3288      0.1081      0.0849
        37         0.0000     -0.1879      0.0000      0.0353      0.0274
        38        -0.0000      0.0994     -0.0000      0.0099      0.0076
        39        -0.0054     -0.0000     -0.0000      0.0000      0.0000
        40        -0.0000     -0.0000      0.1852      0.0343      0.0261
        41        -0.0000     -0.0000     -0.1508      0.0228      0.0171
        42        -0.0000      0.7170      0.0000      0.5141      0.3795
        43        -0.6181      0.0000      0.0000      0.3821      0.2769
        44        -0.0000      0.0000     -0.2279      0.0519      0.0374
        45        -0.0000      0.0000     -0.0000      0.0000      0.0000
        46         0.0000     -0.0000      0.7186      0.5164      0.3602
        47        -0.0000      0.0000     -0.1364      0.0186      0.0123
        48        -0.0000      0.4379     -0.0000      0.1917      0.1231
        49        -0.0000      0.0000      0.6708      0.4500      0.2862
        50        -0.0000     -0.1580      0.0000      0.0250      0.0157
        51        -0.0000      0.0000     -0.0000      0.0000      0.0000
        52         0.3788     -0.0000      0.0000      0.1435      0.0868
        53         0.0000     -0.0000     -0.1214      0.0147      0.0088
        54         0.0000     -0.7052     -0.0000      0.4973      0.2947
        55         0.5608      0.0000      0.0000      0.3145      0.1862
        56        -0.0000     -0.1215      0.0000      0.0148      0.0086
        57        -0.1049     -0.0000     -0.0000      0.0110      0.0063
        58         0.0000      0.0000     -0.0764      0.0058      0.0033
        59        -0.0000     -0.0000      0.0000      0.0000      0.0000
        60        -0.0000      0.0000      0.0741      0.0055      0.0030
        61        -0.1330     -0.0000      0.0000      0.0177      0.0094
        62         0.0000      0.0000      0.2315      0.0536      0.0284
        63        -0.0000      0.0000     -0.0000      0.0000      0.0000
        64         0.0000     -0.0888      0.0000      0.0079      0.0039
        65        -0.0000      0.0000      0.1129      0.0127      0.0063
        66        -0.0000     -0.0666     -0.0000      0.0044      0.0022
        67         0.0000      0.0323      0.0000      0.0010      0.0005
        68         0.0000      0.3251     -0.0000      0.1057      0.0498
        69         0.1526     -0.0000      0.0000      0.0233      0.0107
        70        -0.0000      0.0000     -0.1853      0.0343      0.0157
        71        -0.0000      0.0114      0.0000      0.0001      0.0001
        72         0.0685     -0.0000     -0.0000      0.0047      0.0021
        73        -0.0000      0.0000     -0.0055      0.0000      0.0000
        74         0.0000     -0.0000      0.2543      0.0647      0.0285
        75         0.0623      0.0000      0.0000      0.0039      0.0017
        76         0.0000      0.0000      0.0000      0.0000      0.0000
        77         0.0000      0.0000     -0.1801      0.0325      0.0137
        78         0.0000     -0.0000     -0.0000      0.0000      0.0000
        79        -0.0000      0.4016      0.0000      0.1613      0.0641
        80         0.0000      0.0000     -0.1466      0.0215      0.0082
        81         0.0000      0.0000      0.0000      0.0000      0.0000
        82         0.0000     -0.3610     -0.0000      0.1303      0.0475
        83         0.5684      0.0000      0.0000      0.3231      0.1157
        84        -0.0000      0.0000     -0.5289      0.2798      0.0986
        85        -0.0000      0.5528      0.0000      0.3056      0.1065
        86        -0.0000      0.0000      0.1955      0.0382      0.0132
        87        -0.0000      0.0000     -0.0000      0.0000      0.0000
        88        -0.0000     -0.4115      0.0000      0.1693      0.0570
        89         0.0000      0.0000      0.1321      0.0174      0.0057
        90        -0.0000      0.0000      0.4076      0.1661      0.0535
        91        -0.0000     -0.1376     -0.0000      0.0189      0.0060
        92         0.1699      0.0000     -0.0000      0.0289      0.0091
        93         0.8820      0.0000      0.0000      0.7778      0.2438
        94         0.4877     -0.0000      0.0000      0.2378      0.0741
        95        -0.0000     -0.0000      0.5749      0.3305      0.1022
        96         0.0000     -0.0000     -0.0000      0.0000      0.0000
        97        -0.6551      0.0000     -0.0000      0.4292      0.1312
        98         0.0000     -0.2693      0.0000      0.0725      0.0215
        99         0.0000      0.0000      0.0000      0.0000      0.0000
       100        -0.0000      0.0000      0.7338      0.5384      0.1580
       101         0.0000     -0.0000     -0.0114      0.0001      0.0000
       102        -0.0000     -0.5490     -0.0000      0.3014      0.0837
       103         0.0000     -0.3723     -0.0000      0.1386      0.0376
       104        -0.0000     -0.0000      0.0000      0.0000      0.0000
       105         0.0000     -0.1582     -0.0000      0.0250      0.0065
       106         0.0000     -0.0000     -0.0000      0.0000      0.0000
       107        -0.0000      0.0000     -0.0838      0.0070      0.0018
       108         0.5911     -0.0000     -0.0000      0.3495      0.0880
       109        -0.0000      0.0000     -0.1739      0.0302      0.0075
       110        -0.2311      0.0000      0.0000      0.0534      0.0130
       111        -0.0000      0.0000     -0.3303      0.1091      0.0265
       112         0.0000     -0.3074      0.0000      0.0945      0.0223
       113        -0.0000      0.0245     -0.0000      0.0006      0.0001
       114         0.0000      0.0000     -0.0474      0.0022      0.0005
       115        -0.0000      0.3426     -0.0000      0.1174      0.0246
       116        -0.0000     -0.0000      0.7706      0.5938      0.1218
       117         0.5476      0.0000     -0.0000      0.2998      0.0604
       118         0.0000      0.0000      0.2843      0.0808      0.0163
       119        -0.0000      0.0000      0.0000      0.0000      0.0000
       120        -0.0000      0.8995     -0.0000      0.8091      0.1623
       121        -0.2602      0.0000      0.0000      0.0677      0.0133
       122        -0.0000      0.0000     -0.0000      0.0000      0.0000
       123         0.8729     -0.0000     -0.0000      0.7619      0.1434
       124         0.0000      0.0000      1.1381      1.2952      0.2418
       125         0.0000     -0.5874      0.0000      0.3451      0.0632
       126        -0.9506     -0.0000     -0.0000      0.9036      0.1547
       127        -0.0000     -0.0000      0.1708      0.0292      0.0050
       128        -0.7749     -0.0000     -0.0000      0.6004      0.1021
       129         0.0000      0.0000      0.0000      0.0000      0.0000
       130         0.0000      0.5252      0.0000      0.2759      0.0452
       131        -0.0000     -0.0000     -0.1861      0.0346      0.0056
       132         0.0000      0.0000      0.0000      0.0000      0.0000
       133        -0.0000     -0.9273      0.0000      0.8599      0.1319
       134         0.0000      0.0000     -0.6793      0.4615      0.0686
       135         0.0000      0.0000      0.3419      0.1169      0.0172
       136        -0.0000     -0.0979      0.0000      0.0096      0.0013
 Ground to excited state transition magnetic dipole moments (Au):
       state          X           Y           Z
         1         0.0000     -0.0673     -0.0000
         2        -0.0000      0.0000      0.0707
         3         0.0000      0.0000     -0.0000
         4         0.0000     -0.0316      0.0000
         5        -0.0000      0.0000     -0.0000
         6        -0.0804      0.0000     -0.0000
         7         0.0000      0.0000      0.2076
         8         0.0000      0.1206     -0.0000
         9         0.0000     -0.0492      0.0000
        10        -0.0000      0.0000      0.0000
        11         0.1238      0.0000     -0.0000
        12         0.1522      0.0000      0.0000
        13        -0.0000      0.0918     -0.0000
        14        -0.3086     -0.0000      0.0000
        15        -0.0000     -0.0000     -0.0000
        16         0.0000      0.0000      0.0000
        17        -0.0000     -0.0000      0.1724
        18         0.0000      0.0000     -0.0000
        19        -0.0000     -0.0000      0.0169
        20         0.0000     -0.0344      0.0000
        21         0.0740      0.0000      0.0000
        22         0.0000     -0.0000      0.0000
        23        -0.0000     -0.0516      0.0000
        24        -0.0000      0.0000      0.1000
        25        -0.0000     -0.0000     -0.1303
        26        -0.0000     -0.0000     -0.0000
        27        -0.3373     -0.0000      0.0000
        28         0.0000     -0.0000      0.0000
        29         0.0837     -0.0000      0.0000
        30        -0.0000     -0.1610     -0.0000
        31         0.0448     -0.0000     -0.0000
        32         0.2069      0.0000     -0.0000
        33         0.0000     -0.0000      0.2148
        34         0.0000     -0.0000      0.1534
        35         0.0000     -0.1191     -0.0000
        36         0.0000      0.0000     -0.0000
        37        -0.0911      0.0000     -0.0000
        38        -0.1463     -0.0000      0.0000
        39         0.0000      0.0317     -0.0000
        40         0.0000      0.0000     -0.0000
        41         0.0000     -0.0000     -0.0000
        42        -0.2512     -0.0000     -0.0000
        43        -0.0000     -0.0531     -0.0000
        44        -0.0000     -0.0000     -0.0000
        45         0.0000     -0.0000      0.1115
        46        -0.0000      0.0000      0.0000
        47         0.0000      0.0000     -0.0000
        48         0.0350      0.0000     -0.0000
        49        -0.0000      0.0000     -0.0000
        50         0.0322     -0.0000      0.0000
        51        -0.0000      0.0000     -0.0785
        52        -0.0000     -0.0135     -0.0000
        53         0.0000     -0.0000     -0.0000
        54        -0.3074     -0.0000      0.0000
        55         0.0000     -0.0784     -0.0000
        56         0.1273     -0.0000      0.0000
        57        -0.0000     -0.1067     -0.0000
        58        -0.0000      0.0000     -0.0000
        59        -0.0000      0.0000     -0.1156
        60         0.0000     -0.0000      0.0000
        61        -0.0000      0.0510      0.0000
        62         0.0000     -0.0000      0.0000
        63        -0.0000      0.0000      0.1268
        64         0.0532      0.0000      0.0000
        65        -0.0000     -0.0000     -0.0000
        66        -0.1095      0.0000      0.0000
        67        -0.1566     -0.0000     -0.0000
        68        -0.0512     -0.0000      0.0000
        69         0.0000      0.0070      0.0000
        70         0.0000     -0.0000     -0.0000
        71         0.0719     -0.0000     -0.0000
        72        -0.0000      0.0964      0.0000
        73         0.0000     -0.0000     -0.0000
        74        -0.0000      0.0000      0.0000
        75        -0.0000     -0.0468      0.0000
        76         0.0000     -0.0000     -0.1685
        77         0.0000      0.0000     -0.0000
        78        -0.0000      0.0000     -0.1351
        79         0.1896     -0.0000     -0.0000
        80        -0.0000     -0.0000     -0.0000
        81         0.0000      0.0000     -0.0445
        82         0.2954      0.0000     -0.0000
        83        -0.0000      0.1416      0.0000
        84        -0.0000      0.0000      0.0000
        85        -0.1710     -0.0000     -0.0000
        86        -0.0000     -0.0000      0.0000
        87        -0.0000      0.0000      0.2818
        88         0.1264      0.0000     -0.0000
        89         0.0000     -0.0000      0.0000
        90         0.0000      0.0000     -0.0000
        91        -0.1334      0.0000     -0.0000
        92        -0.0000      0.1173      0.0000
        93         0.0000      0.0014     -0.0000
        94        -0.0000     -0.2341     -0.0000
        95        -0.0000      0.0000     -0.0000
        96        -0.0000     -0.0000     -0.0445
        97         0.0000      0.1031     -0.0000
        98        -0.1919      0.0000      0.0000
        99         0.0000     -0.0000      0.4582
       100         0.0000      0.0000     -0.0000
       101        -0.0000      0.0000     -0.0000
       102        -0.4091      0.0000      0.0000
       103        -0.0571      0.0000     -0.0000
       104        -0.0000     -0.0000     -0.1018
       105         0.0509      0.0000      0.0000
       106        -0.0000     -0.0000     -0.3000
       107        -0.0000     -0.0000      0.0000
       108         0.0000      0.1337     -0.0000
       109        -0.0000     -0.0000      0.0000
       110         0.0000      0.1546     -0.0000
       111         0.0000      0.0000     -0.0000
       112         0.1112     -0.0000     -0.0000
       113         0.2569     -0.0000      0.0000
       114         0.0000      0.0000     -0.0000
       115        -0.0892     -0.0000      0.0000
       116         0.0000     -0.0000      0.0000
       117        -0.0000      0.1154     -0.0000
       118        -0.0000      0.0000      0.0000
       119        -0.0000     -0.0000     -0.0550
       120        -0.1270     -0.0000      0.0000
       121        -0.0000     -0.0396      0.0000
       122        -0.0000     -0.0000     -0.0634
       123         0.0000      0.1999      0.0000
       124        -0.0000      0.0000     -0.0000
       125         0.1948      0.0000     -0.0000
       126         0.0000     -0.1549     -0.0000
       127         0.0000     -0.0000      0.0000
       128         0.0000     -0.1330     -0.0000
       129        -0.0000      0.0000     -0.0098
       130        -0.1099      0.0000     -0.0000
       131         0.0000     -0.0000     -0.0000
       132        -0.0000      0.0000      0.0260
       133         0.1465     -0.0000      0.0000
       134        -0.0000      0.0000      0.0000
       135        -0.0000      0.0000     -0.0000
       136         0.0131      0.0000     -0.0000
 Ground to excited state transition velocity quadrupole moments (Au):
       state          XX          YY          ZZ          XY          XZ          YZ
         1         0.0000      0.0000      0.0000      0.0000     -0.0667      0.0000
         2         0.0000     -0.0000      0.0000     -0.2500     -0.0000     -0.0000
         3         0.1586     -0.1263     -0.1404      0.0000      0.0000      0.0000
         4         0.0000      0.0000     -0.0000      0.0000      0.3814      0.0000
         5         0.9071      0.0464      0.0001      0.0000     -0.0000      0.0000
         6         0.0000      0.0000      0.0000      0.0000      0.0000     -0.3810
         7         0.0000     -0.0000     -0.0000      0.2626      0.0000      0.0000
         8         0.0000     -0.0000      0.0000     -0.0000      0.1743      0.0000
         9         0.0000      0.0000      0.0000      0.0000      0.2799     -0.0000
        10         0.4756     -0.0659      0.8732     -0.0000     -0.0000     -0.0000
        11         0.0000     -0.0000     -0.0000     -0.0000     -0.0000     -0.3029
        12         0.0000     -0.0000     -0.0000      0.0000      0.0000     -0.1778
        13         0.0000      0.0000      0.0000      0.0000      0.0007     -0.0000
        14        -0.0000     -0.0000      0.0000      0.0000     -0.0000     -0.2443
        15         0.0781      0.2299     -0.0977     -0.0000     -0.0000     -0.0000
        16        -0.0285      0.0739      0.0574      0.0000     -0.0000      0.0000
        17        -0.0000     -0.0000     -0.0000     -0.2193     -0.0000      0.0000
        18        -0.2444     -0.7801     -0.2106      0.0000     -0.0000     -0.0000
        19         0.0000      0.0000     -0.0000      0.3181     -0.0000     -0.0000
        20        -0.0000     -0.0000     -0.0000     -0.0000     -0.0284      0.0000
        21        -0.0000      0.0000      0.0000     -0.0000     -0.0000      0.2246
        22         0.4639      0.7670      0.4571     -0.0000     -0.0000     -0.0000
        23        -0.0000     -0.0000     -0.0000     -0.0000     -0.1030     -0.0000
        24        -0.0000     -0.0000     -0.0000     -0.1972      0.0000      0.0000
        25         0.0000      0.0000     -0.0000      0.3540     -0.0000     -0.0000
        26        -0.0938     -0.5135     -0.5801     -0.0000     -0.0000      0.0000
        27        -0.0000      0.0000      0.0000      0.0000      0.0000      0.3468
        28        -0.0129     -0.0868      0.2864     -0.0000     -0.0000     -0.0000
        29         0.0000     -0.0000      0.0000     -0.0000     -0.0000      0.1889
        30        -0.0000      0.0000      0.0000      0.0000     -0.3485      0.0000
        31         0.0000      0.0000      0.0000      0.0000     -0.0000      0.3008
        32         0.0000      0.0000     -0.0000      0.0000      0.0000      0.6157
        33        -0.0000      0.0000      0.0000     -0.5342      0.0000      0.0000
        34         0.0000     -0.0000      0.0000      0.1862     -0.0000      0.0000
        35        -0.0000     -0.0000      0.0000      0.0000      0.0257      0.0000
        36        -0.1479      0.0875     -0.1695      0.0000     -0.0000      0.0000
        37        -0.0000     -0.0000      0.0000      0.0000      0.0000     -0.0682
        38        -0.0000     -0.0000      0.0000     -0.0000     -0.0000      0.3240
        39         0.0000      0.0000     -0.0000     -0.0000     -0.0053     -0.0000
        40        -0.2183     -0.2763      0.5454      0.0000     -0.0000     -0.0000
        41         0.1483     -1.4684      0.2952     -0.0000     -0.0000     -0.0000
        42        -0.0000     -0.0000      0.0000      0.0000     -0.0000      0.5727
        43        -0.0000      0.0000     -0.0000     -0.0000     -0.5424      0.0000
        44         0.3307      0.2463      0.3540     -0.0000     -0.0000      0.0000
        45         0.0000      0.0000      0.0000      0.4823     -0.0000     -0.0000
        46        -0.2945     -0.1792      0.5240     -0.0000      0.0000      0.0000
        47         0.4100      0.9035      0.7804      0.0000     -0.0000      0.0000
        48         0.0000     -0.0000     -0.0000      0.0000     -0.0000      0.5939
        49         0.1775      0.6143      0.8353     -0.0000     -0.0000     -0.0000
        50         0.0000      0.0000      0.0000      0.0000      0.0000      0.4010
        51        -0.0000     -0.0000     -0.0000     -0.3979     -0.0000     -0.0000
        52        -0.0000      0.0000     -0.0000     -0.0000      0.1131      0.0000
        53         0.0357      0.4042     -0.1612      0.0000      0.0000      0.0000
        54         0.0000      0.0000     -0.0000     -0.0000      0.0000     -0.2920
        55        -0.0000      0.0000      0.0000      0.0000      0.4218      0.0000
        56         0.0000     -0.0000      0.0000     -0.0000     -0.0000      0.6845
        57         0.0000     -0.0000      0.0000      0.0000      0.1503     -0.0000
        58         0.2925     -0.9479      0.2448      0.0000     -0.0000     -0.0000
        59         0.0000      0.0000     -0.0000      0.6897      0.0000      0.0000
        60         0.3372      0.0081     -0.9574     -0.0000     -0.0000     -0.0000
        61         0.0000     -0.0000     -0.0000     -0.0000      0.6537     -0.0000
        62         0.5274     -0.7626      0.1600      0.0000     -0.0000      0.0000
        63        -0.0000      0.0000     -0.0000      0.3764      0.0000     -0.0000
        64        -0.0000     -0.0000     -0.0000      0.0000      0.0000      0.1510
        65        -0.4660     -0.6527     -0.2738      0.0000     -0.0000     -0.0000
        66         0.0000      0.0000      0.0000     -0.0000     -0.0000     -0.3225
        67        -0.0000     -0.0000     -0.0000      0.0000     -0.0000     -0.2745
        68         0.0000     -0.0000     -0.0000     -0.0000      0.0000     -0.9763
        69         0.0000      0.0000     -0.0000      0.0000      0.4714      0.0000
        70         1.0564      0.1348     -0.4270      0.0000     -0.0000     -0.0000
        71         0.0000     -0.0000     -0.0000      0.0000     -0.0000      0.5975
        72        -0.0000      0.0000     -0.0000     -0.0000      0.2879     -0.0000
        73        -0.6738      0.6943     -0.0393      0.0000     -0.0000      0.0000
        74         0.6136     -0.5001      0.3691     -0.0000      0.0000     -0.0000
        75         0.0000     -0.0000      0.0000     -0.0000     -0.6660     -0.0000
        76        -0.0000      0.0000     -0.0000      0.8920     -0.0000      0.0000
        77        -0.0826     -0.7115      0.8800      0.0000      0.0000      0.0000
        78         0.0000     -0.0000      0.0000      0.1544     -0.0000      0.0000
        79        -0.0000      0.0000     -0.0000      0.0000     -0.0000     -0.1698
        80         0.7386      0.4948      1.4119     -0.0000     -0.0000     -0.0000
        81        -0.0000     -0.0000     -0.0000     -0.4310      0.0000      0.0000
        82         0.0000     -0.0000      0.0000      0.0000      0.0000      0.1174
        83         0.0000      0.0000      0.0000     -0.0000      0.0700      0.0000
        84         0.0716      0.1973      0.6373      0.0000      0.0000     -0.0000
        85         0.0000     -0.0000     -0.0000      0.0000      0.0000     -0.6734
        86         0.0513      0.4513     -0.0512     -0.0000     -0.0000     -0.0000
        87        -0.0000     -0.0000      0.0000     -0.7540      0.0000     -0.0000
        88        -0.0000     -0.0000     -0.0000      0.0000      0.0000      0.1212
        89         0.0637     -1.6434     -0.2752     -0.0000     -0.0000      0.0000
        90         1.2582      0.5273      0.0337      0.0000      0.0000      0.0000
        91         0.0000     -0.0000     -0.0000     -0.0000      0.0000      0.7087
        92        -0.0000     -0.0000     -0.0000      0.0000      0.3735     -0.0000
        93         0.0000      0.0000      0.0000      0.0000     -0.3416      0.0000
        94        -0.0000      0.0000      0.0000      0.0000     -0.3363      0.0000
        95         0.2739      0.9677      0.2294     -0.0000      0.0000      0.0000
        96        -0.0000     -0.0000     -0.0000     -0.3571     -0.0000     -0.0000
        97        -0.0000     -0.0000      0.0000     -0.0000      0.7615     -0.0000
        98         0.0000     -0.0000      0.0000     -0.0000     -0.0000     -0.7265
        99         0.0000      0.0000     -0.0000     -1.1151     -0.0000      0.0000
       100         0.5967      0.2972     -0.2633      0.0000      0.0000      0.0000
       101        -0.6343      1.2356     -1.1468      0.0000      0.0000     -0.0000
       102         0.0000     -0.0000      0.0000     -0.0000      0.0000     -0.4852
       103        -0.0000      0.0000     -0.0000      0.0000     -0.0000     -0.5649
       104        -0.0000      0.0000     -0.0000      0.3264     -0.0000     -0.0000
       105        -0.0000      0.0000     -0.0000     -0.0000      0.0000     -0.4646
       106         0.0000      0.0000      0.0000      0.7723     -0.0000     -0.0000
       107         1.1467      0.4706      1.0367     -0.0000     -0.0000     -0.0000
       108         0.0000     -0.0000      0.0000      0.0000     -0.0270      0.0000
       109         0.1426     -0.3324      0.2076     -0.0000     -0.0000     -0.0000
       110        -0.0000      0.0000      0.0000      0.0000      0.5677     -0.0000
       111         0.7214     -0.2464     -0.0801      0.0000      0.0000      0.0000
       112        -0.0000      0.0000      0.0000      0.0000      0.0000     -0.4216
       113         0.0000      0.0000     -0.0000     -0.0000     -0.0000      0.0891
       114        -0.5193     -0.6314      0.6000     -0.0000     -0.0000      0.0000
       115         0.0000     -0.0000     -0.0000      0.0000     -0.0000     -0.0531
       116        -0.1633      0.4449      0.2361     -0.0000     -0.0000     -0.0000
       117        -0.0000      0.0000      0.0000      0.0000      0.2667      0.0000
       118         0.3631     -0.1960     -0.2421     -0.0000      0.0000      0.0000
       119         0.0000     -0.0000     -0.0000      0.5609     -0.0000      0.0000
       120        -0.0000      0.0000      0.0000     -0.0000     -0.0000      0.5053
       121         0.0000     -0.0000     -0.0000     -0.0000     -0.2078      0.0000
       122        -0.0000     -0.0000      0.0000      0.4430     -0.0000      0.0000
       123         0.0000      0.0000     -0.0000     -0.0000      0.6401     -0.0000
       124        -0.2860     -0.2467      1.2062      0.0000      0.0000      0.0000
       125        -0.0000     -0.0000      0.0000     -0.0000      0.0000     -0.1068
       126         0.0000     -0.0000      0.0000      0.0000     -0.7123     -0.0000
       127        -0.2446      0.4708     -0.0327     -0.0000     -0.0000     -0.0000
       128         0.0000     -0.0000     -0.0000      0.0000      0.0890     -0.0000
       129        -0.0000      0.0000     -0.0000      0.3825      0.0000      0.0000
       130        -0.0000      0.0000      0.0000     -0.0000      0.0000      0.3872
       131        -0.1234     -0.1095      0.2050      0.0000     -0.0000     -0.0000
       132        -0.0000      0.0000      0.0000      0.2951     -0.0000      0.0000
       133        -0.0000      0.0000      0.0000      0.0000     -0.0000     -0.5406
       134         0.1008     -0.1776     -0.6071      0.0000      0.0000      0.0000
       135        -0.4488      0.2220      0.2771     -0.0000      0.0000      0.0000
       136        -0.0000     -0.0000     -0.0000      0.0000      0.0000     -0.2328
 <0|del|b> * <b|rxdel|0> + <0|del|b> * <b|delr+rdel|0>
 Rotatory Strengths (R) in cgs (10**-40 erg-esu-cm/Gauss)
       state          XX          YY          ZZ    R(velocity)    E-M Angle
         1         0.0000      0.0000      0.0000      0.0000       90.00
         2         0.0000     -0.0000     -0.0000     -0.0000       90.00
         3         0.0000     -0.0000     -0.0000     -0.0000       90.00
         4        -0.0000      0.0000      0.0000      0.0000       90.00
         5        -0.0000      0.0000      0.0000      0.0000       90.00
         6        -0.0000     -0.0000      0.0000     -0.0000       90.00
         7         0.0000     -0.0000     -0.0000      0.0000       90.00
         8         0.0000      0.0000     -0.0000     -0.0000       90.00
         9        -0.0000      0.0000      0.0000     -0.0000       90.00
        10        -0.0000      0.0000     -0.0000      0.0000       90.00
        11         0.0000      0.0000     -0.0000      0.0000       90.00
        12        -0.0000     -0.0000      0.0000      0.0000       90.00
        13         0.0000     -0.0000      0.0000      0.0000       90.00
        14         0.0000      0.0000     -0.0000      0.0000       90.00
        15        -0.0000     -0.0000     -0.0000     -0.0000       90.00
        16         0.0000     -0.0000     -0.0000      0.0000       90.00
        17         0.0000     -0.0000     -0.0000     -0.0000       90.00
        18        -0.0000      0.0000      0.0000      0.0000       90.00
        19        -0.0000      0.0000      0.0000     -0.0000       90.00
        20        -0.0000     -0.0000     -0.0000     -0.0000       90.00
        21         0.0000      0.0000     -0.0000      0.0000       90.00
        22         0.0000     -0.0000      0.0000     -0.0000       90.00
        23        -0.0000     -0.0000      0.0000     -0.0000       90.00
        24        -0.0000      0.0000      0.0000      0.0000       90.00
        25         0.0000     -0.0000      0.0000     -0.0000       90.00
        26        -0.0000      0.0000     -0.0000     -0.0000       90.00
        27         0.0000      0.0000     -0.0000     -0.0000       90.00
        28         0.0000     -0.0000      0.0000     -0.0000       90.00
        29         0.0000      0.0000     -0.0000      0.0000       90.00
        30         0.0000      0.0000     -0.0000     -0.0000       90.00
        31        -0.0000      0.0000      0.0000      0.0000       90.00
        32         0.0000     -0.0000      0.0000     -0.0000       90.00
        33         0.0000     -0.0000     -0.0000     -0.0000       90.00
        34         0.0000     -0.0000      0.0000      0.0000       90.00
        35         0.0000     -0.0000      0.0000     -0.0000       90.00
        36        -0.0000      0.0000      0.0000      0.0000       90.00
        37         0.0000     -0.0000     -0.0000     -0.0000       90.00
        38        -0.0000     -0.0000      0.0000      0.0000       90.00
        39        -0.0000      0.0000     -0.0000     -0.0000       90.00
        40         0.0000     -0.0000     -0.0000     -0.0000       90.00
        41         0.0000     -0.0000     -0.0000      0.0000       90.00
        42        -0.0000     -0.0000      0.0000      0.0000       90.00
        43         0.0000     -0.0000      0.0000      0.0000       90.00
        44         0.0000     -0.0000     -0.0000      0.0000       90.00
        45        -0.0000      0.0000     -0.0000     -0.0000       90.00
        46        -0.0000      0.0000     -0.0000      0.0000       90.00
        47        -0.0000      0.0000     -0.0000      0.0000       90.00
        48         0.0000     -0.0000      0.0000      0.0000       90.00
        49        -0.0000      0.0000     -0.0000     -0.0000       90.00
        50         0.0000     -0.0000     -0.0000      0.0000       90.00
        51         0.0000     -0.0000     -0.0000      0.0000       90.00
        52         0.0000     -0.0000     -0.0000     -0.0000       90.00
        53        -0.0000      0.0000     -0.0000      0.0000       90.00
        54         0.0000     -0.0000     -0.0000     -0.0000       90.00
        55        -0.0000      0.0000      0.0000      0.0000       90.00
        56        -0.0000     -0.0000      0.0000      0.0000       90.00
        57         0.0000      0.0000     -0.0000      0.0000       90.00
        58        -0.0000      0.0000      0.0000      0.0000       90.00
        59         0.0000     -0.0000     -0.0000     -0.0000       90.00
        60        -0.0000      0.0000     -0.0000      0.0000       90.00
        61         0.0000      0.0000     -0.0000      0.0000       90.00
        62         0.0000     -0.0000     -0.0000      0.0000       90.00
        63        -0.0000      0.0000     -0.0000     -0.0000       90.00
        64         0.0000      0.0000     -0.0000      0.0000       90.00
        65         0.0000     -0.0000     -0.0000     -0.0000       90.00
        66        -0.0000      0.0000     -0.0000      0.0000       90.00
        67         0.0000     -0.0000      0.0000     -0.0000       90.00
        68        -0.0000     -0.0000      0.0000     -0.0000       90.00
        69         0.0000      0.0000     -0.0000      0.0000       90.00
        70        -0.0000      0.0000     -0.0000      0.0000       90.00
        71         0.0000     -0.0000      0.0000     -0.0000       90.00
        72         0.0000     -0.0000      0.0000     -0.0000       90.00
        73         0.0000      0.0000     -0.0000      0.0000       90.00
        74        -0.0000      0.0000     -0.0000      0.0000       90.00
        75         0.0000     -0.0000      0.0000     -0.0000       90.00
        76         0.0000     -0.0000     -0.0000     -0.0000       90.00
        77        -0.0000      0.0000      0.0000      0.0000       90.00
        78        -0.0000      0.0000     -0.0000      0.0000       90.00
        79         0.0000     -0.0000     -0.0000     -0.0000       90.00
        80         0.0000     -0.0000     -0.0000      0.0000       90.00
        81        -0.0000      0.0000      0.0000     -0.0000       90.00
        82         0.0000      0.0000     -0.0000      0.0000       90.00
        83         0.0000     -0.0000     -0.0000     -0.0000       90.00
        84        -0.0000      0.0000      0.0000     -0.0000       90.00
        85        -0.0000      0.0000     -0.0000      0.0000       90.00
        86        -0.0000      0.0000     -0.0000      0.0000       90.00
        87         0.0000     -0.0000     -0.0000     -0.0000       90.00
        88         0.0000     -0.0000     -0.0000     -0.0000       90.00
        89        -0.0000      0.0000     -0.0000      0.0000       90.00
        90         0.0000     -0.0000      0.0000     -0.0000       90.00
        91         0.0000     -0.0000      0.0000      0.0000       90.00
        92        -0.0000     -0.0000      0.0000     -0.0000       90.00
        93         0.0000      0.0000     -0.0000      0.0000       90.00
        94        -0.0000      0.0000     -0.0000      0.0000       90.00
        95        -0.0000      0.0000      0.0000     -0.0000       90.00
        96         0.0000     -0.0000      0.0000      0.0000       90.00
        97        -0.0000     -0.0000     -0.0000     -0.0000       90.00
        98        -0.0000     -0.0000      0.0000     -0.0000       90.00
        99        -0.0000      0.0000     -0.0000      0.0000       90.00
       100         0.0000     -0.0000      0.0000     -0.0000       90.00
       101        -0.0000      0.0000     -0.0000      0.0000       90.00
       102         0.0000      0.0000     -0.0000      0.0000       90.00
       103        -0.0000     -0.0000      0.0000     -0.0000       90.00
       104         0.0000     -0.0000      0.0000     -0.0000       90.00
       105        -0.0000     -0.0000      0.0000     -0.0000       90.00
       106        -0.0000      0.0000      0.0000      0.0000       90.00
       107         0.0000     -0.0000     -0.0000     -0.0000       90.00
       108        -0.0000      0.0000     -0.0000      0.0000       90.00
       109         0.0000     -0.0000     -0.0000     -0.0000       90.00
       110        -0.0000      0.0000     -0.0000      0.0000       90.00
       111        -0.0000      0.0000      0.0000      0.0000       90.00
       112         0.0000     -0.0000      0.0000      0.0000       90.00
       113        -0.0000     -0.0000     -0.0000     -0.0000       90.00
       114         0.0000      0.0000     -0.0000      0.0000       90.00
       115         0.0000      0.0000     -0.0000     -0.0000       90.00
       116        -0.0000      0.0000     -0.0000      0.0000       90.00
       117        -0.0000      0.0000      0.0000      0.0000       90.00
       118        -0.0000      0.0000      0.0000      0.0000       90.00
       119         0.0000     -0.0000      0.0000     -0.0000       90.00
       120         0.0000     -0.0000     -0.0000     -0.0000       90.00
       121         0.0000     -0.0000     -0.0000     -0.0000       90.00
       122        -0.0000      0.0000     -0.0000      0.0000       90.00
       123         0.0000      0.0000     -0.0000      0.0000       90.00
       124         0.0000     -0.0000      0.0000     -0.0000       90.00
       125         0.0000      0.0000      0.0000      0.0000       90.00
       126        -0.0000     -0.0000      0.0000     -0.0000       90.00
       127        -0.0000      0.0000     -0.0000      0.0000       90.00
       128         0.0000     -0.0000     -0.0000     -0.0000       90.00
[...]
      5   0.000000D+00  0.000000D+00  0.000000D+00  0.152557D+00  0.000000D+00
      6  -0.666187D-01  0.322824D-01  0.325079D+00  0.000000D+00  0.000000D+00
      7   0.000000D+00  0.000000D+00  0.000000D+00  0.000000D+00 -0.185271D+00
      8  -0.109528D+00 -0.156554D+00 -0.511961D-01  0.000000D+00  0.000000D+00
      9   0.000000D+00  0.000000D+00  0.000000D+00  0.695244D-02  0.000000D+00
     10   0.000000D+00  0.000000D+00  0.000000D+00  0.000000D+00  0.000000D+00
     11   0.000000D+00  0.000000D+00  0.000000D+00  0.000000D+00  0.105641D+01
     12   0.000000D+00  0.000000D+00  0.000000D+00  0.000000D+00  0.134774D+00
     13   0.000000D+00  0.000000D+00  0.000000D+00  0.000000D+00 -0.427012D+00
     14   0.000000D+00  0.000000D+00  0.000000D+00  0.000000D+00  0.000000D+00
     15   0.000000D+00  0.000000D+00  0.000000D+00  0.471425D+00  0.000000D+00
     16  -0.322491D+00 -0.274455D+00 -0.976315D+00  0.000000D+00  0.000000D+00
                71            72            73            74            75 
      1  -0.748413D+02 -0.748381D+02 -0.748359D+02 -0.748236D+02 -0.747951D+02
      2   0.000000D+00 -0.371296D-01  0.000000D+00  0.000000D+00 -0.259473D-01
      3  -0.389802D-02  0.000000D+00  0.000000D+00  0.000000D+00  0.000000D+00
      4   0.000000D+00  0.000000D+00  0.337852D-02 -0.158169D+00  0.000000D+00
      5   0.000000D+00  0.684670D-01  0.000000D+00  0.000000D+00  0.622620D-01
      6   0.113506D-01  0.000000D+00  0.000000D+00  0.000000D+00  0.000000D+00
      7   0.000000D+00  0.000000D+00 -0.553462D-02  0.254310D+00  0.000000D+00
      8   0.719172D-01  0.000000D+00  0.000000D+00  0.000000D+00  0.000000D+00
      9   0.000000D+00  0.964413D-01  0.000000D+00  0.000000D+00 -0.467883D-01
     10   0.000000D+00  0.000000D+00  0.000000D+00  0.000000D+00  0.000000D+00
     11   0.000000D+00  0.000000D+00 -0.673835D+00  0.613599D+00  0.000000D+00
     12   0.000000D+00  0.000000D+00  0.694258D+00 -0.500150D+00  0.000000D+00
     13   0.000000D+00  0.000000D+00 -0.393034D-01  0.369078D+00  0.000000D+00
     14   0.000000D+00  0.000000D+00  0.000000D+00  0.000000D+00  0.000000D+00
     15   0.000000D+00  0.287906D+00  0.000000D+00  0.000000D+00 -0.666030D+00
     16   0.597450D+00  0.000000D+00  0.000000D+00  0.000000D+00  0.000000D+00
                76            77            78            79            80 
      1  -0.747655D+02 -0.747594D+02 -0.746915D+02 -0.746618D+02 -0.745962D+02
      2   0.000000D+00  0.000000D+00  0.000000D+00  0.000000D+00  0.000000D+00
      3   0.000000D+00  0.000000D+00  0.000000D+00 -0.238321D+00  0.000000D+00
      4   0.000000D+00  0.968750D-01  0.000000D+00  0.000000D+00  0.997944D-01
      5   0.000000D+00  0.000000D+00  0.000000D+00  0.000000D+00  0.000000D+00
      6   0.000000D+00  0.000000D+00  0.000000D+00  0.401625D+00  0.000000D+00
      7   0.000000D+00 -0.180140D+00  0.000000D+00  0.000000D+00 -0.146639D+00
      8   0.000000D+00  0.000000D+00  0.000000D+00  0.189577D+00  0.000000D+00
      9   0.000000D+00  0.000000D+00  0.000000D+00  0.000000D+00  0.000000D+00
     10  -0.168516D+00  0.000000D+00 -0.135141D+00  0.000000D+00  0.000000D+00
     11   0.000000D+00 -0.826343D-01  0.000000D+00  0.000000D+00  0.738617D+00
     12   0.000000D+00 -0.711543D+00  0.000000D+00  0.000000D+00  0.494821D+00
     13   0.000000D+00  0.879964D+00  0.000000D+00  0.000000D+00  0.141188D+01
     14   0.891973D+00  0.000000D+00  0.154384D+00  0.000000D+00  0.000000D+00
     15   0.000000D+00  0.000000D+00  0.000000D+00  0.000000D+00  0.000000D+00
     16   0.000000D+00  0.000000D+00  0.000000D+00 -0.169795D+00  0.000000D+00
                81            82            83            84            85 
      1  -0.745903D+02 -0.745100D+02 -0.744777D+02 -0.744482D+02 -0.744255D+02
      2   0.000000D+00  0.000000D+00 -0.289866D+00  0.000000D+00  0.000000D+00
      3   0.000000D+00  0.178077D+00  0.000000D+00  0.000000D+00 -0.322038D+00
      4   0.000000D+00  0.000000D+00  0.000000D+00  0.276731D+00  0.000000D+00
      5   0.000000D+00  0.000000D+00  0.568402D+00  0.000000D+00  0.000000D+00
      6   0.000000D+00 -0.361016D+00  0.000000D+00  0.000000D+00  0.552819D+00
      7   0.000000D+00  0.000000D+00  0.000000D+00 -0.528945D+00  0.000000D+00
      8   0.000000D+00  0.295428D+00  0.000000D+00  0.000000D+00 -0.171000D+00
      9   0.000000D+00  0.000000D+00  0.141588D+00  0.000000D+00  0.000000D+00
     10  -0.445325D-01  0.000000D+00  0.000000D+00  0.000000D+00  0.000000D+00
     11   0.000000D+00  0.000000D+00  0.000000D+00  0.716292D-01  0.000000D+00
     12   0.000000D+00  0.000000D+00  0.000000D+00  0.197339D+00  0.000000D+00
     13   0.000000D+00  0.000000D+00  0.000000D+00  0.637254D+00  0.000000D+00
     14  -0.431049D+00  0.000000D+00  0.000000D+00  0.000000D+00  0.000000D+00
     15   0.000000D+00  0.000000D+00  0.699932D-01  0.000000D+00  0.000000D+00
     16   0.000000D+00  0.117420D+00  0.000000D+00  0.000000D+00 -0.673375D+00
                86            87            88            89            90 
      1  -0.744085D+02 -0.743705D+02 -0.743603D+02 -0.742950D+02 -0.742694D+02
      2   0.000000D+00  0.000000D+00  0.000000D+00  0.000000D+00  0.000000D+00
      3   0.000000D+00  0.000000D+00  0.194900D+00  0.000000D+00  0.000000D+00
      4  -0.113887D+00  0.000000D+00  0.000000D+00 -0.902836D-01 -0.204041D+00
      5   0.000000D+00  0.000000D+00  0.000000D+00  0.000000D+00  0.000000D+00
      6   0.000000D+00  0.000000D+00 -0.411471D+00  0.000000D+00  0.000000D+00
      7   0.195550D+00  0.000000D+00  0.000000D+00  0.132075D+00  0.407602D+00
      8   0.000000D+00  0.000000D+00  0.126379D+00  0.000000D+00  0.000000D+00
      9   0.000000D+00  0.000000D+00  0.000000D+00  0.000000D+00  0.000000D+00
     10   0.000000D+00  0.281825D+00  0.000000D+00  0.000000D+00  0.000000D+00
     11   0.513157D-01  0.000000D+00  0.000000D+00  0.637074D-01  0.125823D+01
     12   0.451311D+00  0.000000D+00  0.000000D+00 -0.164345D+01  0.527345D+00
     13  -0.512190D-01  0.000000D+00  0.000000D+00 -0.275225D+00  0.337436D-01
     14   0.000000D+00 -0.753958D+00  0.000000D+00  0.000000D+00  0.000000D+00
     15   0.000000D+00  0.000000D+00  0.000000D+00  0.000000D+00  0.000000D+00
     16   0.000000D+00  0.000000D+00  0.121235D+00  0.000000D+00  0.000000D+00
                91            92            93            94            95 
      1  -0.742490D+02 -0.742167D+02 -0.742118D+02 -0.741981D+02 -0.741840D+02
      2   0.000000D+00 -0.635543D-01 -0.402061D+00 -0.276415D+00  0.000000D+00
      3   0.906319D-01  0.000000D+00  0.000000D+00  0.000000D+00  0.000000D+00
      4   0.000000D+00  0.000000D+00  0.000000D+00  0.000000D+00 -0.257585D+00
      5   0.000000D+00  0.169899D+00  0.881952D+00  0.487657D+00  0.000000D+00
      6  -0.137635D+00  0.000000D+00  0.000000D+00  0.000000D+00  0.000000D+00
      7   0.000000D+00  0.000000D+00  0.000000D+00  0.000000D+00  0.574878D+00
      8  -0.133360D+00  0.000000D+00  0.000000D+00  0.000000D+00  0.000000D+00
      9   0.000000D+00  0.117333D+00  0.144055D-02 -0.234054D+00  0.000000D+00
     10   0.000000D+00  0.000000D+00  0.000000D+00  0.000000D+00  0.000000D+00
     11   0.000000D+00  0.000000D+00  0.000000D+00  0.000000D+00  0.273872D+00
     12   0.000000D+00  0.000000D+00  0.000000D+00  0.000000D+00  0.967676D+00
     13   0.000000D+00  0.000000D+00  0.000000D+00  0.000000D+00  0.229440D+00
     14   0.000000D+00  0.000000D+00  0.000000D+00  0.000000D+00  0.000000D+00
     15   0.000000D+00  0.373537D+00 -0.341615D+00 -0.336289D+00  0.000000D+00
     16   0.708734D+00  0.000000D+00  0.000000D+00  0.000000D+00  0.000000D+00
                96            97            98            99           100 
      1  -0.741723D+02 -0.741590D+02 -0.740916D+02 -0.740688D+02 -0.740674D+02
      2   0.000000D+00  0.339078D+00  0.000000D+00  0.000000D+00  0.000000D+00
      3   0.000000D+00  0.000000D+00  0.108957D+00  0.000000D+00  0.000000D+00
      4   0.000000D+00  0.000000D+00  0.000000D+00  0.000000D+00 -0.383522D+00
      5   0.000000D+00 -0.655118D+00  0.000000D+00  0.000000D+00  0.000000D+00
      6   0.000000D+00  0.000000D+00 -0.269293D+00  0.000000D+00  0.000000D+00
      7   0.000000D+00  0.000000D+00  0.000000D+00  0.000000D+00  0.733768D+00
      8   0.000000D+00  0.000000D+00 -0.191924D+00  0.000000D+00  0.000000D+00
      9   0.000000D+00  0.103097D+00  0.000000D+00  0.000000D+00  0.000000D+00
     10  -0.445274D-01  0.000000D+00  0.000000D+00  0.458184D+00  0.000000D+00
     11   0.000000D+00  0.000000D+00  0.000000D+00  0.000000D+00  0.596735D+00
     12   0.000000D+00  0.000000D+00  0.000000D+00  0.000000D+00  0.297225D+00
     13   0.000000D+00  0.000000D+00  0.000000D+00  0.000000D+00 -0.263252D+00
     14  -0.357071D+00  0.000000D+00  0.000000D+00 -0.111507D+01  0.000000D+00
     15   0.000000D+00  0.761476D+00  0.000000D+00  0.000000D+00  0.000000D+00
     16   0.000000D+00  0.000000D+00 -0.726472D+00  0.000000D+00  0.000000D+00
               101           102           103           104           105 
      1  -0.739387D+02 -0.739384D+02 -0.738791D+02 -0.738685D+02 -0.737680D+02
      2   0.000000D+00  0.000000D+00  0.000000D+00  0.000000D+00  0.000000D+00
      3   0.000000D+00  0.257779D+00  0.152133D+00  0.000000D+00  0.824625D-01
      4  -0.847886D-02  0.000000D+00  0.000000D+00  0.000000D+00  0.000000D+00
      5   0.000000D+00  0.000000D+00  0.000000D+00  0.000000D+00  0.000000D+00
      6   0.000000D+00 -0.548974D+00 -0.372296D+00  0.000000D+00 -0.158176D+00
      7  -0.114167D-01  0.000000D+00  0.000000D+00  0.000000D+00  0.000000D+00
      8   0.000000D+00 -0.409061D+00 -0.570538D-01  0.000000D+00  0.509252D-01
      9   0.000000D+00  0.000000D+00  0.000000D+00  0.000000D+00  0.000000D+00
     10   0.000000D+00  0.000000D+00  0.000000D+00 -0.101753D+00  0.000000D+00
     11  -0.634341D+00  0.000000D+00  0.000000D+00  0.000000D+00  0.000000D+00
     12   0.123561D+01  0.000000D+00  0.000000D+00  0.000000D+00  0.000000D+00
     13  -0.114676D+01  0.000000D+00  0.000000D+00  0.000000D+00  0.000000D+00
     14   0.000000D+00  0.000000D+00  0.000000D+00  0.326350D+00  0.000000D+00
     15   0.000000D+00  0.000000D+00  0.000000D+00  0.000000D+00  0.000000D+00
     16   0.000000D+00 -0.485214D+00 -0.564883D+00  0.000000D+00 -0.464571D+00
               106           107           108           109           110 
      1  -0.737478D+02 -0.737323D+02 -0.736919D+02 -0.736682D+02 -0.735997D+02
      2   0.000000D+00  0.000000D+00 -0.287475D+00  0.000000D+00  0.114848D+00
      3   0.000000D+00  0.000000D+00  0.000000D+00  0.000000D+00  0.000000D+00
      4   0.000000D+00  0.376115D-01  0.000000D+00  0.714490D-01  0.000000D+00
      5   0.000000D+00  0.000000D+00  0.591146D+00  0.000000D+00 -0.231102D+00
      6   0.000000D+00  0.000000D+00  0.000000D+00  0.000000D+00  0.000000D+00
      7   0.000000D+00 -0.838155D-01  0.000000D+00 -0.173874D+00  0.000000D+00
      8   0.000000D+00  0.000000D+00  0.000000D+00  0.000000D+00  0.000000D+00
      9   0.000000D+00  0.000000D+00  0.133700D+00  0.000000D+00  0.154565D+00
     10  -0.300020D+00  0.000000D+00  0.000000D+00  0.000000D+00  0.000000D+00
     11   0.000000D+00  0.114672D+01  0.000000D+00  0.142560D+00  0.000000D+00
     12   0.000000D+00  0.470581D+00  0.000000D+00 -0.332443D+00  0.000000D+00
     13   0.000000D+00  0.103675D+01  0.000000D+00  0.207624D+00  0.000000D+00
     14   0.772283D+00  0.000000D+00  0.000000D+00  0.000000D+00  0.000000D+00
     15   0.000000D+00  0.000000D+00 -0.269770D-01  0.000000D+00  0.567727D+00
     16   0.000000D+00  0.000000D+00  0.000000D+00  0.000000D+00  0.000000D+00
               111           112           113           114           115 
      1  -0.735913D+02 -0.735199D+02 -0.734851D+02 -0.734665D+02 -0.731611D+02
      2   0.000000D+00  0.000000D+00  0.000000D+00  0.000000D+00  0.000000D+00
      3   0.000000D+00  0.885477D-01 -0.102938D-01  0.000000D+00 -0.922538D-01
      4   0.127378D+00  0.000000D+00  0.000000D+00  0.447324D-01  0.000000D+00
      5   0.000000D+00  0.000000D+00  0.000000D+00  0.000000D+00  0.000000D+00
      6   0.000000D+00 -0.307408D+00  0.245366D-01  0.000000D+00  0.342630D+00
      7  -0.330305D+00  0.000000D+00  0.000000D+00 -0.474239D-01  0.000000D+00
      8   0.000000D+00  0.111182D+00  0.256906D+00  0.000000D+00 -0.892076D-01
      9   0.000000D+00  0.000000D+00  0.000000D+00  0.000000D+00  0.000000D+00
     10   0.000000D+00  0.000000D+00  0.000000D+00  0.000000D+00  0.000000D+00
     11   0.721382D+00  0.000000D+00  0.000000D+00 -0.519284D+00  0.000000D+00
     12  -0.246448D+00  0.000000D+00  0.000000D+00 -0.631430D+00  0.000000D+00
     13  -0.801326D-01  0.000000D+00  0.000000D+00  0.599972D+00  0.000000D+00
     14   0.000000D+00  0.000000D+00  0.000000D+00  0.000000D+00  0.000000D+00
     15   0.000000D+00  0.000000D+00  0.000000D+00  0.000000D+00  0.000000D+00
     16   0.000000D+00 -0.421615D+00  0.891315D-01  0.000000D+00 -0.530647D-01
               116           117           118           119           120 
      1  -0.730881D+02 -0.730317D+02 -0.730258D+02 -0.730172D+02 -0.730165D+02
      2   0.000000D+00 -0.199380D+00  0.000000D+00  0.000000D+00  0.000000D+00
      3   0.000000D+00  0.000000D+00  0.000000D+00  0.000000D+00 -0.303178D+00
      4  -0.274509D+00  0.000000D+00 -0.760952D-01  0.000000D+00  0.000000D+00
      5   0.000000D+00  0.547572D+00  0.000000D+00  0.000000D+00  0.000000D+00
      6   0.000000D+00  0.000000D+00  0.000000D+00  0.000000D+00  0.899492D+00
      7   0.770553D+00  0.000000D+00  0.284336D+00  0.000000D+00  0.000000D+00
      8   0.000000D+00  0.000000D+00  0.000000D+00  0.000000D+00 -0.126976D+00
      9   0.000000D+00  0.115384D+00  0.000000D+00  0.000000D+00  0.000000D+00
     10   0.000000D+00  0.000000D+00  0.000000D+00 -0.549768D-01  0.000000D+00
     11  -0.163306D+00  0.000000D+00  0.363067D+00  0.000000D+00  0.000000D+00
     12   0.444859D+00  0.000000D+00 -0.196003D+00  0.000000D+00  0.000000D+00
     13   0.236105D+00  0.000000D+00 -0.242069D+00  0.000000D+00  0.000000D+00
     14   0.000000D+00  0.000000D+00  0.000000D+00  0.560937D+00  0.000000D+00
     15   0.000000D+00  0.266725D+00  0.000000D+00  0.000000D+00  0.000000D+00
     16   0.000000D+00  0.000000D+00  0.000000D+00  0.000000D+00  0.505264D+00
               121           122           123           124           125 
      1  -0.729435D+02 -0.729365D+02 -0.727967D+02 -0.727680D+02 -0.726990D+02
      2   0.849017D-01  0.000000D+00 -0.285673D+00  0.000000D+00  0.000000D+00
      3   0.000000D+00  0.000000D+00  0.000000D+00  0.000000D+00  0.170767D+00
      4   0.000000D+00  0.000000D+00  0.000000D+00 -0.352048D+00  0.000000D+00
      5  -0.260248D+00  0.000000D+00  0.872890D+00  0.000000D+00  0.000000D+00
      6   0.000000D+00  0.000000D+00  0.000000D+00  0.000000D+00 -0.587434D+00
      7   0.000000D+00  0.000000D+00  0.000000D+00  0.113807D+01  0.000000D+00
      8   0.000000D+00  0.000000D+00  0.000000D+00  0.000000D+00  0.194831D+00
      9  -0.395950D-01  0.000000D+00  0.199927D+00  0.000000D+00  0.000000D+00
     10   0.000000D+00 -0.634217D-01  0.000000D+00  0.000000D+00  0.000000D+00
     11   0.000000D+00  0.000000D+00  0.000000D+00 -0.285988D+00  0.000000D+00
     12   0.000000D+00  0.000000D+00  0.000000D+00 -0.246690D+00  0.000000D+00
     13   0.000000D+00  0.000000D+00  0.000000D+00  0.120619D+01  0.000000D+00
     14   0.000000D+00  0.443048D+00  0.000000D+00  0.000000D+00  0.000000D+00
     15  -0.207848D+00  0.000000D+00  0.640053D+00  0.000000D+00  0.000000D+00
     16   0.000000D+00  0.000000D+00  0.000000D+00  0.000000D+00 -0.106778D+00
               126           127           128           129           130 
      1  -0.724463D+02 -0.724319D+02 -0.724201D+02 -0.723720D+02 -0.722689D+02
      2   0.269702D+00  0.000000D+00  0.220432D+00  0.000000D+00  0.000000D+00
      3   0.000000D+00  0.000000D+00  0.000000D+00  0.000000D+00 -0.145507D+00
      4   0.000000D+00 -0.618076D-01  0.000000D+00  0.000000D+00  0.000000D+00
      5  -0.950564D+00  0.000000D+00 -0.774858D+00  0.000000D+00  0.000000D+00
      6   0.000000D+00  0.000000D+00  0.000000D+00  0.000000D+00  0.525243D+00
      7   0.000000D+00  0.170811D+00  0.000000D+00  0.000000D+00  0.000000D+00
      8   0.000000D+00  0.000000D+00  0.000000D+00  0.000000D+00 -0.109932D+00
      9  -0.154860D+00  0.000000D+00 -0.133031D+00  0.000000D+00  0.000000D+00
     10   0.000000D+00  0.000000D+00  0.000000D+00 -0.976776D-02  0.000000D+00
     11   0.000000D+00 -0.244579D+00  0.000000D+00  0.000000D+00  0.000000D+00
     12   0.000000D+00  0.470801D+00  0.000000D+00  0.000000D+00  0.000000D+00
     13   0.000000D+00 -0.326962D-01  0.000000D+00  0.000000D+00  0.000000D+00
     14   0.000000D+00  0.000000D+00  0.000000D+00  0.382482D+00  0.000000D+00
     15  -0.712313D+00  0.000000D+00  0.890169D-01  0.000000D+00  0.000000D+00
     16   0.000000D+00  0.000000D+00  0.000000D+00  0.000000D+00  0.387189D+00
               131           132           133           134           135 
      1  -0.722288D+02 -0.721183D+02 -0.719927D+02 -0.718548D+02 -0.718079D+02
      2   0.000000D+00  0.000000D+00  0.000000D+00  0.000000D+00  0.000000D+00
      3   0.000000D+00  0.000000D+00  0.236629D+00  0.000000D+00  0.000000D+00
      4   0.482990D-01  0.000000D+00  0.000000D+00  0.167604D+00 -0.839339D-01
      5   0.000000D+00  0.000000D+00  0.000000D+00  0.000000D+00  0.000000D+00
      6   0.000000D+00  0.000000D+00 -0.927303D+00  0.000000D+00  0.000000D+00
      7  -0.186118D+00  0.000000D+00  0.000000D+00 -0.679331D+00  0.341943D+00
      8   0.000000D+00  0.000000D+00  0.146471D+00  0.000000D+00  0.000000D+00
      9   0.000000D+00  0.000000D+00  0.000000D+00  0.000000D+00  0.000000D+00
     10   0.000000D+00  0.259641D-01  0.000000D+00  0.000000D+00  0.000000D+00
     11  -0.123365D+00  0.000000D+00  0.000000D+00  0.100800D+00 -0.448780D+00
     12  -0.109496D+00  0.000000D+00  0.000000D+00 -0.177633D+00  0.222026D+00
     13   0.204976D+00  0.000000D+00  0.000000D+00 -0.607106D+00  0.277127D+00
     14   0.000000D+00  0.295065D+00  0.000000D+00  0.000000D+00  0.000000D+00
     15   0.000000D+00  0.000000D+00  0.000000D+00  0.000000D+00  0.000000D+00
     16   0.000000D+00  0.000000D+00 -0.540632D+00  0.000000D+00  0.000000D+00
               136 
      1  -0.714102D+02
      2   0.000000D+00
      3   0.263514D-01
      4   0.000000D+00
      5   0.000000D+00
      6  -0.978784D-01
      7   0.000000D+00
      8   0.130700D-01
      9   0.000000D+00
     10   0.000000D+00
     11   0.000000D+00
     12   0.000000D+00
     13   0.000000D+00
     14   0.000000D+00
     15   0.000000D+00
     16  -0.232755D+00
 Unable to Open any file for archive entry.
 1\1\GINC-HEL23\SP\RLC-wHPBE TD-FC\Gen\H2O1\SABYASACHI\21-Mar-2022\0\\#
 P TD(Nstates=10000) lc-whpbe/Gen SCF(maxcycles=100) Int(Grid=ultrafine
 )\\xGDB7_00001_tier4.com\\0,1\O,0,0.,0.,0.116015\H,0,0.,0.761895,-0.46
 4058\H,0,0.,-0.761895,-0.464058\\Version=EM64L-G16RevC.01\State=1-A1\H
 F=-76.338991\RMSD=1.278e-09\PG=C02V [C2(O1),SGV(H2)]\\@
 The archive entry for this job was punched.


 LET US LEARN TO DREAM, GENTLEMEN, THEN PERHAPS WE SHALL
 DISCOVER THE TRUTH;  BUT LET US BEWARE OF PUBLISHING
 OUR DREAMS ABROAD BEFORE THEY HAVE BEEN SCRUTINIZED
 BY OUR VIGILANT INTELLECT ... LET US ALWAYS ALLOW
 THE FRUIT TO HANG UNTIL IT IS RIPE.  UNRIPE FRUIT
 BRINGS EVEN THE GROWER BUT LITTLE PROFIT; IT DAMAGES
 THE HEALTH OF THOSE WHO CONSUME IT; IT ENDANGERS
 PARTICULARLY THE YOUTH WHO CANNOT YET DISTINGUISH
 BETWEEN RIPE AND UNRIPE FRUIT.

                                  -- KEKULE, 1890
 Job cpu time:       0 days  0 hours  0 minutes 16.6 seconds.
 Elapsed time:       0 days  0 hours  0 minutes  2.4 seconds.
 File lengths (MBytes):  RWF=     27 Int=      0 D2E=      0 Chk=      6 Scr=      1
 Normal termination of Gaussian 16 at Mon Mar 21 20:08:44 2022.
