 Entering Gaussian System, Link 0=g16
 Input=000018.com
 Output=000018.log
 Initial command:
 /home/sabyasachi/g16/l1.exe "/scratch/sabyasachi/PBS_7976251.helios/Gau-143692.inp" -scrdir="/scratch/sabyasachi/PBS_7976251.helios/"
 Entering Link 1 = /home/sabyasachi/g16/l1.exe PID=    143693.
  
 Copyright (c) 1988-2019, Gaussian, Inc.  All Rights Reserved.
  
 This is part of the Gaussian(R) 16 program.  It is based on
 the Gaussian(R) 09 system (copyright 2009, Gaussian, Inc.),
 the Gaussian(R) 03 system (copyright 2003, Gaussian, Inc.),
 the Gaussian(R) 98 system (copyright 1998, Gaussian, Inc.),
 the Gaussian(R) 94 system (copyright 1995, Gaussian, Inc.),
 the Gaussian 92(TM) system (copyright 1992, Gaussian, Inc.),
 the Gaussian 90(TM) system (copyright 1990, Gaussian, Inc.),
 the Gaussian 88(TM) system (copyright 1988, Gaussian, Inc.),
 the Gaussian 86(TM) system (copyright 1986, Carnegie Mellon
 University), and the Gaussian 82(TM) system (copyright 1983,
 Carnegie Mellon University). Gaussian is a federally registered
 trademark of Gaussian, Inc.
  
 This software contains proprietary and confidential information,
 including trade secrets, belonging to Gaussian, Inc.
  
 This software is provided under written license and may be
 used, copied, transmitted, or stored only in accord with that
 written license.
  
 The following legend is applicable only to US Government
 contracts under FAR:
  
                    RESTRICTED RIGHTS LEGEND
  
 Use, reproduction and disclosure by the US Government is
 subject to restrictions as set forth in subparagraphs (a)
 and (c) of the Commercial Computer Software - Restricted
 Rights clause in FAR 52.227-19.
  
 Gaussian, Inc.
 340 Quinnipiac St., Bldg. 40, Wallingford CT 06492
  
  
 ---------------------------------------------------------------
 Warning -- This program may not be used in any manner that
 competes with the business of Gaussian, Inc. or will provide
 assistance to any competitor of Gaussian, Inc.  The licensee
 of this program is prohibited from giving any competitor of
 Gaussian, Inc. access to this program.  By using this program,
 the user acknowledges that Gaussian, Inc. is engaged in the
 business of creating and licensing software in the field of
 computational chemistry and represents and warrants to the
 licensee that it is not a competitor of Gaussian, Inc. and that
 it will not use this program in any manner prohibited above.
 ---------------------------------------------------------------
  

 Cite this work as:
 Gaussian 16, Revision C.01,
 M. J. Frisch, G. W. Trucks, H. B. Schlegel, G. E. Scuseria, 
 M. A. Robb, J. R. Cheeseman, G. Scalmani, V. Barone, 
 G. A. Petersson, H. Nakatsuji, X. Li, M. Caricato, A. V. Marenich, 
 J. Bloino, B. G. Janesko, R. Gomperts, B. Mennucci, H. P. Hratchian, 
 J. V. Ortiz, A. F. Izmaylov, J. L. Sonnenberg, D. Williams-Young, 
 F. Ding, F. Lipparini, F. Egidi, J. Goings, B. Peng, A. Petrone, 
 T. Henderson, D. Ranasinghe, V. G. Zakrzewski, J. Gao, N. Rega, 
 G. Zheng, W. Liang, M. Hada, M. Ehara, K. Toyota, R. Fukuda, 
 J. Hasegawa, M. Ishida, T. Nakajima, Y. Honda, O. Kitao, H. Nakai, 
 T. Vreven, K. Throssell, J. A. Montgomery, Jr., J. E. Peralta, 
 F. Ogliaro, M. J. Bearpark, J. J. Heyd, E. N. Brothers, K. N. Kudin, 
 V. N. Staroverov, T. A. Keith, R. Kobayashi, J. Normand, 
 K. Raghavachari, A. P. Rendell, J. C. Burant, S. S. Iyengar, 
 J. Tomasi, M. Cossi, J. M. Millam, M. Klene, C. Adamo, R. Cammi, 
 J. W. Ochterski, R. L. Martin, K. Morokuma, O. Farkas, 
 J. B. Foresman, and D. J. Fox, Gaussian, Inc., Wallingford CT, 2019.
 
 ******************************************
 Gaussian 16:  EM64L-G16RevC.01  3-Jul-2019
                21-Mar-2022 
 ******************************************
 %mem=64gb
 %nproc=8
 Will use up to    8 processors via shared memory.
 ----------------------------------------------------------------------
 #P TD(Nstates=10000) lc-whpbe/Gen SCF(maxcycles=100) Int(Grid=ultrafin
 e)
 ----------------------------------------------------------------------
 1/38=1,172=1/1;
 2/12=2,17=6,18=5,40=1/2;
 3/5=7,11=9,25=1,30=1,74=-71,75=-5/1,2,3,8;
 4//1;
 5/5=2,7=100,38=5/2;
 8/6=1,10=1,108=10000/1;
 9/41=10000,42=1,70=2/14;
 6/7=2,8=2,9=2,10=2/1;
 99/5=1,9=1/99;
 Leave Link    1 at Mon Mar 21 20:06:14 2022, MaxMem=  8589934592 cpu:               0.3 elap:               0.0
 (Enter /home/sabyasachi/g16/l101.exe)
 ---------------------
 xGDB7_00001_tier4.com
 ---------------------
 Symbolic Z-matrix:
 Charge =  0 Multiplicity = 1
 9                     0.        1.09881  -0.28912 
 6                     0.        0.        0.49994 
 9                     0.       -1.09881  -0.28912 
 1                    -0.91135   0.        1.10225 
 1                     0.91135   0.        1.10225 
 
 ITRead=  0  0  0  0  0
 MicOpt= -1 -1 -1 -1 -1
 NAtoms=      5 NQM=        5 NQMF=       0 NMMI=      0 NMMIF=      0
                NMic=       0 NMicF=      0.
                    Isotopes and Nuclear Properties:
 (Nuclear quadrupole moments (NQMom) in fm**2, nuclear magnetic moments (NMagM)
  in nuclear magnetons)

  Atom         1           2           3           4           5
 IAtWgt=          19          12          19           1           1
 AtmWgt=  18.9984033  12.0000000  18.9984033   1.0078250   1.0078250
 NucSpn=           1           0           1           1           1
 AtZEff=  -0.0000000  -0.0000000  -0.0000000  -0.0000000  -0.0000000
 NQMom=    0.0000000   0.0000000   0.0000000   0.0000000   0.0000000
 NMagM=    2.6288670   0.0000000   2.6288670   2.7928460   2.7928460
 AtZNuc=   9.0000000   6.0000000   9.0000000   1.0000000   1.0000000
 Leave Link  101 at Mon Mar 21 20:06:14 2022, MaxMem=  8589934592 cpu:               0.6 elap:               0.1
 (Enter /home/sabyasachi/g16/l202.exe)
                          Input orientation:                          
 ---------------------------------------------------------------------
 Center     Atomic      Atomic             Coordinates (Angstroms)
 Number     Number       Type             X           Y           Z
 ---------------------------------------------------------------------
      1          9           0        0.000000    1.098813   -0.289120
      2          6           0        0.000000    0.000000    0.499944
      3          9           0        0.000000   -1.098813   -0.289120
      4          1           0       -0.911346    0.000000    1.102246
      5          1           0        0.911346    0.000000    1.102246
 ---------------------------------------------------------------------
                    Distance matrix (angstroms):
                    1          2          3          4          5
     1  F    0.000000
     2  C    1.352779   0.000000
     3  F    2.197626   1.352779   0.000000
     4  H    1.993449   1.092392   1.993449   0.000000
     5  H    1.993449   1.092392   1.993449   1.822692   0.000000
 Stoichiometry    CH2F2
 Framework group  C2V[C2(C),SGV(F2),SGV'(H2)]
 Deg. of freedom     4
 Full point group                 C2V     NOp   4
 Largest Abelian subgroup         C2V     NOp   4
 Largest concise Abelian subgroup C2V     NOp   4
                         Standard orientation:                         
 ---------------------------------------------------------------------
 Center     Atomic      Atomic             Coordinates (Angstroms)
 Number     Number       Type             X           Y           Z
 ---------------------------------------------------------------------
      1          9           0        0.000000    1.098813   -0.289120
      2          6           0       -0.000000   -0.000000    0.499944
      3          9           0       -0.000000   -1.098813   -0.289120
      4          1           0       -0.911346    0.000000    1.102246
      5          1           0        0.911346   -0.000000    1.102246
 ---------------------------------------------------------------------
 Rotational constants (GHZ):          49.7833800          10.6281321           9.2978450
 Leave Link  202 at Mon Mar 21 20:06:14 2022, MaxMem=  8589934592 cpu:               0.1 elap:               0.0
 (Enter /home/sabyasachi/g16/l301.exe)
 General basis read from cards:  (5D, 7F)
 Centers:       4      5
 S 3 1.00
     Exponent=  1.3010701000D+01 Coefficients=  1.9682158000D-02
     Exponent=  1.9622572000D+00 Coefficients=  1.3796524000D-01
     Exponent=  4.4453796000D-01 Coefficients=  4.7831935000D-01
 S 1 1.00
     Exponent=  1.2194962000D-01 Coefficients=  1.0000000000D+00
 P 1 1.00
     Exponent=  8.0000000000D-01 Coefficients=  1.0000000000D+00
 P 1 1.00
     Exponent=  1.1704099050D-01 Coefficients=  1.0000000000D+00
 ****
 Centers:       2
 S 5 1.00
     Exponent=  1.2384016938D+03 Coefficients=  5.4568832082D-03
     Exponent=  1.8629004992D+02 Coefficients=  4.0638409211D-02
     Exponent=  4.2251176346D+01 Coefficients=  1.8025593888D-01
     Exponent=  1.1676557932D+01 Coefficients=  4.6315121755D-01
     Exponent=  3.5930506482D+00 Coefficients=  4.4087173314D-01
 S 1 1.00
     Exponent=  4.0245147363D-01 Coefficients=  1.0000000000D+00
 S 1 1.00
     Exponent=  1.3090182668D-01 Coefficients=  1.0000000000D+00
 S 1 1.00
     Exponent=  6.7053540256D-02 Coefficients=  1.0000000000D+00
 P 3 1.00
     Exponent=  9.4680970621D+00 Coefficients=  3.8387871728D-02
     Exponent=  2.0103545142D+00 Coefficients=  2.1117025112D-01
     Exponent=  5.4771004707D-01 Coefficients=  5.1328172114D-01
 P 1 1.00
     Exponent=  1.5268613795D-01 Coefficients=  1.0000000000D+00
 D 1 1.00
     Exponent=  8.0000000000D-01 Coefficients=  1.0000000000D+00
 D 1 1.00
     Exponent=  1.1713185140D-01 Coefficients=  1.0000000000D+00
 ****
 Centers:       1      3
 S 5 1.00
     Exponent=  2.8948325990D+03 Coefficients= -5.3408255515D-03
     Exponent=  4.3541939120D+02 Coefficients= -3.9904258866D-02
     Exponent=  9.8843328866D+01 Coefficients= -1.7912768038D-01
     Exponent=  2.7485198001D+01 Coefficients= -4.6758090825D-01
     Exponent=  8.5405498171D+00 Coefficients= -4.4653131020D-01
 S 1 1.00
     Exponent=  1.0654578038D+00 Coefficients=  1.0000000000D+00
 S 1 1.00
     Exponent=  3.3247346748D-01 Coefficients=  1.0000000000D+00
 S 1 1.00
     Exponent=  9.8097752264D-02 Coefficients=  1.0000000000D+00
 P 3 1.00
     Exponent=  2.2696633924D+01 Coefficients= -4.5212874436D-02
     Exponent=  4.9872339257D+00 Coefficients= -2.3754317067D-01
     Exponent=  1.3491613954D+00 Coefficients= -5.1287353587D-01
 P 1 1.00
     Exponent=  3.4829881977D-01 Coefficients=  1.0000000000D+00
 P 1 1.00
     Exponent=  8.3372148304D-02 Coefficients=  1.0000000000D+00
 D 1 1.00
     Exponent=  1.4000000000D+00 Coefficients=  1.0000000000D+00
 D 1 1.00
     Exponent=  2.2301361948D-01 Coefficients=  1.0000000000D+00
 ****
 Ernie: Thresh=  0.10000D-02 Tol=  0.10000D-05 Strict=F.
 There are    36 symmetry adapted cartesian basis functions of A1  symmetry.
 There are    11 symmetry adapted cartesian basis functions of A2  symmetry.
 There are    17 symmetry adapted cartesian basis functions of B1  symmetry.
 There are    24 symmetry adapted cartesian basis functions of B2  symmetry.
 There are    32 symmetry adapted basis functions of A1  symmetry.
 There are    11 symmetry adapted basis functions of A2  symmetry.
 There are    17 symmetry adapted basis functions of B1  symmetry.
 There are    22 symmetry adapted basis functions of B2  symmetry.
    82 basis functions,   122 primitive gaussians,    88 cartesian basis functions
    13 alpha electrons       13 beta electrons
       nuclear repulsion energy        77.4114556534 Hartrees.
 IExCor=33909 DFT=T Ex+Corr=LC-wHPBE ExCW=0 ScaHFX=  1.000000
 ScaDFX=  1.000000  1.000000  1.000000  1.000000 ScalE2=  1.000000  1.000000
 IRadAn=      5 IRanWt=     -1 IRanGd=            0 ICorTp=0 IEmpDi=  4
 HFx  wShort=  0.000000 wLong=  0.400000 cFull=  0.000000 cShort=  0.000000 cLong=  1.000000
 DFx  wShort=  0.000000 wLong=  0.400000 cFull=  0.000000 cShort=  1.000000 cLong=  0.000000
 NAtoms=    5 NActive=    5 NUniq=    3 SFac= 2.78D+00 NAtFMM=   60 NAOKFM=F Big=F
 Integral buffers will be    131072 words long.
 Raffenetti 1 integral format.
 Two-electron integral symmetry is turned on.
 Leave Link  301 at Mon Mar 21 20:06:14 2022, MaxMem=  8589934592 cpu:               0.6 elap:               0.1
 (Enter /home/sabyasachi/g16/l302.exe)
 NPDir=0 NMtPBC=     1 NCelOv=     1 NCel=       1 NClECP=     1 NCelD=      1
         NCelK=      1 NCelE2=     1 NClLst=     1 CellRange=     0.0.
 One-electron integrals computed using PRISM.
 One-electron integral symmetry used in STVInt
 NBasis=    82 RedAO= T EigKep=  6.29D-04  NBF=    32    11    17    22
 NBsUse=    82 1.00D-06 EigRej= -1.00D+00 NBFU=    32    11    17    22
 Precomputing XC quadrature grid using
 IXCGrd= 4 IRadAn=           5 IRanWt=          -1 IRanGd=           0 AccXCQ= 0.00D+00.
 Generated NRdTot=       0 NPtTot=           0 NUsed=           0 NTot=          32
 NSgBfM=    88    88    88    88    88 MxSgAt=     5 MxSgA2=     5.
 Leave Link  302 at Mon Mar 21 20:06:14 2022, MaxMem=  8589934592 cpu:               0.9 elap:               0.1
 (Enter /home/sabyasachi/g16/l303.exe)
 DipDrv:  MaxL=1.
 Leave Link  303 at Mon Mar 21 20:06:14 2022, MaxMem=  8589934592 cpu:               0.2 elap:               0.0
 (Enter /home/sabyasachi/g16/l308.exe)
 Leave Link  308 at Mon Mar 21 20:06:14 2022, MaxMem=  8589934592 cpu:               0.2 elap:               0.1
 (Enter /home/sabyasachi/g16/l401.exe)
 ExpMin= 6.71D-02 ExpMax= 2.89D+03 ExpMxC= 4.35D+02 IAcc=3 IRadAn=         5 AccDes= 0.00D+00
 Harris functional with IExCor=33909 and IRadAn=       5 diagonalized for initial guess.
 HarFok:  IExCor=33909 AccDes= 0.00D+00 IRadAn=         5 IDoV= 1 UseB2=F ITyADJ=14
 ICtDFT=  3500011 ScaDFX=  1.000000  1.000000  1.000000  1.000000
 FoFCou: FMM=F IPFlag=           0 FMFlag=      100000 FMFlg1=           0
         NFxFlg=           0 DoJE=T BraDBF=F KetDBF=T FulRan=T
         wScrn=  0.000000 ICntrl=       500 IOpCl=  0 I1Cent=   200000004 NGrid=           0
         NMat0=    1 NMatS0=      1 NMatT0=    0 NMatD0=    1 NMtDS0=    0 NMtDT0=    0
 Petite list used in FoFCou.
 Harris En= -233.327698257020    
 JPrj=0 DoOrth=F DoCkMO=F.
 Initial guess orbital symmetries:
       Occupied  (A1) (B2) (A1) (A1) (B2) (A1) (B1) (A1) (B2) (A2)
                 (A1) (B2) (B1)
       Virtual   (A1) (B2) (A1) (B1) (A1) (B2) (A2) (A1) (B1) (B2)
                 (A1) (A1) (A2) (B1) (B2) (A1) (B1) (B1) (A1) (A1)
                 (B2) (B2) (A2) (A1) (A1) (B1) (B2) (A1) (B1) (A2)
                 (A1) (B2) (B2) (A2) (A1) (B1) (B2) (A1) (B1) (A1)
                 (A2) (A1) (B1) (B2) (A2) (B2) (A1) (B1) (A1) (B1)
                 (B2) (A1) (B2) (B2) (A1) (A2) (A1) (A1) (B1) (B2)
                 (A2) (B2) (B1) (A1) (B1) (A2) (A1) (A1) (B2)
 The electronic state of the initial guess is 1-A1.
 Leave Link  401 at Mon Mar 21 20:06:15 2022, MaxMem=  8589934592 cpu:               1.5 elap:               0.2
 (Enter /home/sabyasachi/g16/l502.exe)
 Keep R1 ints in memory in symmetry-blocked form, NReq=19192340.
 FoFCou: FMM=F IPFlag=           0 FMFlag=           0 FMFlg1=           0
         NFxFlg=           0 DoJE=F BraDBF=F KetDBF=F FulRan=T
         wScrn=  0.000000 ICntrl=       600 IOpCl=  0 I1Cent=           0 NGrid=           0
         NMat0=    1 NMatS0=   3403 NMatT0=    0 NMatD0=    1 NMtDS0=    0 NMtDT0=    0
 Petite list used in FoFCou.
 Closed shell SCF:
 Using DIIS extrapolation, IDIIS=  1040.
 NGot=  8589934592 LenX=  8588436934 LenY=  8588428749
 Requested convergence on RMS density matrix=1.00D-08 within 100 cycles.
 Requested convergence on MAX density matrix=1.00D-06.
 Requested convergence on             energy=1.00D-06.
 No special actions if energy rises.
 Integral accuracy reduced to 1.0D-05 until final iterations.

 Cycle   1  Pass 0  IDiag  1:
 E= -238.682188209183    
 DIIS: error= 1.27D-02 at cycle   1 NSaved=   1.
 NSaved= 1 IEnMin= 1 EnMin= -238.682188209183     IErMin= 1 ErrMin= 1.27D-02
 ErrMax= 1.27D-02  0.00D+00 EMaxC= 1.00D-01 BMatC= 1.24D-02 BMatP= 1.24D-02
 IDIUse=3 WtCom= 8.73D-01 WtEn= 1.27D-01
 Coeff-Com:  0.100D+01
 Coeff-En:   0.100D+01
 Coeff:      0.100D+01
 Gap=     0.587 Goal=   None    Shift=    0.000
 GapD=    0.587 DampG=2.000 DampE=0.500 DampFc=1.0000 IDamp=-1.
 RMSDP=2.46D-03 MaxDP=2.67D-02              OVMax= 3.38D-02

 Cycle   2  Pass 0  IDiag  1:
 E= -238.691810951505     Delta-E=       -0.009622742322 Rises=F Damp=F
 DIIS: error= 4.21D-03 at cycle   2 NSaved=   2.
 NSaved= 2 IEnMin= 2 EnMin= -238.691810951505     IErMin= 2 ErrMin= 4.21D-03
 ErrMax= 4.21D-03  0.00D+00 EMaxC= 1.00D-01 BMatC= 3.68D-03 BMatP= 1.24D-02
 IDIUse=3 WtCom= 9.58D-01 WtEn= 4.21D-02
 Coeff-Com:  0.322D+00 0.678D+00
 Coeff-En:   0.000D+00 0.100D+01
 Coeff:      0.308D+00 0.692D+00
 Gap=     0.561 Goal=   None    Shift=    0.000
 RMSDP=6.58D-04 MaxDP=1.14D-02 DE=-9.62D-03 OVMax= 1.06D-02

 Cycle   3  Pass 0  IDiag  1:
 E= -238.694031792995     Delta-E=       -0.002220841490 Rises=F Damp=F
 DIIS: error= 1.61D-03 at cycle   3 NSaved=   3.
 NSaved= 3 IEnMin= 3 EnMin= -238.694031792995     IErMin= 3 ErrMin= 1.61D-03
 ErrMax= 1.61D-03  0.00D+00 EMaxC= 1.00D-01 BMatC= 1.90D-04 BMatP= 3.68D-03
 IDIUse=3 WtCom= 9.84D-01 WtEn= 1.61D-02
 Coeff-Com:  0.239D-01 0.167D+00 0.809D+00
 Coeff-En:   0.000D+00 0.000D+00 0.100D+01
 Coeff:      0.235D-01 0.165D+00 0.812D+00
 Gap=     0.564 Goal=   None    Shift=    0.000
 RMSDP=2.52D-04 MaxDP=3.45D-03 DE=-2.22D-03 OVMax= 3.76D-03

 Cycle   4  Pass 0  IDiag  1:
 E= -238.694172585184     Delta-E=       -0.000140792189 Rises=F Damp=F
 DIIS: error= 7.29D-04 at cycle   4 NSaved=   4.
 NSaved= 4 IEnMin= 4 EnMin= -238.694172585184     IErMin= 4 ErrMin= 7.29D-04
 ErrMax= 7.29D-04  0.00D+00 EMaxC= 1.00D-01 BMatC= 5.47D-05 BMatP= 1.90D-04
 IDIUse=3 WtCom= 9.93D-01 WtEn= 7.29D-03
 Coeff-Com: -0.291D-01-0.225D-01 0.342D+00 0.710D+00
 Coeff-En:   0.000D+00 0.000D+00 0.000D+00 0.100D+01
 Coeff:     -0.289D-01-0.224D-01 0.339D+00 0.712D+00
 Gap=     0.563 Goal=   None    Shift=    0.000
 RMSDP=1.01D-04 MaxDP=1.46D-03 DE=-1.41D-04 OVMax= 1.14D-03

 Cycle   5  Pass 0  IDiag  1:
 E= -238.694207125884     Delta-E=       -0.000034540700 Rises=F Damp=F
 DIIS: error= 7.34D-05 at cycle   5 NSaved=   5.
 NSaved= 5 IEnMin= 5 EnMin= -238.694207125884     IErMin= 5 ErrMin= 7.34D-05
 ErrMax= 7.34D-05  0.00D+00 EMaxC= 1.00D-01 BMatC= 6.20D-07 BMatP= 5.47D-05
 IDIUse=1 WtCom= 1.00D+00 WtEn= 0.00D+00
 Coeff-Com: -0.589D-02-0.146D-01 0.105D-01 0.125D+00 0.885D+00
 Coeff:     -0.589D-02-0.146D-01 0.105D-01 0.125D+00 0.885D+00
 Gap=     0.563 Goal=   None    Shift=    0.000
 RMSDP=2.25D-05 MaxDP=3.60D-04 DE=-3.45D-05 OVMax= 2.83D-04

 Cycle   6  Pass 0  IDiag  1:
 E= -238.694207941248     Delta-E=       -0.000000815364 Rises=F Damp=F
 DIIS: error= 1.14D-05 at cycle   6 NSaved=   6.
 NSaved= 6 IEnMin= 6 EnMin= -238.694207941248     IErMin= 6 ErrMin= 1.14D-05
 ErrMax= 1.14D-05  0.00D+00 EMaxC= 1.00D-01 BMatC= 1.14D-08 BMatP= 6.20D-07
 IDIUse=1 WtCom= 1.00D+00 WtEn= 0.00D+00
 Coeff-Com:  0.102D-02 0.180D-02-0.101D-01-0.283D-01-0.435D-01 0.108D+01
 Coeff:      0.102D-02 0.180D-02-0.101D-01-0.283D-01-0.435D-01 0.108D+01
 Gap=     0.563 Goal=   None    Shift=    0.000
 RMSDP=5.40D-06 MaxDP=6.94D-05 DE=-8.15D-07 OVMax= 9.60D-05

 Initial convergence to 1.0D-05 achieved.  Increase integral accuracy.
 Cycle   7  Pass 1  IDiag  1:
 E= -238.694215195785     Delta-E=       -0.000007254537 Rises=F Damp=F
 DIIS: error= 3.44D-06 at cycle   1 NSaved=   1.
 NSaved= 1 IEnMin= 1 EnMin= -238.694215195785     IErMin= 1 ErrMin= 3.44D-06
 ErrMax= 3.44D-06  0.00D+00 EMaxC= 1.00D-01 BMatC= 1.35D-09 BMatP= 1.35D-09
 IDIUse=1 WtCom= 1.00D+00 WtEn= 0.00D+00
 Coeff-Com:  0.100D+01
 Coeff:      0.100D+01
 Gap=     0.563 Goal=   None    Shift=    0.000
 RMSDP=5.40D-06 MaxDP=6.94D-05 DE=-7.25D-06 OVMax= 2.11D-05

 Cycle   8  Pass 1  IDiag  1:
 E= -238.694215198026     Delta-E=       -0.000000002241 Rises=F Damp=F
 DIIS: error= 1.29D-06 at cycle   2 NSaved=   2.
 NSaved= 2 IEnMin= 2 EnMin= -238.694215198026     IErMin= 2 ErrMin= 1.29D-06
 ErrMax= 1.29D-06  0.00D+00 EMaxC= 1.00D-01 BMatC= 8.96D-11 BMatP= 1.35D-09
 IDIUse=1 WtCom= 1.00D+00 WtEn= 0.00D+00
 Coeff-Com: -0.838D-01 0.108D+01
 Coeff:     -0.838D-01 0.108D+01
 Gap=     0.563 Goal=   None    Shift=    0.000
 RMSDP=2.92D-07 MaxDP=3.98D-06 DE=-2.24D-09 OVMax= 8.63D-06

 Cycle   9  Pass 1  IDiag  1:
 E= -238.694215198245     Delta-E=       -0.000000000219 Rises=F Damp=F
 DIIS: error= 3.44D-07 at cycle   3 NSaved=   3.
 NSaved= 3 IEnMin= 3 EnMin= -238.694215198245     IErMin= 3 ErrMin= 3.44D-07
 ErrMax= 3.44D-07  0.00D+00 EMaxC= 1.00D-01 BMatC= 1.01D-11 BMatP= 8.96D-11
 IDIUse=1 WtCom= 1.00D+00 WtEn= 0.00D+00
 Coeff-Com: -0.655D-01 0.923D-01 0.973D+00
 Coeff:     -0.655D-01 0.923D-01 0.973D+00
 Gap=     0.563 Goal=   None    Shift=    0.000
 RMSDP=7.43D-08 MaxDP=1.09D-06 DE=-2.19D-10 OVMax= 2.77D-06

 Cycle  10  Pass 1  IDiag  1:
 E= -238.694215198270     Delta-E=       -0.000000000024 Rises=F Damp=F
 DIIS: error= 9.54D-08 at cycle   4 NSaved=   4.
 NSaved= 4 IEnMin= 4 EnMin= -238.694215198270     IErMin= 4 ErrMin= 9.54D-08
 ErrMax= 9.54D-08  0.00D+00 EMaxC= 1.00D-01 BMatC= 7.58D-13 BMatP= 1.01D-11
 IDIUse=1 WtCom= 1.00D+00 WtEn= 0.00D+00
 Coeff-Com: -0.340D-02-0.534D-01 0.885D-01 0.968D+00
 Coeff:     -0.340D-02-0.534D-01 0.885D-01 0.968D+00
 Gap=     0.563 Goal=   None    Shift=    0.000
 RMSDP=2.01D-08 MaxDP=2.67D-07 DE=-2.44D-11 OVMax= 7.73D-07

 Cycle  11  Pass 1  IDiag  1:
 E= -238.694215198267     Delta-E=        0.000000000003 Rises=F Damp=F
 DIIS: error= 2.39D-08 at cycle   5 NSaved=   5.
 NSaved= 5 IEnMin= 4 EnMin= -238.694215198270     IErMin= 5 ErrMin= 2.39D-08
 ErrMax= 2.39D-08  0.00D+00 EMaxC= 1.00D-01 BMatC= 6.57D-14 BMatP= 7.58D-13
 IDIUse=1 WtCom= 1.00D+00 WtEn= 0.00D+00
 Coeff-Com:  0.480D-02-0.155D-01-0.700D-01 0.194D+00 0.887D+00
 Coeff:      0.480D-02-0.155D-01-0.700D-01 0.194D+00 0.887D+00
 Gap=     0.563 Goal=   None    Shift=    0.000
 RMSDP=5.58D-09 MaxDP=7.67D-08 DE= 2.56D-12 OVMax= 1.59D-07

 SCF Done:  E(RLC-wHPBE) =  -238.694215198     A.U. after   11 cycles
            NFock= 11  Conv=0.56D-08     -V/T= 2.0076
 KE= 2.368955852788D+02 PE=-7.210476003853D+02 EE= 1.680463442548D+02
 Leave Link  502 at Mon Mar 21 20:06:15 2022, MaxMem=  8589934592 cpu:               6.0 elap:               0.8
 (Enter /home/sabyasachi/g16/l801.exe)
 DoSCS=F DFT=T ScalE2(SS,OS)=  1.000000  1.000000
 ExpMin= 6.71D-02 ExpMax= 2.89D+03 ExpMxC= 4.35D+02 IAcc=3 IRadAn=         5 AccDes= 0.00D+00
 HarFok:  IExCor=  205 AccDes= 0.00D+00 IRadAn=         5 IDoV=-2 UseB2=F ITyADJ=14
 ICtDFT= 12500011 ScaDFX=  1.000000  1.000000  1.000000  1.000000
 Largest valence mixing into a core orbital is  6.82D-05
 Largest core mixing into a valence orbital is  1.62D-05
 Range of M.O.s used for correlation:     4    82
 NBasis=    82 NAE=    13 NBE=    13 NFC=     3 NFV=     0
 NROrb=     79 NOA=    10 NOB=    10 NVA=    69 NVB=    69

 **** Warning!!: The largest alpha MO coefficient is  0.15987236D+02

 Leave Link  801 at Mon Mar 21 20:06:16 2022, MaxMem=  8589934592 cpu:               0.5 elap:               0.1
 (Enter /home/sabyasachi/g16/l914.exe)
 RHF ground state
 Keep R1, R2, and R3 ints in memory in symmetry-blocked form, NReq=468916192.
 FoFCou: FMM=F IPFlag=           0 FMFlag=           0 FMFlg1=           0
         NFxFlg=           0 DoJE=F BraDBF=F KetDBF=F FulRan=T
         wScrn=  0.000000 ICntrl=       600 IOpCl=  0 I1Cent=           0 NGrid=           0
         NMat0=    1 NMatS0=   3403 NMatT0=    0 NMatD0=    1 NMtDS0=    0 NMtDT0=    0
 Petite list used in FoFCou.
 MDV=  8589934592 DFT=T DoStab=F Mixed=T DoRPA=T DoScal=F NonHer=T
 Making orbital integer symmetry assigments:
 Orbital symmetries:
       Occupied  (A1) (B2) (A1) (A1) (B2) (A1) (B1) (A1) (B2) (A2)
                 (A1) (B2) (B1)
       Virtual   (A1) (B2) (B1) (A1) (A1) (B2) (A2) (A1) (B1) (B2)
                 (A1) (A1) (A2) (B1) (A1) (B2) (B1) (B1) (A1) (B2)
                 (A1) (B2) (A2) (A1) (B1) (A1) (B2) (A1) (B1) (A2)
                 (A1) (B2) (B2) (A2) (A1) (B1) (B2) (A1) (B1) (A1)
                 (A2) (A1) (B1) (B2) (A2) (B2) (A1) (B1) (A1) (B1)
                 (B2) (A1) (B2) (B2) (A1) (A2) (A1) (A1) (B1) (B2)
                 (A2) (B2) (B1) (A1) (B1) (A2) (A1) (A1) (B2)
   690 initial guesses have been made.
 Convergence on wavefunction:    0.001000000000000
 Davidson Disk Diagonalization:  ConvIn= 1.00D-03 SkipCon=T Conv= 1.00D-03.
 Max sub-space:  4140 roots to seek:  1380 dimension of matrix:         1380
 *** WARNING: Number of orthogonal guesses is          690
 Iteration     1 Dimension   690 NMult     0 NNew    690
 CISAX will form   690 AO SS matrices at one time.
 NMat=   690 NSing=   690 JSym2X=-1.
 New state      3 was old state      4
 New state      4 was old state      3
 New state      8 was old state      9
 New state      9 was old state      8
 New state     10 was old state     12
 New state     11 was old state     18
 New state     12 was old state     16
 New state     13 was old state     10
 New state     15 was old state     13
 New state     16 was old state     15
 New state     17 was old state     20
 New state     18 was old state     11
 New state     19 was old state     17
 New state     20 was old state     21
 New state     21 was old state     22
 New state     22 was old state     24
 New state     23 was old state     19
 New state     24 was old state     23
 New state     25 was old state     43
 New state     26 was old state     29
 New state     28 was old state     25
 New state     29 was old state     26
 New state     30 was old state     34
 New state     32 was old state     33
 New state     33 was old state     32
 New state     34 was old state     39
 New state     36 was old state     37
 New state     37 was old state     28
 New state     39 was old state     30
 New state     40 was old state     36
 New state     42 was old state     44
 New state     43 was old state     42
 New state     44 was old state     49
 New state     45 was old state     50
 New state     47 was old state     45
 New state     48 was old state     40
 New state     49 was old state     52
 New state     50 was old state     48
 New state     51 was old state     53
 New state     52 was old state     64
 New state     53 was old state     47
 New state     54 was old state     51
 New state     56 was old state     57
 New state     57 was old state     62
 New state     58 was old state     56
 New state     59 was old state     58
 New state     60 was old state     54
 New state     61 was old state     59
 New state     62 was old state     61
 New state     63 was old state     60
 New state     64 was old state     69
 New state     66 was old state     63
 New state     68 was old state     66
 New state     69 was old state     71
 New state     70 was old state     76
 New state     71 was old state     73
 New state     72 was old state     81
 New state     73 was old state     70
 New state     74 was old state     86
 New state     75 was old state     68
 New state     76 was old state     80
 New state     77 was old state     75
 New state     78 was old state     87
 New state     79 was old state     84
 New state     80 was old state     79
 New state     81 was old state     77
 New state     83 was old state     85
 New state     84 was old state     72
 New state     85 was old state     83
 New state     86 was old state     96
 New state     87 was old state     89
 New state     88 was old state     74
 New state     89 was old state     90
 New state     90 was old state     78
 New state     91 was old state     92
 New state     92 was old state    101
 New state     93 was old state     91
 New state     94 was old state     93
 New state     95 was old state     88
 New state     96 was old state     98
 New state     97 was old state     94
 New state     98 was old state    100
 New state    100 was old state     97
 New state    101 was old state     95
 New state    103 was old state    105
 New state    104 was old state    103
 New state    105 was old state    117
 New state    106 was old state    108
 New state    107 was old state    104
 New state    108 was old state    107
 New state    109 was old state    110
 New state    110 was old state    116
 New state    111 was old state    114
 New state    112 was old state    113
 New state    113 was old state    106
 New state    114 was old state    112
 New state    115 was old state    109
 New state    116 was old state    115
 New state    117 was old state    118
 New state    118 was old state    120
 New state    119 was old state    111
 New state    120 was old state    119
 New state    122 was old state    142
 New state    124 was old state    125
 New state    125 was old state    127
 New state    126 was old state    122
 New state    127 was old state    128
 New state    128 was old state    130
 New state    129 was old state    124
 New state    130 was old state    131
 New state    131 was old state    126
 New state    132 was old state    133
 New state    133 was old state    129
 New state    134 was old state    136
 New state    135 was old state    140
 New state    136 was old state    135
 New state    137 was old state    145
 New state    138 was old state    144
 New state    139 was old state    147
 New state    140 was old state    143
 New state    141 was old state    138
 New state    142 was old state    139
 New state    143 was old state    141
 New state    144 was old state    146
 New state    145 was old state    132
 New state    146 was old state    134
 New state    147 was old state    137
 New state    148 was old state    149
 New state    149 was old state    148
 New state    153 was old state    154
 New state    154 was old state    155
 New state    155 was old state    157
 New state    156 was old state    158
 New state    157 was old state    159
 New state    158 was old state    167
 New state    159 was old state    162
 New state    161 was old state    153
 New state    162 was old state    163
 New state    163 was old state    172
 New state    165 was old state    156
 New state    166 was old state    168
 New state    167 was old state    170
 New state    168 was old state    161
 New state    169 was old state    178
 New state    170 was old state    165
 New state    172 was old state    166
 New state    173 was old state    174
 New state    174 was old state    169
 New state    175 was old state    177
 New state    176 was old state    175
 New state    177 was old state    184
 New state    178 was old state    173
 New state    179 was old state    176
 New state    180 was old state    179
 New state    181 was old state    182
 New state    182 was old state    183
 New state    183 was old state    186
 New state    184 was old state    181
 New state    186 was old state    190
 New state    187 was old state    180
 New state    188 was old state    189
 New state    189 was old state    188
 New state    190 was old state    191
 New state    191 was old state    195
 New state    194 was old state    187
 New state    195 was old state    198
 New state    197 was old state    200
 New state    198 was old state    199
 New state    199 was old state    194
 New state    200 was old state    197
 New state    201 was old state    206
 New state    202 was old state    203
 New state    203 was old state    201
 New state    204 was old state    202
 New state    205 was old state    204
 New state    206 was old state    207
 New state    207 was old state    205
 New state    208 was old state    214
 New state    209 was old state    210
 New state    210 was old state    208
 New state    211 was old state    212
 New state    212 was old state    216
 New state    213 was old state    219
 New state    214 was old state    224
 New state    215 was old state    217
 New state    216 was old state    209
 New state    217 was old state    221
 New state    218 was old state    213
 New state    219 was old state    229
 New state    220 was old state    222
 New state    221 was old state    211
 New state    222 was old state    220
 New state    224 was old state    230
 New state    225 was old state    215
 New state    226 was old state    225
 New state    227 was old state    228
 New state    228 was old state    227
 New state    229 was old state    236
 New state    230 was old state    226
 New state    231 was old state    239
 New state    232 was old state    234
 New state    233 was old state    218
 New state    234 was old state    232
 New state    235 was old state    231
 New state    236 was old state    233
 New state    237 was old state    235
 New state    238 was old state    245
 New state    239 was old state    244
 New state    240 was old state    237
 New state    241 was old state    247
 New state    242 was old state    241
 New state    243 was old state    238
 New state    244 was old state    240
 New state    245 was old state    249
 New state    246 was old state    248
 New state    247 was old state    250
 New state    248 was old state    242
 New state    249 was old state    243
 New state    250 was old state    246
 New state    252 was old state    260
 New state    254 was old state    264
 New state    255 was old state    252
 New state    256 was old state    269
 New state    257 was old state    263
 New state    258 was old state    270
 New state    259 was old state    265
 New state    260 was old state    257
 New state    261 was old state    262
 New state    262 was old state    274
 New state    263 was old state    276
 New state    264 was old state    268
 New state    265 was old state    256
 New state    266 was old state    272
 New state    267 was old state    255
 New state    268 was old state    271
 New state    269 was old state    266
 New state    270 was old state    273
 New state    271 was old state    275
 New state    272 was old state    254
 New state    273 was old state    282
 New state    274 was old state    261
 New state    275 was old state    267
 New state    276 was old state    280
 New state    279 was old state    285
 New state    280 was old state    286
 New state    281 was old state    279
 New state    282 was old state    259
 New state    283 was old state    281
 New state    284 was old state    283
 New state    285 was old state    289
 New state    286 was old state    293
 New state    287 was old state    292
 New state    288 was old state    294
 New state    289 was old state    287
 New state    290 was old state    258
 New state    291 was old state    302
 New state    292 was old state    296
 New state    293 was old state    301
 New state    294 was old state    297
 New state    295 was old state    299
 New state    296 was old state    298
 New state    297 was old state    295
 New state    298 was old state    306
 New state    299 was old state    291
 New state    300 was old state    290
 New state    301 was old state    303
 New state    302 was old state    288
 New state    303 was old state    284
 New state    304 was old state    300
 New state    305 was old state    304
 New state    306 was old state    309
 New state    307 was old state    312
 New state    308 was old state    307
 New state    309 was old state    305
 New state    311 was old state    313
 New state    312 was old state    315
 New state    313 was old state    317
 New state    314 was old state    320
 New state    315 was old state    324
 New state    316 was old state    314
 New state    317 was old state    308
 New state    318 was old state    322
 New state    319 was old state    325
 New state    320 was old state    319
 New state    321 was old state    311
 New state    322 was old state    323
 New state    323 was old state    318
 New state    324 was old state    316
 New state    325 was old state    331
 New state    326 was old state    321
 New state    327 was old state    333
 New state    328 was old state    336
 New state    330 was old state    326
 New state    331 was old state    341
 New state    332 was old state    328
 New state    333 was old state    339
 New state    334 was old state    338
 New state    335 was old state    337
 New state    336 was old state    340
 New state    337 was old state    327
 New state    338 was old state    330
 New state    339 was old state    332
 New state    340 was old state    334
 New state    341 was old state    342
 New state    342 was old state    343
 New state    343 was old state    345
 New state    345 was old state    348
 New state    346 was old state    350
 New state    347 was old state    346
 New state    348 was old state    349
 New state    349 was old state    353
 New state    350 was old state    351
 New state    351 was old state    356
 New state    352 was old state    355
 New state    353 was old state    347
 New state    354 was old state    352
 New state    355 was old state    354
 New state    356 was old state    335
 New state    358 was old state    362
 New state    359 was old state    358
 New state    360 was old state    359
 New state    361 was old state    364
 New state    362 was old state    360
 New state    364 was old state    361
 New state    369 was old state    370
 New state    370 was old state    369
 New state    373 was old state    374
 New state    374 was old state    373
 New state    377 was old state    379
 New state    378 was old state    377
 New state    379 was old state    380
 New state    380 was old state    378
 New state    381 was old state    382
 New state    382 was old state    388
 New state    383 was old state    381
 New state    384 was old state    383
 New state    386 was old state    384
 New state    387 was old state    392
 New state    388 was old state    389
 New state    389 was old state    386
 New state    390 was old state    387
 New state    391 was old state    393
 New state    392 was old state    397
 New state    393 was old state    394
 New state    394 was old state    391
 New state    395 was old state    398
 New state    396 was old state    407
 New state    397 was old state    390
 New state    398 was old state    395
 New state    399 was old state    409
 New state    400 was old state    396
 New state    401 was old state    405
 New state    402 was old state    404
 New state    404 was old state    406
 New state    405 was old state    400
 New state    406 was old state    401
 New state    407 was old state    402
 New state    409 was old state    410
 New state    410 was old state    413
 New state    411 was old state    415
 New state    412 was old state    411
 New state    413 was old state    416
 New state    415 was old state    421
 New state    416 was old state    412
 New state    417 was old state    418
 New state    418 was old state    420
 New state    419 was old state    431
 New state    420 was old state    424
 New state    421 was old state    422
 New state    422 was old state    419
 New state    423 was old state    428
 New state    424 was old state    429
 New state    425 was old state    430
 New state    426 was old state    423
 New state    428 was old state    425
 New state    429 was old state    432
 New state    430 was old state    426
 New state    431 was old state    433
 New state    432 was old state    442
 New state    433 was old state    434
 New state    434 was old state    417
 New state    435 was old state    440
 New state    436 was old state    435
 New state    437 was old state    436
 New state    438 was old state    441
 New state    440 was old state    437
 New state    441 was old state    448
 New state    442 was old state    438
 New state    443 was old state    444
 New state    444 was old state    443
 New state    445 was old state    452
 New state    446 was old state    447
 New state    447 was old state    445
 New state    448 was old state    446
 New state    450 was old state    454
 New state    451 was old state    453
 New state    452 was old state    457
 New state    453 was old state    451
 New state    454 was old state    450
 New state    457 was old state    459
 New state    458 was old state    461
 New state    459 was old state    460
 New state    460 was old state    458
 New state    461 was old state    473
 New state    462 was old state    465
 New state    464 was old state    462
 New state    465 was old state    464
 New state    467 was old state    470
 New state    468 was old state    467
 New state    469 was old state    474
 New state    470 was old state    468
 New state    472 was old state    469
 New state    473 was old state    475
 New state    474 was old state    476
 New state    475 was old state    479
 New state    476 was old state    477
 New state    477 was old state    478
 New state    478 was old state    480
 New state    479 was old state    481
 New state    480 was old state    482
 New state    481 was old state    483
 New state    482 was old state    472
 New state    483 was old state    490
 New state    484 was old state    491
 New state    485 was old state    489
 New state    486 was old state    487
 New state    487 was old state    492
 New state    488 was old state    484
 New state    489 was old state    485
 New state    490 was old state    493
 New state    491 was old state    488
 New state    492 was old state    494
 New state    493 was old state    497
 New state    494 was old state    496
 New state    496 was old state    501
 New state    497 was old state    486
 New state    498 was old state    500
 New state    499 was old state    498
 New state    500 was old state    499
 New state    501 was old state    505
 New state    502 was old state    503
 New state    503 was old state    507
 New state    504 was old state    502
 New state    505 was old state    504
 New state    507 was old state    508
 New state    508 was old state    515
 New state    509 was old state    510
 New state    510 was old state    514
 New state    511 was old state    512
 New state    512 was old state    509
 New state    513 was old state    511
 New state    514 was old state    513
 New state    515 was old state    516
 New state    516 was old state    525
 New state    517 was old state    518
 New state    518 was old state    517
 New state    521 was old state    524
 New state    522 was old state    521
 New state    523 was old state    527
 New state    524 was old state    526
 New state    525 was old state    529
 New state    526 was old state    545
 New state    527 was old state    522
 New state    528 was old state    523
 New state    529 was old state    530
 New state    530 was old state    528
 New state    533 was old state    534
 New state    534 was old state    535
 New state    535 was old state    533
 New state    536 was old state    537
 New state    537 was old state    536
 New state    538 was old state    539
 New state    539 was old state    541
 New state    540 was old state    542
 New state    541 was old state    544
 New state    542 was old state    543
 New state    543 was old state    540
 New state    544 was old state    546
 New state    545 was old state    563
 New state    546 was old state    538
 New state    547 was old state    548
 New state    548 was old state    547
 New state    553 was old state    554
 New state    554 was old state    553
 New state    555 was old state    557
 New state    556 was old state    555
 New state    557 was old state    556
 No map to state    562
 New state    563 was old state    562
 New state    567 was old state    568
 New state    568 was old state    567
 New state    569 was old state    571
 New state    570 was old state    572
 New state    571 was old state    569
 New state    572 was old state    570
 New state    574 was old state    575
 New state    575 was old state    574
 New state    576 was old state    580
 New state    578 was old state    581
 New state    579 was old state    578
 New state    580 was old state    576
 New state    581 was old state    579
 New state    585 was old state    586
 New state    586 was old state    585
 New state    590 was old state    591
 New state    591 was old state    594
 New state    592 was old state    595
 New state    593 was old state    590
 New state    594 was old state    593
 New state    595 was old state    596
 New state    596 was old state    599
 New state    598 was old state    592
 New state    599 was old state    602
 New state    600 was old state    603
 New state    601 was old state    604
 New state    602 was old state    605
 New state    603 was old state    598
 New state    604 was old state    608
 New state    605 was old state    609
 New state    606 was old state    612
 New state    607 was old state    600
 New state    608 was old state    607
 New state    609 was old state    601
 New state    610 was old state    613
 New state    611 was old state    615
 New state    612 was old state    618
 New state    613 was old state    606
 New state    614 was old state    616
 New state    615 was old state    623
 New state    616 was old state    614
 New state    618 was old state    624
 New state    619 was old state    620
 New state    620 was old state    622
 New state    621 was old state    619
 New state    622 was old state    621
 New state    623 was old state    626
 New state    624 was old state    627
 New state    625 was old state    636
 New state    626 was old state    629
 New state    627 was old state    625
 New state    628 was old state    630
 New state    629 was old state    628
 New state    630 was old state    610
 New state    631 was old state    633
 New state    633 was old state    634
 New state    634 was old state    638
 New state    636 was old state    631
 New state    637 was old state    645
 New state    638 was old state    639
 New state    639 was old state    637
 New state    642 was old state    649
 New state    643 was old state    644
 New state    644 was old state    663
 New state    645 was old state    643
 New state    649 was old state    650
 New state    650 was old state    652
 New state    652 was old state    653
 New state    653 was old state    642
 New state    654 was old state    657
 New state    656 was old state    654
 New state    657 was old state    658
 New state    658 was old state    656
 New state    660 was old state    662
 New state    662 was old state    660
 New state    663 was old state    664
 New state    664 was old state    665
 New state    665 was old state    668
 New state    666 was old state    669
 New state    668 was old state    670
 No map to state    669
 New state    670 was old state    671
 New state    671 was old state    673
 New state    672 was old state    666
 New state    673 was old state    675
 New state    674 was old state    672
 New state    675 was old state    674
 New state    676 was old state    678
 New state    677 was old state    676
 New state    678 was old state    677
 New state    681 was old state    682
 New state    682 was old state    681
 Excitation Energies [eV] at current iteration:
 Root      1 :     9.818263838257829
 Root      2 :    10.383361860609430
 Root      3 :    11.097368229108610
 Root      4 :    11.505552028285900
 Root      5 :    11.642176331642830
 Root      6 :    11.914133429103010
 Root      7 :    12.257645305273090
 Root      8 :    12.605508189509250
 Root      9 :    12.663513248664540
 Root     10 :    12.884529408649690
 Root     11 :    12.966220704401880
 Root     12 :    13.197080322670040
 Root     13 :    13.289011518997840
 Root     14 :    13.322597115524460
 Root     15 :    13.384197959532230
 Root     16 :    13.456704437102650
 Root     17 :    13.581339233067420
 Root     18 :    13.629962511769720
 Root     19 :    13.957189430113810
 Root     20 :    14.091784709676180
 Root     21 :    14.164908105276020
 Root     22 :    14.408954835607780
 Root     23 :    14.416782471150440
 Root     24 :    14.467525341773310
 Root     25 :    14.923238918541350
 Root     26 :    14.974154101014710
 Root     27 :    15.004697473540370
 Root     28 :    15.113716561701260
 Root     29 :    15.204715218722340
 Root     30 :    15.256390656578250
 Root     31 :    15.438737478363690
 Root     32 :    15.517424173448420
 Root     33 :    15.733485852310350
 Root     34 :    15.774306142241900
 Root     35 :    15.887384817932760
 Root     36 :    15.898123379261710
 Root     37 :    15.947587354220650
 Root     38 :    15.988837446196410
 Root     39 :    15.999919134898910
 Root     40 :    16.198832601628450
 Root     41 :    16.235353639089280
 Root     42 :    16.250353086169800
 Root     43 :    16.381702805248750
 Root     44 :    16.554150828633200
 Root     45 :    16.558523964212910
 Root     46 :    16.597175252303830
 Root     47 :    16.688753884025700
 Root     48 :    16.943289831516800
 Root     49 :    17.078245143406710
 Root     50 :    17.142649767557550
 Root     51 :    17.299755740418280
 Root     52 :    17.320864248567910
 Root     53 :    17.335988650686590
 Root     54 :    17.350590636639730
 Root     55 :    17.521443715298120
 Root     56 :    17.616824795609560
 Root     57 :    17.692998525030700
 Root     58 :    17.724346302997030
 Root     59 :    17.803902677563170
 Root     60 :    17.808883221181840
 Root     61 :    17.870971962680920
 Root     62 :    18.166682021503230
 Root     63 :    18.321423919213660
 Root     64 :    18.621214857477060
 Root     65 :    18.648249478790580
 Root     66 :    18.685573166226990
 Root     67 :    18.713921154198570
 Root     68 :    18.782568521343000
 Root     69 :    19.006189585062400
 Root     70 :    19.047584029308090
 Root     71 :    19.110385764963950
 Root     72 :    19.144713911214410
 Root     73 :    19.219683150663900
 Root     74 :    19.230538855367540
 Root     75 :    19.508175834966650
 Root     76 :    19.624961373199060
 Root     77 :    19.640035120047740
 Root     78 :    19.644720540199960
 Root     79 :    19.648957285001270
 Root     80 :    19.682318199618010
 Root     81 :    19.708965320037940
 Root     82 :    19.783570874308210
 Root     83 :    19.817607896759430
 Root     84 :    19.928680656929920
 Root     85 :    19.938136417724100
 Root     86 :    19.975803050796950
 Root     87 :    19.993895140971880
 Root     88 :    20.025338943184230
 Root     89 :    20.100034054274720
 Root     90 :    20.100891964986900
 Root     91 :    20.117985383488830
 Root     92 :    20.240119957984260
 Root     93 :    20.284137339094670
 Root     94 :    20.307916008087190
 Root     95 :    20.455710927300700
 Root     96 :    20.466267565065880
 Root     97 :    20.500769885016020
 Root     98 :    20.621498959477470
 Root     99 :    20.635218846574610
 Root    100 :    20.654269570682150
 Root    101 :    20.742731042351060
 Root    102 :    20.921582619479210
 Root    103 :    20.969726796930160
 Root    104 :    21.182666570960200
 Root    105 :    21.199020978900460
 Root    106 :    21.393380217188340
 Root    107 :    21.424597736539530
 Root    108 :    21.465483743100660
 Root    109 :    21.505910625565730
 Root    110 :    21.716121883982580
 Root    111 :    21.762655539083630
 Root    112 :    21.814560321548240
 Root    113 :    21.863857044928500
 Root    114 :    21.906507490804510
 Root    115 :    21.987173100104430
 Root    116 :    22.151938321955960
 Root    117 :    22.280368533733170
 Root    118 :    22.331922788009420
 Root    119 :    22.381983337159760
 Root    120 :    22.443800768710260
 Root    121 :    22.548768300907410
 Root    122 :    22.827043768183740
 Root    123 :    22.844916559273270
 Root    124 :    22.864331812508100
 Root    125 :    22.963234987138240
 Root    126 :    23.031315287777550
 Root    127 :    23.091428376395770
 Root    128 :    23.148888138302530
 Root    129 :    23.161080291678740
 Root    130 :    23.269863508989740
 Root    131 :    23.276451866746480
 Root    132 :    23.374765148337960
 Root    133 :    23.395201926328100
 Root    134 :    23.433274766052350
 Root    135 :    23.520773428860310
 Root    136 :    23.560913484741760
 Root    137 :    23.656169294288190
 Root    138 :    23.739183800512650
 Root    139 :    23.800040861373480
 Root    140 :    23.863666955675660
 Root    141 :    23.972867517937060
 Root    142 :    23.987666496110360
 Root    143 :    24.012786645214630
 Root    144 :    24.158095972409750
 Root    145 :    24.191579967804350
 Root    146 :    24.258424434726470
 Root    147 :    24.365381231419110
 Root    148 :    24.461865071511930
 Root    149 :    24.465411591568730
 Root    150 :    24.913111027862910
 Root    151 :    24.952393327765740
 Root    152 :    24.958465106888480
 Root    153 :    25.045774935792300
 Root    154 :    25.210444039690000
 Root    155 :    25.431992035158840
 Root    156 :    25.575069371064210
 Root    157 :    25.592382394998940
 Root    158 :    25.637223312212940
 Root    159 :    25.731318499452810
 Root    160 :    25.735510614566170
 Root    161 :    25.924450453007610
 Root    162 :    25.930657322580000
 Root    163 :    25.935792137956570
 Root    164 :    26.046591925083510
 Root    165 :    26.154725963054820
 Root    166 :    26.291873621578930
 Root    167 :    26.316242230417980
 Root    168 :    26.347152504969750
 Root    169 :    26.460521733569030
 Root    170 :    26.497290989149900
 Root    171 :    26.660780868860950
 Root    172 :    26.909909081357310
 Root    173 :    26.948428294566130
 Root    174 :    27.053721603383240
 Root    175 :    27.283908707337070
 Root    176 :    27.365694375723560
 Root    177 :    27.515296951471490
 Root    178 :    27.553507784031130
 Root    179 :    27.617950863192990
 Root    180 :    27.697059116559690
 Root    181 :    27.765379259097090
 Root    182 :    27.782865895299380
 Root    183 :    27.858265421406110
 Root    184 :    28.036931236385450
 Root    185 :    28.078479796367230
 Root    186 :    28.188873749711910
 Root    187 :    28.397424711135260
 Root    188 :    28.483524264883350
 Root    189 :    28.575053712841740
 Root    190 :    28.680019289005000
 Root    191 :    28.709540351289810
 Root    192 :    28.824428973535990
 Root    193 :    28.911584459421930
 Root    194 :    28.989306022734140
 Root    195 :    29.177961754360100
 Root    196 :    29.178850080252080
 Root    197 :    29.201557232186440
 Root    198 :    29.317686190471410
 Root    199 :    29.323291405807150
 Root    200 :    29.426206612649810
 Root    201 :    29.470106188752210
 Root    202 :    29.842082833652400
 Root    203 :    30.021396350214920
 Root    204 :    30.059565144969460
 Root    205 :    30.072105362965640
 Root    206 :    30.227702243355290
 Root    207 :    30.284503994644080
 Root    208 :    30.363148765788220
 Root    209 :    30.462853606376360
 Root    210 :    30.563669286169850
 Root    211 :    30.610602715530590
 Root    212 :    30.855932771294400
 Root    213 :    31.039530462558300
 Root    214 :    31.064137872730230
 Root    215 :    31.251299262262470
 Root    216 :    31.320073001266440
 Root    217 :    31.545874678736240
 Root    218 :    31.593291998533580
 Root    219 :    31.642042472308610
 Root    220 :    31.649561233055320
 Root    221 :    31.856924237995540
 Root    222 :    31.887639406641470
 Root    223 :    31.912499652429110
 Root    224 :    32.106744310546580
 Root    225 :    32.169080911871960
 Root    226 :    32.169236683979700
 Root    227 :    32.377657652135920
 Root    228 :    32.500666591696430
 Root    229 :    32.533835906898630
 Root    230 :    32.596860328454760
 Root    231 :    32.624900661656060
 Root    232 :    32.649672631212820
 Root    233 :    32.669541630189870
 Root    234 :    32.714694149533900
 Root    235 :    32.735486984316050
 Root    236 :    32.819312912336010
 Root    237 :    32.888246844493030
 Root    238 :    32.918208053968560
 Root    239 :    33.046632394633870
 Root    240 :    33.345603509458530
 Root    241 :    33.414864414497670
 Root    242 :    33.522401953283380
 Root    243 :    33.579794756853050
 Root    244 :    33.819104674820590
 Root    245 :    33.956122714733850
 Root    246 :    34.072529725449250
 Root    247 :    34.107221060795670
 Root    248 :    34.219148847154190
 Root    249 :    34.226459217547300
 Root    250 :    34.502938916250550
 Root    251 :    34.863624577302170
 Root    252 :    34.906730282938070
 Root    253 :    34.959812421644350
 Root    254 :    35.056806002808970
 Root    255 :    35.200663346102980
 Root    256 :    35.300969893772760
 Root    257 :    35.366335687567190
 Root    258 :    35.415699809664220
 Root    259 :    35.517757993922470
 Root    260 :    35.543537736700080
 Root    261 :    35.558591177495920
 Root    262 :    35.641558013443910
 Root    263 :    35.696007875320450
 Root    264 :    35.715226659700010
 Root    265 :    35.739030263290070
 Root    266 :    35.782804631986130
 Root    267 :    35.809656014268090
 Root    268 :    35.963743901907790
 Root    269 :    36.103902862773200
 Root    270 :    36.141017082393470
 Root    271 :    36.209781955784750
 Root    272 :    36.344100090108520
 Root    273 :    36.358726417537680
 Root    274 :    36.369389309944100
 Root    275 :    36.457711645570530
 Root    276 :    36.529799892078830
 Root    277 :    36.531110060666560
 Root    278 :    36.635961976205420
 Root    279 :    36.830608675080630
 Root    280 :    36.861030986101600
 Root    281 :    36.868195792952800
 Root    282 :    36.899060323958890
 Root    283 :    36.950952273938900
 Root    284 :    37.016852983827580
 Root    285 :    37.151924022747140
 Root    286 :    37.317708714425400
 Root    287 :    37.338687840613510
 Root    288 :    37.354231620766650
 Root    289 :    37.396952002985640
 Root    290 :    37.524379533312390
 Root    291 :    37.574859281656740
 Root    292 :    37.682102518510330
 Root    293 :    37.849940711402450
 Root    294 :    37.895703410045440
 Root    295 :    37.908541260532020
 Root    296 :    38.147380767662810
 Root    297 :    38.215435520373230
 Root    298 :    38.221305850471570
 Root    299 :    38.245388074975310
 Root    300 :    38.301443309644580
 Root    301 :    38.447364467963550
 Root    302 :    38.461553325912390
 Root    303 :    38.553115376051570
 Root    304 :    38.894308306044760
 Root    305 :    38.901814564083100
 Root    306 :    39.356129909623220
 Root    307 :    39.393694638618580
 Root    308 :    39.504508359517270
 Root    309 :    39.528779060268930
 Root    310 :    39.551266150472660
 Root    311 :    39.658509804687500
 Root    312 :    39.818067426780350
 Root    313 :    39.818574159782380
 Root    314 :    39.851681759710270
 Root    315 :    39.857349428385180
 Root    316 :    40.041394927408010
 Root    317 :    40.183384610054260
 Root    318 :    40.253676102165540
 Root    319 :    40.295953241345050
 Root    320 :    40.327961705742210
 Root    321 :    40.430416483295750
 Root    322 :    40.564644117693160
 Root    323 :    40.647704414719730
 Root    324 :    40.687384884661210
 Root    325 :    40.914048686221500
 Root    326 :    40.935262014311160
 Root    327 :    40.989495472557450
 Root    328 :    41.142247219936200
 Root    329 :    41.410737638366900
 Root    330 :    41.467597236876930
 Root    331 :    41.552711144873170
 Root    332 :    41.578469424484870
 Root    333 :    41.698975306946340
 Root    334 :    41.742264129924390
 Root    335 :    41.902618339366610
 Root    336 :    41.905506332237230
 Root    337 :    41.997720451698510
 Root    338 :    42.117829839106670
 Root    339 :    42.234829227890470
 Root    340 :    42.324438735650230
 Root    341 :    42.482326623059710
 Root    342 :    42.813385957830070
 Root    343 :    42.997418087940490
 Root    344 :    43.230567171055780
 Root    345 :    43.262117498398810
 Root    346 :    43.390233574263660
 Root    347 :    43.601505893851110
 Root    348 :    43.619547206689430
 Root    349 :    43.730443008670440
 Root    350 :    43.772682399796570
 Root    351 :    43.810693082129440
 Root    352 :    43.837307817963350
 Root    353 :    44.072869791898730
 Root    354 :    44.129444093186710
 Root    355 :    44.348036077655700
 Root    356 :    44.944759319491250
 Root    357 :    45.095077454780790
 Root    358 :    45.378247617780640
 Root    359 :    45.459330024909540
 Root    360 :    45.643849622689490
 Root    361 :    45.888446026492710
 Root    362 :    45.923378001826350
 Root    363 :    46.078220376577110
 Root    364 :    46.460479907671790
 Root    365 :    47.427770808779940
 Root    366 :    47.790950595953230
 Root    367 :    47.836361983891510
 Root    368 :    48.383550925368160
 Root    369 :    48.583758609478170
 Root    370 :    48.834096493149470
 Root    371 :    49.394718776026830
 Root    372 :    49.410140229592820
 Root    373 :    49.595744140209250
 Root    374 :    50.236091796171610
 Root    375 :    50.297446199473660
 Root    376 :    50.503855388323910
 Root    377 :    50.864630134505270
 Root    378 :    51.011368320774390
 Root    379 :    51.015439350223670
 Root    380 :    51.458870995013860
 Root    381 :    51.461707361942250
 Root    382 :    51.695368318894200
 Root    383 :    51.782155863525920
 Root    384 :    51.837610323858450
 Root    385 :    52.174627788386220
 Root    386 :    52.296094207346770
 Root    387 :    52.534251109777030
 Root    388 :    52.584082056596680
 Root    389 :    52.592249300792600
 Root    390 :    52.618090917511250
 Root    391 :    53.108337086625770
 Root    392 :    53.810328732891020
 Root    393 :    53.865295354100990
 Root    394 :    53.933588362820100
 Root    395 :    54.023337266642860
 Root    396 :    54.064504291220720
 Root    397 :    54.439731665730040
 Root    398 :    54.451801472049770
 Root    399 :    54.528476158206950
 Root    400 :    54.544283793041880
 Root    401 :    54.765616222535910
 Root    402 :    54.836411532042520
 Root    403 :    54.958613606161620
 Root    404 :    54.970681178555780
 Root    405 :    55.079175770907930
 Root    406 :    55.248847967129090
 Root    407 :    55.314700809735970
 Root    408 :    55.328972720831660
 Root    409 :    55.557682862477480
 Root    410 :    55.647199022058580
 Root    411 :    55.712990016230050
 Root    412 :    55.769026924111710
 Root    413 :    56.043930012876990
 Root    414 :    56.061030011704850
 Root    415 :    56.286100106989540
 Root    416 :    56.713094505170250
 Root    417 :    56.760256502813790
 Root    418 :    57.182441485758030
 Root    419 :    57.409463913807140
 Root    420 :    57.899111386122470
 Root    421 :    57.976817320603370
 Root    422 :    57.999999677492160
 Root    423 :    58.142173978616340
 Root    424 :    58.243746484989510
 Root    425 :    58.388584155827240
 Root    426 :    58.395921070317270
 Root    427 :    58.429073668803210
 Root    428 :    58.462439483949450
 Root    429 :    58.500554690380790
 Root    430 :    58.636392903978080
 Root    431 :    58.765505128342100
 Root    432 :    58.909597298412810
 Root    433 :    59.203395513399020
 Root    434 :    59.232108293290270
 Root    435 :    59.465788743118230
 Root    436 :    59.561374749455960
 Root    437 :    59.720447812634720
 Root    438 :    59.842815827692410
 Root    439 :    60.020644027599370
 Root    440 :    60.183652393428620
 Root    441 :    60.284607211878190
 Root    442 :    60.320291924500280
 Root    443 :    60.920654953629970
 Root    444 :    61.140726629656040
 Root    445 :    61.596682250881610
 Root    446 :    61.847587246718990
 Root    447 :    61.914898012839350
 Root    448 :    61.947067250432060
 Root    449 :    62.041181898958020
 Root    450 :    62.292893830840780
 Root    451 :    62.402353725182270
 Root    452 :    62.460432204604390
 Root    453 :    62.491911127765680
 Root    454 :    62.598854654696550
 Root    455 :    63.035626612865830
 Root    456 :    63.104307172105070
 Root    457 :    63.235386048597250
 Root    458 :    63.256658251218780
 Root    459 :    63.494412178246610
 Root    460 :    63.513804906126020
 Root    461 :    64.014969657480310
 Root    462 :    64.114578611067440
 Root    463 :    64.129339630693650
 Root    464 :    64.195867899324740
 Root    465 :    64.271403773961640
 Root    466 :    65.277934312763750
 Root    467 :    65.464125840146280
 Root    468 :    65.492861756525800
 Root    469 :    65.661279259015630
 Root    470 :    65.794910905976540
 Root    471 :    65.835020157023960
 Root    472 :    66.060250837621240
 Root    473 :    66.345999329376510
 Root    474 :    66.378750207491790
 Root    475 :    66.584805035667150
 Root    476 :    66.772397921464400
 Root    477 :    66.781495401263070
 Root    478 :    66.797454233410720
 Root    479 :    67.040419655916470
 Root    480 :    67.467844448105990
 Root    481 :    67.529912483058890
 Root    482 :    67.717591821841280
 Root    483 :    68.251830769722530
 Root    484 :    68.740078771836590
 Root    485 :    68.876617151523690
 Root    486 :    68.922058860945270
 Root    487 :    69.083113422819980
 Root    488 :    69.124449259147530
 Root    489 :    69.184672921034150
 Root    490 :    69.210785095710550
 Root    491 :    69.216155511559010
 Root    492 :    69.769811089699890
 Root    493 :    69.826938837381330
 Root    494 :    69.877799631363260
 Root    495 :    70.057159244517450
 Root    496 :    70.333075234110590
 Root    497 :    70.573850482473830
 Root    498 :    70.833429882264920
 Root    499 :    70.919548208359020
 Root    500 :    71.033155451612430
 Root    501 :    71.433146912555490
 Root    502 :    71.764183612934450
 Root    503 :    71.805893304255180
 Root    504 :    71.826471410922990
 Root    505 :    71.995278741969560
 Root    506 :    72.114146953584950
 Root    507 :    72.172308491518920
 Root    508 :    72.598895706618690
 Root    509 :    72.837610578397620
 Root    510 :    73.015143782639360
 Root    511 :    73.353229035060350
 Root    512 :    73.373318241908900
 Root    513 :    73.398214411668380
 Root    514 :    73.502253198166360
 Root    515 :    73.717070001001970
 Root    516 :    73.817584076892100
 Root    517 :    73.849790999503820
 Root    518 :    73.905023535322140
 Root    519 :    74.177634891412790
 Root    520 :    74.678968332689920
 Root    521 :    74.704016841059530
 Root    522 :    74.790257374879220
 Root    523 :    75.136687010086250
 Root    524 :    75.176396465265670
 Root    525 :    75.256035550344480
 Root    526 :    75.300602142776330
 Root    527 :    75.390401973030070
 Root    528 :    75.451861584500550
 Root    529 :    75.521495880822290
 Root    530 :    75.857226365301160
 Root    531 :    75.972811236018230
 Root    532 :    76.049092521360360
 Root    533 :    77.031976283173180
 Root    534 :    77.325735339772510
 Root    535 :    77.365949084107700
 Root    536 :    77.478445604861210
 Root    537 :    77.923353128993300
 Root    538 :    77.941216843121920
 Root    539 :    78.481615530001080
 Root    540 :    78.952621175647820
 Root    541 :    78.963540738274120
 Root    542 :    79.117375770220040
 Root    543 :    79.315972198148880
 Root    544 :    79.452566649393720
 Root    545 :    79.771932250854690
 Root    546 :    79.938922268718570
 Root    547 :    81.016825672933440
 Root    548 :    81.089692939673610
 Root    549 :    81.867690530212290
 Root    550 :    83.076422021248600
 Root    551 :    83.765736758284160
 Root    552 :    84.604923012019000
 Root    553 :    84.826492603654940
 Root    554 :    85.436680827739550
 Root    555 :    85.917157164693010
 Root    556 :    86.153397236729350
 Root    557 :    86.477418734653650
 Root    558 :    86.785965011369680
 Root    559 :    87.288950317376730
 Root    560 :    87.328527650301640
 Root    561 :    87.775439390879410
 Root    562 :    87.825851190057250
 Root    563 :    87.954035028848050
 Root    564 :    88.320260912108610
 Root    565 :    88.487123258121540
 Root    566 :    90.184761035247150
 Root    567 :    90.519461386392140
 Root    568 :    90.718016444693110
 Root    569 :    90.868889473678550
 Root    570 :    90.980286286532930
 Root    571 :    91.109491081463520
 Root    572 :    91.302727130706320
 Root    573 :    91.705966639228290
 Root    574 :    92.824080864975060
 Root    575 :    92.929317588936750
 Root    576 :    94.239735657115600
 Root    577 :    94.284946157810180
 Root    578 :    94.323992151769790
 Root    579 :    94.338447187497370
 Root    580 :    94.405411732268890
 Root    581 :    94.747334207093420
 Root    582 :    95.186513309747530
 Root    583 :    96.134467006553850
 Root    584 :    96.236694974699090
 Root    585 :    97.754811794266440
 Root    586 :    97.772038982887070
 Root    587 :    98.319819798109090
 Root    588 :    98.353026109699800
 Root    589 :    98.541826190861540
 Root    590 :    98.632724171908390
 Root    591 :    98.642579012412370
 Root    592 :    99.446395489762640
 Root    593 :    99.630772214312000
 Root    594 :    99.760085699904250
 Root    595 :   100.707231093288200
 Root    596 :   100.820321403890100
 Root    597 :   100.922884243617800
 Root    598 :   101.029731279034400
 Root    599 :   101.105005657523700
 Root    600 :   101.550975173981800
 Root    601 :   101.569227134671900
 Root    602 :   101.582147677523500
 Root    603 :   101.851866400489200
 Root    604 :   101.872724431941000
 Root    605 :   102.076467959833100
 Root    606 :   102.576979666128800
 Root    607 :   102.805789975408400
 Root    608 :   102.826155350409300
 Root    609 :   102.983107223715900
 Root    610 :   103.596149787718800
 Root    611 :   104.107153151460200
 Root    612 :   104.318224805082500
 Root    613 :   104.374252423256900
 Root    614 :   104.389304819849900
 Root    615 :   104.522098441341900
 Root    616 :   104.990754596852700
 Root    617 :   105.172958094254400
 Root    618 :   105.184306620550200
 Root    619 :   105.334642038720900
 Root    620 :   105.347488791474900
 Root    621 :   105.609918283436800
 Root    622 :   105.689533851889400
 Root    623 :   105.963441942116700
 Root    624 :   106.143817808894200
 Root    625 :   106.227004429952200
 Root    626 :   106.452166130924300
 Root    627 :   106.727382505498000
 Root    628 :   106.819376890042900
 Root    629 :   106.979535991893200
 Root    630 :   107.589002441641300
 Root    631 :   107.955900469012800
 Root    632 :   108.021979011941800
 Root    633 :   108.136305080033800
 Root    634 :   108.384264611945900
 Root    635 :   108.778376660824500
 Root    636 :   108.818017381353100
 Root    637 :   109.106626470821900
 Root    638 :   109.285951596318400
 Root    639 :   109.573867383066600
 Root    640 :   109.703923788721900
 Root    641 :   109.741478292509100
 Root    642 :   110.028093677139900
 Root    643 :   110.172713017151600
 Root    644 :   110.391692732125400
 Root    645 :   110.444145552711000
 Root    646 :   110.506247444160400
 Root    647 :   111.394060531810100
 Root    648 :   111.921375108436900
 Root    649 :   112.040224619315100
 Root    650 :   112.094983792896000
 Root    651 :   112.159487865710600
 Root    652 :   112.961747698959000
 Root    653 :   113.290867673651600
 Root    654 :   113.830284976384200
 Root    655 :   114.601561135335600
 Root    656 :   114.720099588286900
 Root    657 :   115.442961429351400
 Root    658 :   115.520533865408200
 Root    659 :   116.524051604293800
 Root    660 :   117.073640174885100
 Root    661 :   117.694709378315200
 Root    662 :   117.760804176207500
 Root    663 :   118.159783790734900
 Root    664 :   118.248706788497400
 Root    665 :   118.633327589559500
 Root    666 :   120.780631060353300
 Root    667 :   120.874105910543500
 Root    668 :   121.110700481633900
 Root    669 :   121.192750246764200
 Root    670 :   121.566849177804800
 Root    671 :   121.752661445422700
 Root    672 :   121.782257621656500
 Root    673 :   121.877740305102800
 Root    674 :   122.312696443795100
 Root    675 :   122.592886603163500
 Root    676 :   123.584967744934000
 Root    677 :   124.316452862776300
 Root    678 :   124.336976858903400
 Root    679 :   124.404022852172300
 Root    680 :   124.856113015483900
 Root    681 :   125.374251390551100
 Root    682 :   125.399063840425600
 Root    683 :   127.436802209803600
 Root    684 :   128.674565979841800
 Root    685 :   129.167080868569200
 Root    686 :   130.682739245078600
 Root    687 :   134.162033856206600
 Root    688 :   135.516168774983000
 Root    689 :   137.974433737918300
 Root    690 :   139.273657379139600
 Convergence achieved for final wavefunctions.
 ***********************************************************************
 Excited states from <AA,BB:AA,BB> singles matrix:
 ***********************************************************************
 
 1PDM for each excited state written to RWF  633
 Ground to excited state transition densities written to RWF  633
 Ground to excited state transition electric dipole moments (Au):
       state          X           Y           Z        Dip. S.      Osc.
         1        -0.3347      0.0000     -0.0000      0.1120      0.0269
         2         0.0000      0.0000     -0.0000      0.0000      0.0000
         3         0.2722      0.0000     -0.0000      0.0741      0.0201
         4        -0.0000      0.0000     -0.5126      0.2628      0.0741
         5        -0.0000      0.3091     -0.0000      0.0955      0.0272
         6         0.0000      0.0000      0.3328      0.1108      0.0323
         7         0.0000     -0.0000     -0.0000      0.0000      0.0000
         8        -0.0000     -0.0000     -0.1755      0.0308      0.0095
         9         0.7079     -0.0000     -0.0000      0.5011      0.1555
        10         0.0000      0.4415      0.0000      0.1949      0.0615
        11        -0.0441      0.0000      0.0000      0.0019      0.0006
        12         0.0000     -0.0000      0.6432      0.4137      0.1337
        13         0.0000      0.0000      0.0000      0.0000      0.0000
        14        -0.0000     -0.4470     -0.0000      0.1998      0.0652
        15         0.0000     -0.0000      0.0000      0.0000      0.0000
        16        -0.3654      0.0000     -0.0000      0.1335      0.0440
        17        -0.0000     -0.0000      0.0000      0.0000      0.0000
        18         0.0000      0.2904      0.0000      0.0843      0.0282
        19         0.0784      0.0000      0.0000      0.0061      0.0021
        20        -0.0000     -0.0000      0.4235      0.1793      0.0619
        21         0.0000     -0.0482     -0.0000      0.0023      0.0008
        22        -0.0000      0.0000      0.0681      0.0046      0.0016
        23         0.0000      0.3850     -0.0000      0.1482      0.0523
        24         0.0000      0.0000     -0.0000      0.0000      0.0000
        25         0.1710     -0.0000     -0.0000      0.0293      0.0107
        26         0.0000      0.6625     -0.0000      0.4389      0.1610
        27         0.0000      0.0000     -0.0000      0.0000      0.0000
        28        -0.0000      0.0000      0.2579      0.0665      0.0246
        29        -0.3200     -0.0000      0.0000      0.1024      0.0381
        30         0.0000     -0.0000     -0.0000      0.0000      0.0000
        31        -0.0000      0.3744      0.0000      0.1401      0.0530
        32         0.0012     -0.0000      0.0000      0.0000      0.0000
        33         0.0000      0.0000      0.0533      0.0028      0.0011
        34         0.0000      0.0000      0.0000      0.0000      0.0000
        35        -0.0000      0.0000     -0.4742      0.2248      0.0875
        36        -0.7773     -0.0000      0.0000      0.6041      0.2353
        37         0.0000     -0.2256     -0.0000      0.0509      0.0199
        38         0.0956     -0.0000      0.0000      0.0091      0.0036
        39         0.0000      0.0000      0.0000      0.0000      0.0000
        40         0.0000     -0.0000     -0.0129      0.0002      0.0001
        41         0.0000      0.4020      0.0000      0.1616      0.0643
        42        -0.0000      0.0721      0.0000      0.0052      0.0021
        43        -0.0000      0.0000      0.0634      0.0040      0.0016
        44        -0.2169      0.0000      0.0000      0.0470      0.0191
        45         0.0000      0.0000     -0.0000      0.0000      0.0000
        46        -0.0000      0.4001     -0.0000      0.1601      0.0651
        47         0.0000      0.0000      0.5660      0.3204      0.1310
        48         0.4271     -0.0000     -0.0000      0.1824      0.0757
        49         0.0000      0.0000      0.3879      0.1504      0.0629
        50         0.0000      0.2921     -0.0000      0.0853      0.0358
        51         0.0000      0.4739      0.0000      0.2246      0.0952
        52         0.0000      0.0000     -0.0858      0.0074      0.0031
        53         0.0000      0.0000      0.0000      0.0000      0.0000
        54        -0.1603      0.0000     -0.0000      0.0257      0.0109
        55        -0.2373     -0.0000     -0.0000      0.0563      0.0242
        56         0.0000     -0.3629      0.0000      0.1317      0.0568
        57         0.0000      0.0000     -0.0000      0.0000      0.0000
        58        -0.0000      0.0000      0.3909      0.1528      0.0664
        59         0.3577     -0.0000      0.0000      0.1279      0.0558
        60        -0.0000     -0.0000     -0.0283      0.0008      0.0003
        61         0.0000     -0.0000     -0.0000      0.0000      0.0000
        62        -0.0000     -0.2298      0.0000      0.0528      0.0235
        63        -0.0000      0.0000     -0.3174      0.1007      0.0452
        64         0.0000      0.0000      0.0000      0.0000      0.0000
        65         0.0000     -0.0000     -0.2852      0.0813      0.0372
        66        -0.0000     -0.3880      0.0000      0.1506      0.0689
        67         0.0000     -0.0000      0.0057      0.0000      0.0000
        68         0.2384      0.0000      0.0000      0.0568      0.0261
        69        -0.2963      0.0000     -0.0000      0.0878      0.0409
        70        -0.0000      0.0000      0.0000      0.0000      0.0000
        71        -0.0000      0.5724     -0.0000      0.3277      0.1534
        72        -0.0000     -0.0000     -0.0000      0.0000      0.0000
        73        -0.0624      0.0000      0.0000      0.0039      0.0018
        74         0.0000      0.0000      0.1124      0.0126      0.0059
        75         0.0000      0.0000     -0.4539      0.2060      0.0985
        76         0.2146     -0.0000     -0.0000      0.0460      0.0221
        77        -0.0000     -0.0000     -0.0000      0.0000      0.0000
        78         0.0000      0.0000      0.5441      0.2960      0.1425
        79         0.0000      0.0830     -0.0000      0.0069      0.0033
        80         0.0000     -0.0000      0.0000      0.0000      0.0000
        81        -0.0000      0.3123      0.0000      0.0976      0.0471
        82         0.0000     -0.0000      0.0361      0.0013      0.0006
        83         0.4109      0.0000      0.0000      0.1689      0.0820
        84         0.0000     -0.3492      0.0000      0.1220      0.0595
        85         0.1169      0.0000      0.0000      0.0137      0.0067
        86         0.1012     -0.0000      0.0000      0.0102      0.0050
        87        -0.0000      0.0000      0.0647      0.0042      0.0020
[...]
     13   0.000000D+00  0.000000D+00 -0.715582D+00  0.000000D+00  0.000000D+00
     14   0.000000D+00  0.000000D+00  0.000000D+00  0.338490D+00  0.000000D+00
     15   0.000000D+00  0.000000D+00  0.000000D+00  0.000000D+00 -0.375732D+00
     16   0.124269D+01  0.150783D+01  0.000000D+00  0.000000D+00  0.000000D+00
               621           622           623           624           625 
      1  -0.234813D+03 -0.234810D+03 -0.234800D+03 -0.234794D+03 -0.234790D+03
      2   0.000000D+00  0.000000D+00  0.000000D+00  0.509024D-04  0.000000D+00
      3   0.178306D+00  0.000000D+00  0.000000D+00  0.000000D+00  0.256133D+00
      4   0.000000D+00  0.000000D+00 -0.110827D+00  0.000000D+00  0.000000D+00
      5   0.000000D+00  0.000000D+00  0.000000D+00 -0.557381D-03  0.000000D+00
      6  -0.601302D+00  0.000000D+00  0.000000D+00  0.000000D+00 -0.872133D+00
      7   0.000000D+00  0.000000D+00  0.388808D+00  0.000000D+00  0.000000D+00
      8  -0.615883D+00  0.000000D+00  0.000000D+00  0.000000D+00 -0.187218D+01
      9   0.000000D+00  0.000000D+00  0.000000D+00  0.216001D-01  0.000000D+00
     10   0.000000D+00  0.172370D+00  0.000000D+00  0.000000D+00  0.000000D+00
     11   0.000000D+00  0.000000D+00 -0.280453D-01  0.000000D+00  0.000000D+00
     12   0.000000D+00  0.000000D+00 -0.437874D+00  0.000000D+00  0.000000D+00
     13   0.000000D+00  0.000000D+00 -0.568031D+00  0.000000D+00  0.000000D+00
     14   0.000000D+00  0.153452D-01  0.000000D+00  0.000000D+00  0.000000D+00
     15   0.000000D+00  0.000000D+00  0.000000D+00  0.425596D-01  0.000000D+00
     16  -0.103209D+00  0.000000D+00  0.000000D+00  0.000000D+00 -0.101562D+01
               626           627           628           629           630 
      1  -0.234782D+03 -0.234772D+03 -0.234769D+03 -0.234763D+03 -0.234740D+03
      2  -0.302145D-01  0.213982D+00  0.000000D+00  0.000000D+00  0.000000D+00
      3   0.000000D+00  0.000000D+00  0.000000D+00  0.000000D+00  0.000000D+00
      4   0.000000D+00  0.000000D+00 -0.145642D+00  0.000000D+00  0.302155D+00
      5   0.925756D-01 -0.703568D+00  0.000000D+00  0.000000D+00  0.000000D+00
      6   0.000000D+00  0.000000D+00  0.000000D+00  0.000000D+00  0.000000D+00
      7   0.000000D+00  0.000000D+00  0.521165D+00  0.000000D+00 -0.101632D+01
      8   0.000000D+00  0.000000D+00  0.000000D+00  0.000000D+00  0.000000D+00
      9  -0.549106D-01  0.357461D+00  0.000000D+00  0.000000D+00  0.000000D+00
     10   0.000000D+00  0.000000D+00  0.000000D+00 -0.943082D+00  0.000000D+00
     11   0.000000D+00  0.000000D+00 -0.575041D-01  0.000000D+00  0.914063D-01
     12   0.000000D+00  0.000000D+00 -0.272964D+01  0.000000D+00 -0.384422D+01
     13   0.000000D+00  0.000000D+00 -0.684800D+00  0.000000D+00  0.990012D+00
     14   0.000000D+00  0.000000D+00  0.000000D+00  0.808088D+00  0.000000D+00
     15  -0.169525D+00  0.209994D+00  0.000000D+00  0.000000D+00  0.000000D+00
     16   0.000000D+00  0.000000D+00  0.000000D+00  0.000000D+00  0.000000D+00
               631           632           633           634           635 
      1  -0.234727D+03 -0.234724D+03 -0.234720D+03 -0.234711D+03 -0.234697D+03
      2   0.000000D+00 -0.177718D+00  0.000000D+00  0.000000D+00  0.000000D+00
      3   0.000000D+00  0.000000D+00 -0.170761D-01  0.000000D+00  0.743199D-01
      4  -0.131946D+00  0.000000D+00  0.000000D+00  0.000000D+00  0.000000D+00
      5   0.000000D+00  0.627729D+00  0.000000D+00  0.000000D+00  0.000000D+00
      6   0.000000D+00  0.000000D+00  0.684639D-01  0.000000D+00 -0.275288D+00
      7   0.464620D+00  0.000000D+00  0.000000D+00  0.000000D+00  0.000000D+00
      8   0.000000D+00  0.000000D+00 -0.114041D+00  0.000000D+00  0.132097D+01
      9   0.000000D+00 -0.405989D+00  0.000000D+00  0.000000D+00  0.000000D+00
     10   0.000000D+00  0.000000D+00  0.000000D+00 -0.214432D+01  0.000000D+00
     11   0.839853D-01  0.000000D+00  0.000000D+00  0.000000D+00  0.000000D+00
     12   0.228299D+01  0.000000D+00  0.000000D+00  0.000000D+00  0.000000D+00
     13  -0.568642D+00  0.000000D+00  0.000000D+00  0.000000D+00  0.000000D+00
     14   0.000000D+00  0.000000D+00  0.000000D+00  0.236046D+01  0.000000D+00
     15   0.000000D+00 -0.301096D+00  0.000000D+00  0.000000D+00  0.000000D+00
     16   0.000000D+00  0.000000D+00 -0.362294D+00  0.000000D+00  0.190829D+01
               636           637           638           639           640 
      1  -0.234695D+03 -0.234685D+03 -0.234678D+03 -0.234667D+03 -0.234663D+03
      2   0.000000D+00  0.000000D+00  0.000000D+00  0.000000D+00  0.000000D+00
      3   0.000000D+00 -0.317989D+00  0.000000D+00  0.000000D+00 -0.941498D-01
      4   0.000000D+00  0.000000D+00  0.000000D+00  0.347951D+00  0.000000D+00
      5   0.000000D+00  0.000000D+00  0.000000D+00  0.000000D+00  0.000000D+00
      6   0.000000D+00  0.113598D+01  0.000000D+00  0.000000D+00  0.317038D+00
      7   0.000000D+00  0.000000D+00  0.000000D+00 -0.123639D+01  0.000000D+00
      8   0.000000D+00  0.170814D+01  0.000000D+00  0.000000D+00  0.912928D+00
      9   0.000000D+00  0.000000D+00  0.000000D+00  0.000000D+00  0.000000D+00
     10   0.260433D+01  0.000000D+00 -0.251767D+00  0.000000D+00  0.000000D+00
     11   0.000000D+00  0.000000D+00  0.000000D+00  0.184737D-01  0.000000D+00
     12   0.000000D+00  0.000000D+00  0.000000D+00  0.725835D+00  0.000000D+00
     13   0.000000D+00  0.000000D+00  0.000000D+00  0.164943D+01  0.000000D+00
     14  -0.280066D+01  0.000000D+00  0.114595D+00  0.000000D+00  0.000000D+00
     15   0.000000D+00  0.000000D+00  0.000000D+00  0.000000D+00  0.000000D+00
     16   0.000000D+00  0.433762D+00  0.000000D+00  0.000000D+00  0.583759D+00
               641           642           643           644           645 
      1  -0.234661D+03 -0.234651D+03 -0.234645D+03 -0.234637D+03 -0.234635D+03
      2   0.000000D+00  0.243730D+00  0.000000D+00  0.000000D+00 -0.490099D-01
      3   0.000000D+00  0.000000D+00  0.000000D+00 -0.180635D+00  0.000000D+00
      4   0.207695D+00  0.000000D+00  0.000000D+00  0.000000D+00  0.000000D+00
      5   0.000000D+00 -0.831736D+00  0.000000D+00  0.000000D+00  0.194814D+00
      6   0.000000D+00  0.000000D+00  0.000000D+00  0.670275D+00  0.000000D+00
      7  -0.733046D+00  0.000000D+00  0.000000D+00  0.000000D+00  0.000000D+00
      8   0.000000D+00  0.000000D+00  0.000000D+00 -0.454024D+00  0.000000D+00
      9   0.000000D+00  0.510783D+00  0.000000D+00  0.000000D+00 -0.240910D+00
     10   0.000000D+00  0.000000D+00 -0.159782D+01  0.000000D+00  0.000000D+00
     11   0.121083D+00  0.000000D+00  0.000000D+00  0.000000D+00  0.000000D+00
     12   0.710024D+00  0.000000D+00  0.000000D+00  0.000000D+00  0.000000D+00
     13   0.481915D+00  0.000000D+00  0.000000D+00  0.000000D+00  0.000000D+00
     14   0.000000D+00  0.000000D+00  0.166497D+01  0.000000D+00  0.000000D+00
     15   0.000000D+00  0.774757D+00  0.000000D+00  0.000000D+00 -0.803562D-01
     16   0.000000D+00  0.000000D+00  0.000000D+00 -0.111482D+01  0.000000D+00
               646           647           648           649           650 
      1  -0.234633D+03 -0.234601D+03 -0.234581D+03 -0.234577D+03 -0.234575D+03
      2   0.000000D+00  0.000000D+00 -0.459031D-01  0.000000D+00  0.157761D-01
      3   0.000000D+00  0.000000D+00  0.000000D+00 -0.362055D-01  0.000000D+00
      4   0.977407D-02  0.000000D+00  0.000000D+00  0.000000D+00  0.000000D+00
      5   0.000000D+00  0.000000D+00  0.181575D+00  0.000000D+00 -0.747686D-01
      6   0.000000D+00  0.000000D+00  0.000000D+00  0.131979D+00  0.000000D+00
      7  -0.213551D-01  0.000000D+00  0.000000D+00  0.000000D+00  0.000000D+00
      8   0.000000D+00  0.000000D+00  0.000000D+00  0.469661D+00  0.000000D+00
      9   0.000000D+00  0.000000D+00 -0.117234D+00  0.000000D+00  0.206212D-01
     10   0.000000D+00  0.198421D+00  0.000000D+00  0.000000D+00  0.000000D+00
     11  -0.287775D+00  0.000000D+00  0.000000D+00  0.000000D+00  0.000000D+00
     12  -0.164866D+00  0.000000D+00  0.000000D+00  0.000000D+00  0.000000D+00
     13   0.200522D+00  0.000000D+00  0.000000D+00  0.000000D+00  0.000000D+00
     14   0.000000D+00  0.286083D-01  0.000000D+00  0.000000D+00  0.000000D+00
     15   0.000000D+00  0.000000D+00 -0.153954D+00  0.000000D+00 -0.411344D-01
     16   0.000000D+00  0.000000D+00  0.000000D+00  0.172542D+00  0.000000D+00
               651           652           653           654           655 
      1  -0.234572D+03 -0.234543D+03 -0.234531D+03 -0.234511D+03 -0.234483D+03
      2   0.000000D+00 -0.991067D-01 -0.514857D+00  0.000000D+00  0.000000D+00
      3   0.000000D+00  0.000000D+00  0.000000D+00  0.000000D+00  0.000000D+00
      4   0.691466D-03  0.000000D+00  0.000000D+00  0.000000D+00 -0.201507D+00
      5   0.000000D+00  0.382462D+00  0.187454D+01  0.000000D+00  0.000000D+00
      6   0.000000D+00  0.000000D+00  0.000000D+00  0.000000D+00  0.000000D+00
      7  -0.400316D-02  0.000000D+00  0.000000D+00  0.000000D+00  0.715846D+00
      8   0.000000D+00  0.000000D+00  0.000000D+00  0.000000D+00  0.000000D+00
      9   0.000000D+00 -0.371990D+00 -0.792874D+00  0.000000D+00  0.000000D+00
     10   0.000000D+00  0.000000D+00  0.000000D+00 -0.190093D+01  0.000000D+00
     11  -0.872708D-01  0.000000D+00  0.000000D+00  0.000000D+00 -0.297181D-01
     12  -0.143825D+01  0.000000D+00  0.000000D+00  0.000000D+00  0.591056D+01
     13   0.378408D+00  0.000000D+00  0.000000D+00  0.000000D+00 -0.103826D+01
     14   0.000000D+00  0.000000D+00  0.000000D+00  0.190009D+01  0.000000D+00
     15   0.000000D+00 -0.300689D+00 -0.112082D+01  0.000000D+00  0.000000D+00
     16   0.000000D+00  0.000000D+00  0.000000D+00  0.000000D+00  0.000000D+00
               656           657           658           659           660 
      1  -0.234478D+03 -0.234452D+03 -0.234449D+03 -0.234412D+03 -0.234392D+03
      2   0.000000D+00  0.000000D+00  0.000000D+00  0.000000D+00  0.391109D+00
      3  -0.204553D+00  0.000000D+00  0.000000D+00  0.000000D+00  0.000000D+00
      4   0.000000D+00  0.000000D+00  0.000000D+00  0.577057D-01  0.000000D+00
      5   0.000000D+00  0.000000D+00  0.000000D+00  0.000000D+00 -0.148377D+01
      6   0.745921D+00  0.000000D+00  0.000000D+00  0.000000D+00  0.000000D+00
      7   0.000000D+00  0.000000D+00  0.000000D+00 -0.268030D+00  0.000000D+00
      8   0.403534D+01  0.000000D+00  0.000000D+00  0.000000D+00  0.000000D+00
      9   0.000000D+00  0.000000D+00  0.000000D+00  0.000000D+00  0.873158D+00
     10   0.000000D+00 -0.790516D+00  0.372065D+01  0.000000D+00  0.000000D+00
     11   0.000000D+00  0.000000D+00  0.000000D+00 -0.716990D-01  0.000000D+00
     12   0.000000D+00  0.000000D+00  0.000000D+00  0.289285D+01  0.000000D+00
     13   0.000000D+00  0.000000D+00  0.000000D+00  0.245987D+00  0.000000D+00
     14   0.000000D+00  0.937424D+00 -0.412196D+01  0.000000D+00  0.000000D+00
     15   0.000000D+00  0.000000D+00  0.000000D+00  0.000000D+00  0.108516D+01
     16   0.332683D+01  0.000000D+00  0.000000D+00  0.000000D+00  0.000000D+00
               661           662           663           664           665 
      1  -0.234369D+03 -0.234367D+03 -0.234352D+03 -0.234349D+03 -0.234335D+03
      2   0.000000D+00  0.000000D+00  0.000000D+00 -0.421147D-01  0.000000D+00
      3   0.290195D+00  0.000000D+00  0.000000D+00  0.000000D+00  0.372849D+00
      4   0.000000D+00  0.395157D+00  0.143492D+00  0.000000D+00  0.000000D+00
      5   0.000000D+00  0.000000D+00  0.000000D+00  0.156772D+00  0.000000D+00
      6  -0.111552D+01  0.000000D+00  0.000000D+00  0.000000D+00 -0.150905D+01
      7   0.000000D+00 -0.153612D+01 -0.554622D+00  0.000000D+00  0.000000D+00
      8  -0.136785D+01  0.000000D+00  0.000000D+00  0.000000D+00  0.677334D+00
      9   0.000000D+00  0.000000D+00  0.000000D+00  0.434869D-01  0.000000D+00
     10   0.000000D+00  0.000000D+00  0.000000D+00  0.000000D+00  0.000000D+00
     11   0.000000D+00 -0.795334D-01 -0.433664D-01  0.000000D+00  0.000000D+00
     12   0.000000D+00 -0.212353D+01  0.125661D+01  0.000000D+00  0.000000D+00
     13   0.000000D+00  0.210053D+01  0.849237D+00  0.000000D+00  0.000000D+00
     14   0.000000D+00  0.000000D+00  0.000000D+00  0.000000D+00  0.000000D+00
     15   0.000000D+00  0.000000D+00  0.000000D+00  0.972449D-01  0.000000D+00
     16  -0.530850D+00  0.000000D+00  0.000000D+00  0.000000D+00  0.244157D+01
               666           667           668           669           670 
      1  -0.234256D+03 -0.234252D+03 -0.234243D+03 -0.234240D+03 -0.234227D+03
      2   0.000000D+00  0.000000D+00  0.122579D-02  0.000000D+00  0.000000D+00
      3   0.000000D+00  0.000000D+00  0.000000D+00  0.167730D+00  0.000000D+00
      4   0.000000D+00 -0.841556D-01  0.000000D+00  0.000000D+00 -0.157927D-01
      5   0.000000D+00  0.000000D+00 -0.945079D-02  0.000000D+00  0.000000D+00
      6   0.000000D+00  0.000000D+00  0.000000D+00 -0.713335D+00  0.000000D+00
      7   0.000000D+00  0.316731D+00  0.000000D+00  0.000000D+00  0.426674D-01
      8   0.000000D+00  0.000000D+00  0.000000D+00  0.180603D+01  0.000000D+00
      9   0.000000D+00  0.000000D+00  0.253389D-01  0.000000D+00  0.000000D+00
     10  -0.982874D+00  0.000000D+00  0.000000D+00  0.000000D+00  0.000000D+00
     11   0.000000D+00  0.556258D+00  0.000000D+00  0.000000D+00 -0.795792D+00
     12   0.000000D+00  0.160521D+00  0.000000D+00  0.000000D+00  0.185871D+01
     13   0.000000D+00 -0.208972D+00  0.000000D+00  0.000000D+00  0.735443D+00
     14   0.120294D+01  0.000000D+00  0.000000D+00  0.000000D+00  0.000000D+00
     15   0.000000D+00  0.000000D+00  0.751203D+00  0.000000D+00  0.000000D+00
     16   0.000000D+00  0.000000D+00  0.000000D+00  0.244084D+01  0.000000D+00
               671           672           673           674           675 
      1  -0.234220D+03 -0.234219D+03 -0.234215D+03 -0.234199D+03 -0.234189D+03
      2   0.000000D+00  0.000000D+00  0.000000D+00  0.000000D+00  0.000000D+00
      3   0.000000D+00  0.000000D+00  0.362978D-03  0.000000D+00 -0.711779D-01
      4   0.000000D+00  0.229530D+00  0.000000D+00 -0.489368D-01  0.000000D+00
      5   0.000000D+00  0.000000D+00  0.000000D+00  0.000000D+00  0.000000D+00
      6   0.000000D+00  0.000000D+00 -0.722376D-02  0.000000D+00  0.269069D+00
      7   0.000000D+00 -0.958571D+00  0.000000D+00  0.285940D+00  0.000000D+00
      8   0.000000D+00  0.000000D+00  0.155138D+00  0.000000D+00  0.786226D+00
      9   0.000000D+00  0.000000D+00  0.000000D+00  0.000000D+00  0.000000D+00
     10   0.124803D+00  0.000000D+00  0.000000D+00  0.000000D+00  0.000000D+00
     11   0.000000D+00  0.958953D-01  0.000000D+00  0.223736D+00  0.000000D+00
     12   0.000000D+00  0.610613D+01  0.000000D+00 -0.297773D+01  0.000000D+00
     13   0.000000D+00  0.566875D+00  0.000000D+00 -0.921718D+00  0.000000D+00
     14  -0.694945D+00  0.000000D+00  0.000000D+00  0.000000D+00  0.000000D+00
     15   0.000000D+00  0.000000D+00  0.000000D+00  0.000000D+00  0.000000D+00
     16   0.000000D+00  0.000000D+00 -0.330931D+00  0.000000D+00  0.475257D+00
               676           677           678           679           680 
      1  -0.234153D+03 -0.234126D+03 -0.234125D+03 -0.234122D+03 -0.234106D+03
      2   0.000000D+00  0.000000D+00  0.000000D+00  0.787109D-01  0.000000D+00
      3   0.000000D+00  0.000000D+00  0.137278D-02  0.000000D+00  0.000000D+00
      4   0.000000D+00  0.000000D+00  0.000000D+00  0.000000D+00 -0.143048D-01
      5   0.000000D+00  0.000000D+00  0.000000D+00 -0.300128D+00  0.000000D+00
      6   0.000000D+00  0.000000D+00 -0.112588D-01  0.000000D+00  0.000000D+00
      7   0.000000D+00  0.000000D+00  0.000000D+00  0.000000D+00  0.598835D-01
      8   0.000000D+00  0.000000D+00  0.584930D-01  0.000000D+00  0.000000D+00
      9   0.000000D+00  0.000000D+00  0.000000D+00  0.111699D+00  0.000000D+00
     10   0.733214D+00  0.250837D+00  0.000000D+00  0.000000D+00  0.000000D+00
     11   0.000000D+00  0.000000D+00  0.000000D+00  0.000000D+00  0.389462D+00
     12   0.000000D+00  0.000000D+00  0.000000D+00  0.000000D+00 -0.255374D+00
     13   0.000000D+00  0.000000D+00  0.000000D+00  0.000000D+00 -0.269256D+00
     14  -0.241555D+00  0.142119D-01  0.000000D+00  0.000000D+00  0.000000D+00
     15   0.000000D+00  0.000000D+00  0.000000D+00 -0.420011D+00  0.000000D+00
     16   0.000000D+00  0.000000D+00  0.547275D-01  0.000000D+00  0.000000D+00
               681           682           683           684           685 
      1  -0.234087D+03 -0.234086D+03 -0.234011D+03 -0.233966D+03 -0.233947D+03
      2   0.829712D-01  0.000000D+00  0.101356D-01  0.000000D+00  0.000000D+00
      3   0.000000D+00 -0.838036D-01  0.000000D+00  0.000000D+00 -0.201907D-01
      4   0.000000D+00  0.000000D+00  0.000000D+00  0.000000D+00  0.000000D+00
      5  -0.326252D+00  0.000000D+00 -0.526814D-01  0.000000D+00  0.000000D+00
      6   0.000000D+00  0.455918D+00  0.000000D+00  0.000000D+00  0.904350D-01
      7   0.000000D+00  0.000000D+00  0.000000D+00  0.000000D+00  0.000000D+00
      8   0.000000D+00 -0.407684D+00  0.000000D+00  0.000000D+00  0.418147D+00
      9   0.195033D+00  0.000000D+00  0.493104D-01  0.000000D+00  0.000000D+00
     10   0.000000D+00  0.000000D+00  0.000000D+00  0.454956D+00  0.000000D+00
     11   0.000000D+00  0.000000D+00  0.000000D+00  0.000000D+00  0.000000D+00
     12   0.000000D+00  0.000000D+00  0.000000D+00  0.000000D+00  0.000000D+00
     13   0.000000D+00  0.000000D+00  0.000000D+00  0.000000D+00  0.000000D+00
     14   0.000000D+00  0.000000D+00  0.000000D+00 -0.216637D+00  0.000000D+00
     15   0.574483D-02  0.000000D+00 -0.112692D+00  0.000000D+00  0.000000D+00
     16   0.000000D+00 -0.184019D+01  0.000000D+00  0.000000D+00  0.121933D+00
               686           687           688           689           690 
      1  -0.233892D+03 -0.233764D+03 -0.233714D+03 -0.233624D+03 -0.233576D+03
      2   0.000000D+00  0.000000D+00  0.000000D+00  0.000000D+00  0.000000D+00
      3   0.000000D+00  0.456987D-01  0.000000D+00  0.000000D+00 -0.100911D-02
      4  -0.477600D-01  0.000000D+00 -0.193782D-01  0.177230D-01  0.000000D+00
      5   0.000000D+00  0.000000D+00  0.000000D+00  0.000000D+00  0.000000D+00
      6   0.000000D+00 -0.263544D+00  0.000000D+00  0.000000D+00  0.834440D-01
      7   0.196488D+00  0.000000D+00  0.160364D+00 -0.847298D-01  0.000000D+00
      8   0.000000D+00  0.224993D+00  0.000000D+00  0.000000D+00 -0.110736D+00
      9   0.000000D+00  0.000000D+00  0.000000D+00  0.000000D+00  0.000000D+00
     10   0.000000D+00  0.000000D+00  0.000000D+00  0.000000D+00  0.000000D+00
     11   0.442136D-01  0.000000D+00 -0.240646D+00  0.111940D+00  0.000000D+00
     12   0.412434D+00  0.000000D+00 -0.885097D+00  0.594359D-01  0.000000D+00
     13   0.935231D-01  0.000000D+00 -0.251737D+00 -0.124922D+00  0.000000D+00
     14   0.000000D+00  0.000000D+00  0.000000D+00  0.000000D+00  0.000000D+00
     15   0.000000D+00  0.000000D+00  0.000000D+00  0.000000D+00  0.000000D+00
     16   0.000000D+00  0.629709D-01  0.000000D+00  0.000000D+00 -0.145779D+00
 Unable to Open any file for archive entry.
 1\1\GINC-HEL12\SP\RLC-wHPBE TD-FC\Gen\C1H2F2\SABYASACHI\21-Mar-2022\0\
 \#P TD(Nstates=10000) lc-whpbe/Gen SCF(maxcycles=100) Int(Grid=ultrafi
 ne)\\xGDB7_00001_tier4.com\\0,1\F,0,0.,1.098813,-0.28912\C,0,0.,0.,0.4
 99944\F,0,0.,-1.098813,-0.28912\H,0,-0.911346,0.,1.102246\H,0,0.911346
 ,0.,1.102246\\Version=EM64L-G16RevC.01\State=1-A1\HF=-238.6942152\RMSD
 =5.578e-09\PG=C02V [C2(C1),SGV(F2),SGV'(H2)]\\@
 The archive entry for this job was punched.


 HICKORY, DICKORY, DOCK
 TWO MICE RAN UP THE CLOCK
 THE CLOCK STRUCK ONE...
 THE OTHER ESCAPED WITH MINOR INJURIES.
 Job cpu time:       0 days  0 hours  2 minutes  9.7 seconds.
 Elapsed time:       0 days  0 hours  0 minutes 16.5 seconds.
 File lengths (MBytes):  RWF=    605 Int=      0 D2E=      0 Chk=    119 Scr=      1
 Normal termination of Gaussian 16 at Mon Mar 21 20:06:31 2022.
