 Entering Gaussian System, Link 0=g16
 Input=000024.com
 Output=000024.log
 Initial command:
 /home/sabyasachi/g16/l1.exe "/scratch/sabyasachi/PBS_7976257.helios/Gau-110173.inp" -scrdir="/scratch/sabyasachi/PBS_7976257.helios/"
 Entering Link 1 = /home/sabyasachi/g16/l1.exe PID=    110174.
  
 Copyright (c) 1988-2019, Gaussian, Inc.  All Rights Reserved.
  
 This is part of the Gaussian(R) 16 program.  It is based on
 the Gaussian(R) 09 system (copyright 2009, Gaussian, Inc.),
 the Gaussian(R) 03 system (copyright 2003, Gaussian, Inc.),
 the Gaussian(R) 98 system (copyright 1998, Gaussian, Inc.),
 the Gaussian(R) 94 system (copyright 1995, Gaussian, Inc.),
 the Gaussian 92(TM) system (copyright 1992, Gaussian, Inc.),
 the Gaussian 90(TM) system (copyright 1990, Gaussian, Inc.),
 the Gaussian 88(TM) system (copyright 1988, Gaussian, Inc.),
 the Gaussian 86(TM) system (copyright 1986, Carnegie Mellon
 University), and the Gaussian 82(TM) system (copyright 1983,
 Carnegie Mellon University). Gaussian is a federally registered
 trademark of Gaussian, Inc.
  
 This software contains proprietary and confidential information,
 including trade secrets, belonging to Gaussian, Inc.
  
 This software is provided under written license and may be
 used, copied, transmitted, or stored only in accord with that
 written license.
  
 The following legend is applicable only to US Government
 contracts under FAR:
  
                    RESTRICTED RIGHTS LEGEND
  
 Use, reproduction and disclosure by the US Government is
 subject to restrictions as set forth in subparagraphs (a)
 and (c) of the Commercial Computer Software - Restricted
 Rights clause in FAR 52.227-19.
  
 Gaussian, Inc.
 340 Quinnipiac St., Bldg. 40, Wallingford CT 06492
  
  
 ---------------------------------------------------------------
 Warning -- This program may not be used in any manner that
 competes with the business of Gaussian, Inc. or will provide
 assistance to any competitor of Gaussian, Inc.  The licensee
 of this program is prohibited from giving any competitor of
 Gaussian, Inc. access to this program.  By using this program,
 the user acknowledges that Gaussian, Inc. is engaged in the
 business of creating and licensing software in the field of
 computational chemistry and represents and warrants to the
 licensee that it is not a competitor of Gaussian, Inc. and that
 it will not use this program in any manner prohibited above.
 ---------------------------------------------------------------
  

 Cite this work as:
 Gaussian 16, Revision C.01,
 M. J. Frisch, G. W. Trucks, H. B. Schlegel, G. E. Scuseria, 
 M. A. Robb, J. R. Cheeseman, G. Scalmani, V. Barone, 
 G. A. Petersson, H. Nakatsuji, X. Li, M. Caricato, A. V. Marenich, 
 J. Bloino, B. G. Janesko, R. Gomperts, B. Mennucci, H. P. Hratchian, 
 J. V. Ortiz, A. F. Izmaylov, J. L. Sonnenberg, D. Williams-Young, 
 F. Ding, F. Lipparini, F. Egidi, J. Goings, B. Peng, A. Petrone, 
 T. Henderson, D. Ranasinghe, V. G. Zakrzewski, J. Gao, N. Rega, 
 G. Zheng, W. Liang, M. Hada, M. Ehara, K. Toyota, R. Fukuda, 
 J. Hasegawa, M. Ishida, T. Nakajima, Y. Honda, O. Kitao, H. Nakai, 
 T. Vreven, K. Throssell, J. A. Montgomery, Jr., J. E. Peralta, 
 F. Ogliaro, M. J. Bearpark, J. J. Heyd, E. N. Brothers, K. N. Kudin, 
 V. N. Staroverov, T. A. Keith, R. Kobayashi, J. Normand, 
 K. Raghavachari, A. P. Rendell, J. C. Burant, S. S. Iyengar, 
 J. Tomasi, M. Cossi, J. M. Millam, M. Klene, C. Adamo, R. Cammi, 
 J. W. Ochterski, R. L. Martin, K. Morokuma, O. Farkas, 
 J. B. Foresman, and D. J. Fox, Gaussian, Inc., Wallingford CT, 2019.
 
 ******************************************
 Gaussian 16:  EM64L-G16RevC.01  3-Jul-2019
                21-Mar-2022 
 ******************************************
 %mem=64gb
 %nproc=8
 Will use up to    8 processors via shared memory.
 ----------------------------------------------------------------------
 #P TD(Nstates=10000) lc-whpbe/Gen SCF(maxcycles=100) Int(Grid=ultrafin
 e)
 ----------------------------------------------------------------------
 1/38=1,172=1/1;
 2/12=2,17=6,18=5,40=1/2;
 3/5=7,11=9,25=1,30=1,74=-71,75=-5/1,2,3,8;
 4//1;
 5/5=2,7=100,38=5/2;
 8/6=1,10=1,108=10000/1;
 9/41=10000,42=1,70=2/14;
 6/7=2,8=2,9=2,10=2/1;
 99/5=1,9=1/99;
 Leave Link    1 at Mon Mar 21 20:09:16 2022, MaxMem=  8589934592 cpu:               0.4 elap:               0.1
 (Enter /home/sabyasachi/g16/l101.exe)
 ---------------------
 xGDB7_00001_tier4.com
 ---------------------
 Symbolic Z-matrix:
 Charge =  0 Multiplicity = 1
 7                     1.11103  -0.17705  -0.05247 
 6                    -0.12201   0.41959   0.00177 
 7                    -1.26761  -0.12144   0.0081 
 1                     1.92056   0.3678    0.1801 
 1                     1.1807   -1.16562   0.11531 
 1                    -0.0657    1.50881   0.00405 
 1                    -1.2075   -1.13913   0.00048 
 
 ITRead=  0  0  0  0  0  0  0
 MicOpt= -1 -1 -1 -1 -1 -1 -1
 NAtoms=      7 NQM=        7 NQMF=       0 NMMI=      0 NMMIF=      0
                NMic=       0 NMicF=      0.
                    Isotopes and Nuclear Properties:
 (Nuclear quadrupole moments (NQMom) in fm**2, nuclear magnetic moments (NMagM)
  in nuclear magnetons)

  Atom         1           2           3           4           5           6           7
 IAtWgt=          14          12          14           1           1           1           1
 AtmWgt=  14.0030740  12.0000000  14.0030740   1.0078250   1.0078250   1.0078250   1.0078250
 NucSpn=           2           0           2           1           1           1           1
 AtZEff=  -0.0000000  -0.0000000  -0.0000000  -0.0000000  -0.0000000  -0.0000000  -0.0000000
 NQMom=    2.0440000   0.0000000   2.0440000   0.0000000   0.0000000   0.0000000   0.0000000
 NMagM=    0.4037610   0.0000000   0.4037610   2.7928460   2.7928460   2.7928460   2.7928460
 AtZNuc=   7.0000000   6.0000000   7.0000000   1.0000000   1.0000000   1.0000000   1.0000000
 Leave Link  101 at Mon Mar 21 20:09:16 2022, MaxMem=  8589934592 cpu:               0.6 elap:               0.1
 (Enter /home/sabyasachi/g16/l202.exe)
                          Input orientation:                          
 ---------------------------------------------------------------------
 Center     Atomic      Atomic             Coordinates (Angstroms)
 Number     Number       Type             X           Y           Z
 ---------------------------------------------------------------------
      1          7           0        1.111035   -0.177046   -0.052467
      2          6           0       -0.122009    0.419593    0.001774
      3          7           0       -1.267607   -0.121443    0.008098
      4          1           0        1.920558    0.367802    0.180104
      5          1           0        1.180700   -1.165617    0.115308
      6          1           0       -0.065701    1.508813    0.004046
      7          1           0       -1.207497   -1.139126    0.000481
 ---------------------------------------------------------------------
                    Distance matrix (angstroms):
                    1          2          3          4          5
     1  N    0.000000
     2  C    1.370882   0.000000
     3  N    2.380063   1.266947   0.000000
     4  H    1.003133   2.050991   3.230069   0.000000
     5  H    1.005124   2.054953   2.663832   1.703808   0.000000
     6  H    2.056702   1.090677   2.025421   2.297418   2.952706
     7  H    2.510775   1.899445   1.019485   3.476755   2.391103
                    6          7
     6  H    0.000000
     7  H    2.883625   0.000000
 Stoichiometry    CH4N2
 Framework group  C1[X(CH4N2)]
 Deg. of freedom    15
 Full point group                 C1      NOp   1
 Largest Abelian subgroup         C1      NOp   1
 Largest concise Abelian subgroup C1      NOp   1
                         Standard orientation:                         
 ---------------------------------------------------------------------
 Center     Atomic      Atomic             Coordinates (Angstroms)
 Number     Number       Type             X           Y           Z
 ---------------------------------------------------------------------
      1          7           0        1.111035   -0.177046   -0.052467
      2          6           0       -0.122009    0.419593    0.001774
      3          7           0       -1.267607   -0.121443    0.008098
      4          1           0        1.920558    0.367802    0.180104
      5          1           0        1.180700   -1.165617    0.115308
      6          1           0       -0.065701    1.508813    0.004046
      7          1           0       -1.207497   -1.139126    0.000481
 ---------------------------------------------------------------------
 Rotational constants (GHZ):          63.7190558          10.8501695           9.2980229
 Leave Link  202 at Mon Mar 21 20:09:16 2022, MaxMem=  8589934592 cpu:               0.1 elap:               0.0
 (Enter /home/sabyasachi/g16/l301.exe)
 General basis read from cards:  (5D, 7F)
 Centers:       4      5      6      7
 S 3 1.00
     Exponent=  1.3010701000D+01 Coefficients=  1.9682158000D-02
     Exponent=  1.9622572000D+00 Coefficients=  1.3796524000D-01
     Exponent=  4.4453796000D-01 Coefficients=  4.7831935000D-01
 S 1 1.00
     Exponent=  1.2194962000D-01 Coefficients=  1.0000000000D+00
 P 1 1.00
     Exponent=  8.0000000000D-01 Coefficients=  1.0000000000D+00
 P 1 1.00
     Exponent=  1.1704099050D-01 Coefficients=  1.0000000000D+00
 ****
 Centers:       2
 S 5 1.00
     Exponent=  1.2384016938D+03 Coefficients=  5.4568832082D-03
     Exponent=  1.8629004992D+02 Coefficients=  4.0638409211D-02
     Exponent=  4.2251176346D+01 Coefficients=  1.8025593888D-01
     Exponent=  1.1676557932D+01 Coefficients=  4.6315121755D-01
     Exponent=  3.5930506482D+00 Coefficients=  4.4087173314D-01
 S 1 1.00
     Exponent=  4.0245147363D-01 Coefficients=  1.0000000000D+00
 S 1 1.00
     Exponent=  1.3090182668D-01 Coefficients=  1.0000000000D+00
 S 1 1.00
     Exponent=  6.7053540256D-02 Coefficients=  1.0000000000D+00
 P 3 1.00
     Exponent=  9.4680970621D+00 Coefficients=  3.8387871728D-02
     Exponent=  2.0103545142D+00 Coefficients=  2.1117025112D-01
     Exponent=  5.4771004707D-01 Coefficients=  5.1328172114D-01
 P 1 1.00
     Exponent=  1.5268613795D-01 Coefficients=  1.0000000000D+00
 D 1 1.00
     Exponent=  8.0000000000D-01 Coefficients=  1.0000000000D+00
 D 1 1.00
     Exponent=  1.1713185140D-01 Coefficients=  1.0000000000D+00
 ****
 Centers:       1      3
 S 5 1.00
     Exponent=  1.7128415853D+03 Coefficients= -5.3934125305D-03
     Exponent=  2.5764812677D+02 Coefficients= -4.0221581118D-02
     Exponent=  5.8458245853D+01 Coefficients= -1.7931144990D-01
     Exponent=  1.6198367905D+01 Coefficients= -4.6376317823D-01
     Exponent=  5.0052600809D+00 Coefficients= -4.4171422662D-01
 S 1 1.00
     Exponent=  5.8731856571D-01 Coefficients=  1.0000000000D+00
 S 1 1.00
     Exponent=  1.8764592253D-01 Coefficients=  1.0000000000D+00
 S 1 1.00
     Exponent=  9.6171241529D-02 Coefficients=  1.0000000000D+00
 P 3 1.00
     Exponent=  1.3571470233D+01 Coefficients= -4.0072398852D-02
     Exponent=  2.9257372874D+00 Coefficients= -2.1807045028D-01
     Exponent=  7.9927750754D-01 Coefficients= -5.1294466049D-01
 P 1 1.00
     Exponent=  2.1954348034D-01 Coefficients=  1.0000000000D+00
 D 1 1.00
     Exponent=  1.0000000000D+00 Coefficients=  1.0000000000D+00
 D 1 1.00
     Exponent=  1.6697708112D-01 Coefficients=  1.0000000000D+00
 ****
 Ernie: Thresh=  0.10000D-02 Tol=  0.10000D-05 Strict=F.
 There are    98 symmetry adapted cartesian basis functions of A   symmetry.
 There are    92 symmetry adapted basis functions of A   symmetry.
    92 basis functions,   136 primitive gaussians,    98 cartesian basis functions
    12 alpha electrons       12 beta electrons
       nuclear repulsion energy        72.2566541207 Hartrees.
 IExCor=33909 DFT=T Ex+Corr=LC-wHPBE ExCW=0 ScaHFX=  1.000000
 ScaDFX=  1.000000  1.000000  1.000000  1.000000 ScalE2=  1.000000  1.000000
 IRadAn=      5 IRanWt=     -1 IRanGd=            0 ICorTp=0 IEmpDi=  4
 HFx  wShort=  0.000000 wLong=  0.400000 cFull=  0.000000 cShort=  0.000000 cLong=  1.000000
 DFx  wShort=  0.000000 wLong=  0.400000 cFull=  0.000000 cShort=  1.000000 cLong=  0.000000
 NAtoms=    7 NActive=    7 NUniq=    7 SFac= 1.00D+00 NAtFMM=   60 NAOKFM=F Big=F
 Integral buffers will be    131072 words long.
 Raffenetti 1 integral format.
 Two-electron integral symmetry is turned on.
 Leave Link  301 at Mon Mar 21 20:09:16 2022, MaxMem=  8589934592 cpu:               0.5 elap:               0.1
 (Enter /home/sabyasachi/g16/l302.exe)
 NPDir=0 NMtPBC=     1 NCelOv=     1 NCel=       1 NClECP=     1 NCelD=      1
         NCelK=      1 NCelE2=     1 NClLst=     1 CellRange=     0.0.
 One-electron integrals computed using PRISM.
 One-electron integral symmetry used in STVInt
 NBasis=    92 RedAO= T EigKep=  3.07D-04  NBF=    92
 NBsUse=    92 1.00D-06 EigRej= -1.00D+00 NBFU=    92
 Precomputing XC quadrature grid using
 IXCGrd= 4 IRadAn=           5 IRanWt=          -1 IRanGd=           0 AccXCQ= 0.00D+00.
 Generated NRdTot=       0 NPtTot=           0 NUsed=           0 NTot=          32
 NSgBfM=    98    98    98    98    98 MxSgAt=     7 MxSgA2=     7.
 Leave Link  302 at Mon Mar 21 20:09:17 2022, MaxMem=  8589934592 cpu:               1.0 elap:               0.1
 (Enter /home/sabyasachi/g16/l303.exe)
 DipDrv:  MaxL=1.
 Leave Link  303 at Mon Mar 21 20:09:17 2022, MaxMem=  8589934592 cpu:               0.2 elap:               0.0
 (Enter /home/sabyasachi/g16/l308.exe)
 Leave Link  308 at Mon Mar 21 20:09:17 2022, MaxMem=  8589934592 cpu:               0.2 elap:               0.1
 (Enter /home/sabyasachi/g16/l401.exe)
 ExpMin= 6.71D-02 ExpMax= 1.71D+03 ExpMxC= 2.58D+02 IAcc=3 IRadAn=         5 AccDes= 0.00D+00
 Harris functional with IExCor=33909 and IRadAn=       5 diagonalized for initial guess.
 HarFok:  IExCor=33909 AccDes= 0.00D+00 IRadAn=         5 IDoV= 1 UseB2=F ITyADJ=14
 ICtDFT=  3500011 ScaDFX=  1.000000  1.000000  1.000000  1.000000
 FoFCou: FMM=F IPFlag=           0 FMFlag=      100000 FMFlg1=           0
         NFxFlg=           0 DoJE=T BraDBF=F KetDBF=T FulRan=T
         wScrn=  0.000000 ICntrl=       500 IOpCl=  0 I1Cent=   200000004 NGrid=           0
         NMat0=    1 NMatS0=      1 NMatT0=    0 NMatD0=    1 NMtDS0=    0 NMtDT0=    0
 Petite list used in FoFCou.
 Harris En= -145.050946010834    
 JPrj=0 DoOrth=F DoCkMO=F.
 Leave Link  401 at Mon Mar 21 20:09:17 2022, MaxMem=  8589934592 cpu:               3.0 elap:               0.4
 (Enter /home/sabyasachi/g16/l502.exe)
 Keep R1 ints in memory in canonical form, NReq=26088976.
 FoFCou: FMM=F IPFlag=           0 FMFlag=           0 FMFlg1=           0
         NFxFlg=           0 DoJE=F BraDBF=F KetDBF=F FulRan=T
         wScrn=  0.000000 ICntrl=       600 IOpCl=  0 I1Cent=           0 NGrid=           0
         NMat0=    1 NMatS0=   4278 NMatT0=    0 NMatD0=    1 NMtDS0=    0 NMtDT0=    0
 Symmetry not used in FoFCou.
 Two-electron integral symmetry not used.
 Closed shell SCF:
 Using DIIS extrapolation, IDIIS=  1040.
 NGot=  8589934592 LenX=  8571607788 LenY=  8571597743
 Requested convergence on RMS density matrix=1.00D-08 within 100 cycles.
 Requested convergence on MAX density matrix=1.00D-06.
 Requested convergence on             energy=1.00D-06.
 No special actions if energy rises.
 Integral accuracy reduced to 1.0D-05 until final iterations.

 Cycle   1  Pass 0  IDiag  1:
 E= -149.773921924770    
 DIIS: error= 1.41D-02 at cycle   1 NSaved=   1.
 NSaved= 1 IEnMin= 1 EnMin= -149.773921924770     IErMin= 1 ErrMin= 1.41D-02
 ErrMax= 1.41D-02  0.00D+00 EMaxC= 1.00D-01 BMatC= 4.05D-02 BMatP= 4.05D-02
 IDIUse=3 WtCom= 8.59D-01 WtEn= 1.41D-01
 Coeff-Com:  0.100D+01
 Coeff-En:   0.100D+01
 Coeff:      0.100D+01
 Gap=     0.464 Goal=   None    Shift=    0.000
 GapD=    0.464 DampG=2.000 DampE=0.500 DampFc=1.0000 IDamp=-1.
 RMSDP=6.64D-03 MaxDP=2.31D-01              OVMax= 1.18D-01

 Cycle   2  Pass 0  IDiag  1:
 E= -149.784948831014     Delta-E=       -0.011026906243 Rises=F Damp=F
 DIIS: error= 1.28D-02 at cycle   2 NSaved=   2.
 NSaved= 2 IEnMin= 2 EnMin= -149.784948831014     IErMin= 2 ErrMin= 1.28D-02
 ErrMax= 1.28D-02  0.00D+00 EMaxC= 1.00D-01 BMatC= 3.27D-02 BMatP= 4.05D-02
 IDIUse=3 WtCom= 8.72D-01 WtEn= 1.28D-01
 Coeff-Com:  0.472D+00 0.528D+00
 Coeff-En:   0.396D+00 0.604D+00
 Coeff:      0.462D+00 0.538D+00
 Gap=     0.474 Goal=   None    Shift=    0.000
 RMSDP=5.55D-03 MaxDP=2.32D-01 DE=-1.10D-02 OVMax= 5.16D-02

 Cycle   3  Pass 0  IDiag  1:
 E= -149.811770879890     Delta-E=       -0.026822048876 Rises=F Damp=F
 DIIS: error= 2.20D-03 at cycle   3 NSaved=   3.
 NSaved= 3 IEnMin= 3 EnMin= -149.811770879890     IErMin= 3 ErrMin= 2.20D-03
 ErrMax= 2.20D-03  0.00D+00 EMaxC= 1.00D-01 BMatC= 8.53D-04 BMatP= 3.27D-02
 IDIUse=3 WtCom= 9.78D-01 WtEn= 2.20D-02
 Coeff-Com:  0.101D+00 0.178D+00 0.720D+00
 Coeff-En:   0.000D+00 0.000D+00 0.100D+01
 Coeff:      0.990D-01 0.174D+00 0.726D+00
 Gap=     0.457 Goal=   None    Shift=    0.000
 RMSDP=4.70D-04 MaxDP=1.00D-02 DE=-2.68D-02 OVMax= 1.71D-02

 Cycle   4  Pass 0  IDiag  1:
 E= -149.812560487010     Delta-E=       -0.000789607120 Rises=F Damp=F
 DIIS: error= 1.00D-03 at cycle   4 NSaved=   4.
 NSaved= 4 IEnMin= 4 EnMin= -149.812560487010     IErMin= 4 ErrMin= 1.00D-03
 ErrMax= 1.00D-03  0.00D+00 EMaxC= 1.00D-01 BMatC= 1.36D-04 BMatP= 8.53D-04
 IDIUse=3 WtCom= 9.90D-01 WtEn= 1.00D-02
 Coeff-Com: -0.371D-01-0.208D-01 0.268D+00 0.790D+00
 Coeff-En:   0.000D+00 0.000D+00 0.000D+00 0.100D+01
 Coeff:     -0.367D-01-0.206D-01 0.265D+00 0.792D+00
 Gap=     0.456 Goal=   None    Shift=    0.000
 RMSDP=4.37D-04 MaxDP=1.83D-02 DE=-7.90D-04 OVMax= 3.87D-03

 Cycle   5  Pass 0  IDiag  1:
 E= -149.812712151196     Delta-E=       -0.000151664186 Rises=F Damp=F
 DIIS: error= 1.90D-04 at cycle   5 NSaved=   5.
 NSaved= 5 IEnMin= 5 EnMin= -149.812712151196     IErMin= 5 ErrMin= 1.90D-04
 ErrMax= 1.90D-04  0.00D+00 EMaxC= 1.00D-01 BMatC= 5.79D-06 BMatP= 1.36D-04
 IDIUse=3 WtCom= 9.98D-01 WtEn= 1.90D-03
 Coeff-Com: -0.124D-01-0.154D-01 0.224D-02 0.133D+00 0.892D+00
 Coeff-En:   0.000D+00 0.000D+00 0.000D+00 0.000D+00 0.100D+01
 Coeff:     -0.124D-01-0.153D-01 0.223D-02 0.133D+00 0.892D+00
 Gap=     0.456 Goal=   None    Shift=    0.000
 RMSDP=1.31D-04 MaxDP=5.29D-03 DE=-1.52D-04 OVMax= 2.39D-03

 Cycle   6  Pass 0  IDiag  1:
 E= -149.812725360442     Delta-E=       -0.000013209246 Rises=F Damp=F
 DIIS: error= 7.58D-05 at cycle   6 NSaved=   6.
 NSaved= 6 IEnMin= 6 EnMin= -149.812725360442     IErMin= 6 ErrMin= 7.58D-05
 ErrMax= 7.58D-05  0.00D+00 EMaxC= 1.00D-01 BMatC= 1.48D-06 BMatP= 5.79D-06
 IDIUse=1 WtCom= 1.00D+00 WtEn= 0.00D+00
 Coeff-Com:  0.123D-02-0.273D-02-0.360D-01-0.913D-01 0.253D+00 0.875D+00
 Coeff:      0.123D-02-0.273D-02-0.360D-01-0.913D-01 0.253D+00 0.875D+00
 Gap=     0.456 Goal=   None    Shift=    0.000
 RMSDP=7.27D-05 MaxDP=2.88D-03 DE=-1.32D-05 OVMax= 1.08D-03

 Cycle   7  Pass 0  IDiag  1:
 E= -149.812728284310     Delta-E=       -0.000002923868 Rises=F Damp=F
 DIIS: error= 2.79D-05 at cycle   7 NSaved=   7.
 NSaved= 7 IEnMin= 7 EnMin= -149.812728284310     IErMin= 7 ErrMin= 2.79D-05
 ErrMax= 2.79D-05  0.00D+00 EMaxC= 1.00D-01 BMatC= 1.23D-07 BMatP= 1.48D-06
 IDIUse=1 WtCom= 1.00D+00 WtEn= 0.00D+00
 Coeff-Com:  0.145D-02 0.872D-03 0.167D-02-0.228D-01-0.726D-01 0.331D-01
 Coeff-Com:  0.106D+01
 Coeff:      0.145D-02 0.872D-03 0.167D-02-0.228D-01-0.726D-01 0.331D-01
 Coeff:      0.106D+01
 Gap=     0.456 Goal=   None    Shift=    0.000
 RMSDP=1.74D-05 MaxDP=5.38D-04 DE=-2.92D-06 OVMax= 4.14D-04

 Cycle   8  Pass 0  IDiag  1:
 E= -149.812728585315     Delta-E=       -0.000000301005 Rises=F Damp=F
 DIIS: error= 7.45D-06 at cycle   8 NSaved=   8.
 NSaved= 8 IEnMin= 8 EnMin= -149.812728585315     IErMin= 8 ErrMin= 7.45D-06
 ErrMax= 7.45D-06  0.00D+00 EMaxC= 1.00D-01 BMatC= 1.08D-08 BMatP= 1.23D-07
 IDIUse=1 WtCom= 1.00D+00 WtEn= 0.00D+00
 Coeff-Com: -0.690D-04 0.327D-04 0.405D-02 0.546D-02-0.228D-01-0.840D-01
 Coeff-Com:  0.138D-01 0.108D+01
 Coeff:     -0.690D-04 0.327D-04 0.405D-02 0.546D-02-0.228D-01-0.840D-01
 Coeff:      0.138D-01 0.108D+01
 Gap=     0.456 Goal=   None    Shift=    0.000
 RMSDP=4.66D-06 MaxDP=8.64D-05 DE=-3.01D-07 OVMax= 1.17D-04

 Initial convergence to 1.0D-05 achieved.  Increase integral accuracy.
 Cycle   9  Pass 1  IDiag  1:
 E= -149.812728975846     Delta-E=       -0.000000390530 Rises=F Damp=F
 DIIS: error= 1.06D-06 at cycle   1 NSaved=   1.
 NSaved= 1 IEnMin= 1 EnMin= -149.812728975846     IErMin= 1 ErrMin= 1.06D-06
 ErrMax= 1.06D-06  0.00D+00 EMaxC= 1.00D-01 BMatC= 2.18D-10 BMatP= 2.18D-10
 IDIUse=1 WtCom= 1.00D+00 WtEn= 0.00D+00
 Coeff-Com:  0.100D+01
 Coeff:      0.100D+01
 Gap=     0.456 Goal=   None    Shift=    0.000
 RMSDP=4.66D-06 MaxDP=8.64D-05 DE=-3.91D-07 OVMax= 9.05D-06

 Cycle  10  Pass 1  IDiag  1:
 E= -149.812728976253     Delta-E=       -0.000000000407 Rises=F Damp=F
 DIIS: error= 5.95D-07 at cycle   2 NSaved=   2.
 NSaved= 2 IEnMin= 2 EnMin= -149.812728976253     IErMin= 2 ErrMin= 5.95D-07
 ErrMax= 5.95D-07  0.00D+00 EMaxC= 1.00D-01 BMatC= 4.26D-11 BMatP= 2.18D-10
 IDIUse=1 WtCom= 1.00D+00 WtEn= 0.00D+00
 Coeff-Com:  0.178D+00 0.822D+00
 Coeff:      0.178D+00 0.822D+00
 Gap=     0.456 Goal=   None    Shift=    0.000
 RMSDP=3.65D-07 MaxDP=1.30D-05 DE=-4.07D-10 OVMax= 5.58D-06

 Cycle  11  Pass 1  IDiag  1:
 E= -149.812728976319     Delta-E=       -0.000000000067 Rises=F Damp=F
 DIIS: error= 3.90D-07 at cycle   3 NSaved=   3.
 NSaved= 3 IEnMin= 3 EnMin= -149.812728976319     IErMin= 3 ErrMin= 3.90D-07
 ErrMax= 3.90D-07  0.00D+00 EMaxC= 1.00D-01 BMatC= 2.55D-11 BMatP= 4.26D-11
 IDIUse=1 WtCom= 1.00D+00 WtEn= 0.00D+00
 Coeff-Com: -0.154D+00 0.384D+00 0.770D+00
 Coeff:     -0.154D+00 0.384D+00 0.770D+00
 Gap=     0.456 Goal=   None    Shift=    0.000
 RMSDP=1.33D-07 MaxDP=3.80D-06 DE=-6.68D-11 OVMax= 2.05D-06

 Cycle  12  Pass 1  IDiag  1:
 E= -149.812728976349     Delta-E=       -0.000000000029 Rises=F Damp=F
 DIIS: error= 1.21D-07 at cycle   4 NSaved=   4.
 NSaved= 4 IEnMin= 4 EnMin= -149.812728976349     IErMin= 4 ErrMin= 1.21D-07
 ErrMax= 1.21D-07  0.00D+00 EMaxC= 1.00D-01 BMatC= 1.08D-12 BMatP= 2.55D-11
 IDIUse=1 WtCom= 1.00D+00 WtEn= 0.00D+00
 Coeff-Com: -0.628D-01 0.148D-01 0.166D+00 0.882D+00
 Coeff:     -0.628D-01 0.148D-01 0.166D+00 0.882D+00
 Gap=     0.456 Goal=   None    Shift=    0.000
 RMSDP=4.61D-08 MaxDP=1.15D-06 DE=-2.92D-11 OVMax= 1.40D-06

 Cycle  13  Pass 1  IDiag  1:
 E= -149.812728976349     Delta-E=       -0.000000000000 Rises=F Damp=F
 DIIS: error= 3.60D-08 at cycle   5 NSaved=   5.
 NSaved= 5 IEnMin= 5 EnMin= -149.812728976349     IErMin= 5 ErrMin= 3.60D-08
 ErrMax= 3.60D-08  0.00D+00 EMaxC= 1.00D-01 BMatC= 2.83D-13 BMatP= 1.08D-12
 IDIUse=1 WtCom= 1.00D+00 WtEn= 0.00D+00
 Coeff-Com: -0.182D-02-0.349D-01-0.528D-01 0.298D+00 0.791D+00
 Coeff:     -0.182D-02-0.349D-01-0.528D-01 0.298D+00 0.791D+00
 Gap=     0.456 Goal=   None    Shift=    0.000
 RMSDP=1.92D-08 MaxDP=4.49D-07 DE=-2.27D-13 OVMax= 3.39D-07

 Cycle  14  Pass 1  IDiag  1:
 E= -149.812728976350     Delta-E=       -0.000000000001 Rises=F Damp=F
 DIIS: error= 1.24D-08 at cycle   6 NSaved=   6.
 NSaved= 6 IEnMin= 6 EnMin= -149.812728976350     IErMin= 6 ErrMin= 1.24D-08
 ErrMax= 1.24D-08  0.00D+00 EMaxC= 1.00D-01 BMatC= 2.52D-14 BMatP= 2.83D-13
 IDIUse=1 WtCom= 1.00D+00 WtEn= 0.00D+00
 Coeff-Com:  0.114D-01-0.103D-01-0.503D-01-0.781D-01 0.158D+00 0.969D+00
 Coeff:      0.114D-01-0.103D-01-0.503D-01-0.781D-01 0.158D+00 0.969D+00
 Gap=     0.456 Goal=   None    Shift=    0.000
 RMSDP=1.00D-08 MaxDP=3.34D-07 DE=-1.02D-12 OVMax= 2.02D-07

 Cycle  15  Pass 1  IDiag  1:
 E= -149.812728976352     Delta-E=       -0.000000000003 Rises=F Damp=F
 DIIS: error= 3.50D-09 at cycle   7 NSaved=   7.
 NSaved= 7 IEnMin= 7 EnMin= -149.812728976352     IErMin= 7 ErrMin= 3.50D-09
 ErrMax= 3.50D-09  0.00D+00 EMaxC= 1.00D-01 BMatC= 1.47D-15 BMatP= 2.52D-14
 IDIUse=1 WtCom= 1.00D+00 WtEn= 0.00D+00
 Coeff-Com: -0.114D-02 0.374D-02 0.891D-02-0.114D-01-0.914D-01-0.657D-01
 Coeff-Com:  0.116D+01
 Coeff:     -0.114D-02 0.374D-02 0.891D-02-0.114D-01-0.914D-01-0.657D-01
 Coeff:      0.116D+01
 Gap=     0.456 Goal=   None    Shift=    0.000
 RMSDP=2.44D-09 MaxDP=8.18D-08 DE=-2.56D-12 OVMax= 5.72D-08

 SCF Done:  E(RLC-wHPBE) =  -149.812728976     A.U. after   15 cycles
            NFock= 15  Conv=0.24D-08     -V/T= 2.0109
 KE= 1.481905373344D+02 PE=-4.931027943861D+02 EE= 1.228428739547D+02
 Leave Link  502 at Mon Mar 21 20:09:20 2022, MaxMem=  8589934592 cpu:              23.0 elap:               3.1
 (Enter /home/sabyasachi/g16/l801.exe)
 DoSCS=F DFT=T ScalE2(SS,OS)=  1.000000  1.000000
 ExpMin= 6.71D-02 ExpMax= 1.71D+03 ExpMxC= 2.58D+02 IAcc=3 IRadAn=         5 AccDes= 0.00D+00
 HarFok:  IExCor=  205 AccDes= 0.00D+00 IRadAn=         5 IDoV=-2 UseB2=F ITyADJ=14
 ICtDFT= 12500011 ScaDFX=  1.000000  1.000000  1.000000  1.000000
 Largest valence mixing into a core orbital is  6.27D-05
 Largest core mixing into a valence orbital is  1.08D-05
 Range of M.O.s used for correlation:     4    92
 NBasis=    92 NAE=    12 NBE=    12 NFC=     3 NFV=     0
 NROrb=     89 NOA=     9 NOB=     9 NVA=    80 NVB=    80

 **** Warning!!: The largest alpha MO coefficient is  0.19465430D+02

 Leave Link  801 at Mon Mar 21 20:09:20 2022, MaxMem=  8589934592 cpu:               0.5 elap:               0.1
 (Enter /home/sabyasachi/g16/l914.exe)
 RHF ground state
 Keep R1, R2, and R3 ints in memory in canonical form, NReq=629346192.
 FoFCou: FMM=F IPFlag=           0 FMFlag=           0 FMFlg1=           0
         NFxFlg=           0 DoJE=F BraDBF=F KetDBF=F FulRan=T
         wScrn=  0.000000 ICntrl=       600 IOpCl=  0 I1Cent=           0 NGrid=           0
         NMat0=    1 NMatS0=   4278 NMatT0=    0 NMatD0=    1 NMtDS0=    0 NMtDT0=    0
 Symmetry not used in FoFCou.
 Two-electron integral symmetry not used.
 MDV=  8589934592 DFT=T DoStab=F Mixed=T DoRPA=T DoScal=F NonHer=T
 Making orbital integer symmetry assigments:
 Orbital symmetries:
       Occupied  (A) (A) (A) (A) (A) (A) (A) (A) (A) (A) (A) (A)
       Virtual   (A) (A) (A) (A) (A) (A) (A) (A) (A) (A) (A) (A)
                 (A) (A) (A) (A) (A) (A) (A) (A) (A) (A) (A) (A)
                 (A) (A) (A) (A) (A) (A) (A) (A) (A) (A) (A) (A)
                 (A) (A) (A) (A) (A) (A) (A) (A) (A) (A) (A) (A)
                 (A) (A) (A) (A) (A) (A) (A) (A) (A) (A) (A) (A)
                 (A) (A) (A) (A) (A) (A) (A) (A) (A) (A) (A) (A)
                 (A) (A) (A) (A) (A) (A) (A) (A)
   720 initial guesses have been made.
 Convergence on wavefunction:    0.001000000000000
 Davidson Disk Diagonalization:  ConvIn= 1.00D-03 SkipCon=T Conv= 1.00D-03.
 Max sub-space:  4320 roots to seek:  1440 dimension of matrix:         1440
 *** WARNING: Number of orthogonal guesses is          720
 Iteration     1 Dimension   720 NMult     0 NNew    720
 CISAX will form   720 AO SS matrices at one time.
 NMat=   720 NSing=   720 JSym2X= 0.
 New state      1 was old state      5
 New state      2 was old state      1
 New state      5 was old state      2
 New state     11 was old state     24
 New state     12 was old state     20
 New state     13 was old state     15
 New state     14 was old state     12
 New state     15 was old state     11
 New state     16 was old state     14
 New state     17 was old state     21
 New state     18 was old state     19
 New state     19 was old state     16
 New state     20 was old state     17
 New state     21 was old state     18
 New state     22 was old state     23
 New state     23 was old state     26
 New state     24 was old state     22
 New state     25 was old state     36
 New state     26 was old state     28
 New state     28 was old state     25
 New state     31 was old state     45
 New state     32 was old state     31
 New state     34 was old state     35
 New state     35 was old state     32
 New state     36 was old state     34
 New state     37 was old state     41
 New state     38 was old state     44
 New state     39 was old state     38
 New state     40 was old state     55
 New state     41 was old state     42
 New state     42 was old state     37
 New state     43 was old state     40
 New state     44 was old state     39
 New state     45 was old state     43
 New state     46 was old state     47
 New state     47 was old state     49
 New state     48 was old state     51
 New state     49 was old state     46
 New state     50 was old state     52
 New state     51 was old state     50
 New state     52 was old state     53
 New state     53 was old state     48
 New state     54 was old state     57
 New state     55 was old state     56
 New state     56 was old state     58
 New state     57 was old state     65
 New state     58 was old state     60
 New state     59 was old state     61
 New state     60 was old state     68
 New state     61 was old state     59
 New state     62 was old state     54
 New state     63 was old state     71
 New state     64 was old state     67
 New state     65 was old state     64
 New state     66 was old state     63
 New state     67 was old state     69
 New state     68 was old state     66
 New state     69 was old state     72
 New state     70 was old state     74
 New state     71 was old state     62
 New state     72 was old state     83
 New state     73 was old state     70
 New state     74 was old state     76
 New state     75 was old state     73
 New state     76 was old state     84
 New state     77 was old state     78
 New state     78 was old state     79
 New state     79 was old state     98
 New state     80 was old state     77
 New state     81 was old state     75
 New state     82 was old state     96
 New state     83 was old state     90
 New state     84 was old state     82
 New state     85 was old state     80
 New state     86 was old state     93
 New state     87 was old state     91
 New state     88 was old state     95
 New state     89 was old state     86
 New state     90 was old state     92
 New state     91 was old state     97
 New state     92 was old state     89
 New state     93 was old state     99
 New state     94 was old state    105
 New state     95 was old state     87
 New state     96 was old state    100
 New state     97 was old state     85
 New state     98 was old state    107
 New state     99 was old state    103
 New state    100 was old state    102
 New state    101 was old state    111
 New state    102 was old state    101
 New state    103 was old state     94
 New state    104 was old state    108
 New state    105 was old state    106
 New state    106 was old state    109
 New state    107 was old state    110
 New state    108 was old state    104
 New state    109 was old state    115
 New state    110 was old state    116
 New state    111 was old state    113
 New state    112 was old state    117
 New state    113 was old state    130
 New state    114 was old state    112
 New state    115 was old state    122
 New state    116 was old state    121
 New state    117 was old state    125
 New state    119 was old state    124
 New state    121 was old state    114
 New state    122 was old state    119
 New state    123 was old state    129
 New state    124 was old state    126
 New state    125 was old state    123
 New state    126 was old state    128
 New state    127 was old state    131
 New state    128 was old state    127
 New state    129 was old state    141
 New state    130 was old state    132
 New state    131 was old state    135
 New state    132 was old state    133
 New state    133 was old state    139
 New state    134 was old state    137
 New state    135 was old state    134
 New state    137 was old state    138
 New state    138 was old state    144
 New state    139 was old state    145
 New state    141 was old state    146
 New state    142 was old state    149
 New state    144 was old state    169
 New state    145 was old state    153
 New state    146 was old state    159
 New state    147 was old state    173
 New state    148 was old state    142
 New state    149 was old state    155
 New state    150 was old state    147
 New state    151 was old state    148
 New state    152 was old state    157
 New state    153 was old state    150
 New state    154 was old state    163
 New state    155 was old state    156
 New state    156 was old state    165
 New state    157 was old state    152
 New state    158 was old state    162
 New state    159 was old state    161
 New state    160 was old state    181
 New state    161 was old state    154
 New state    162 was old state    166
 New state    163 was old state    151
 New state    164 was old state    167
 New state    165 was old state    160
 New state    166 was old state    158
 New state    167 was old state    168
 New state    168 was old state    172
 New state    169 was old state    164
 New state    170 was old state    178
 New state    172 was old state    174
 New state    173 was old state    170
 New state    174 was old state    182
 New state    175 was old state    176
 New state    176 was old state    177
 New state    177 was old state    179
 New state    178 was old state    184
 New state    179 was old state    175
 New state    180 was old state    187
 New state    181 was old state    185
 New state    182 was old state    183
 New state    183 was old state    188
 New state    184 was old state    189
 New state    185 was old state    204
 New state    186 was old state    180
 New state    187 was old state    190
 New state    188 was old state    191
 New state    189 was old state    193
 New state    190 was old state    186
 New state    191 was old state    208
 New state    193 was old state    197
 New state    194 was old state    206
 New state    195 was old state    201
 New state    196 was old state    202
 New state    197 was old state    199
 New state    198 was old state    205
 New state    199 was old state    215
 New state    200 was old state    195
 New state    201 was old state    194
 New state    202 was old state    210
 New state    203 was old state    196
 New state    204 was old state    198
 New state    205 was old state    209
 New state    206 was old state    216
 New state    207 was old state    203
 New state    208 was old state    200
 New state    209 was old state    228
 New state    210 was old state    207
 New state    211 was old state    232
 New state    212 was old state    213
 New state    213 was old state    211
 New state    214 was old state    224
 New state    215 was old state    219
 New state    216 was old state    214
 New state    218 was old state    225
 New state    219 was old state    218
 New state    220 was old state    223
 New state    221 was old state    230
 New state    223 was old state    212
 New state    224 was old state    220
 New state    225 was old state    226
 New state    226 was old state    227
 New state    227 was old state    241
 New state    228 was old state    229
 New state    229 was old state    236
 New state    230 was old state    233
 New state    232 was old state    257
 New state    233 was old state    221
 New state    234 was old state    240
 New state    235 was old state    234
 New state    236 was old state    238
 New state    237 was old state    235
 New state    238 was old state    237
 New state    239 was old state    243
 New state    240 was old state    242
 New state    241 was old state    247
 New state    242 was old state    246
 No map to state    243
 New state    244 was old state    245
 New state    245 was old state    239
 New state    246 was old state    244
 New state    247 was old state    258
 New state    248 was old state    251
 New state    249 was old state    265
 New state    250 was old state    262
 New state    251 was old state    249
 New state    252 was old state    248
 New state    253 was old state    260
 New state    254 was old state    259
 New state    255 was old state    254
 New state    256 was old state    255
 New state    257 was old state    252
 New state    258 was old state    253
 New state    259 was old state    250
 New state    260 was old state    267
 New state    262 was old state    270
 New state    264 was old state    273
 New state    265 was old state    266
 New state    266 was old state    256
 New state    267 was old state    275
 New state    268 was old state    272
 New state    269 was old state    264
 New state    270 was old state    269
 New state    271 was old state    279
 New state    272 was old state    281
 New state    273 was old state    268
 New state    274 was old state    290
 New state    275 was old state    271
 New state    276 was old state    300
 New state    277 was old state    274
 New state    278 was old state    280
 New state    279 was old state    277
 New state    280 was old state    276
 New state    281 was old state    286
 New state    282 was old state    278
 New state    283 was old state    284
 New state    284 was old state    287
 New state    285 was old state    283
 New state    286 was old state    299
 New state    287 was old state    288
 New state    288 was old state    282
 New state    289 was old state    285
 New state    290 was old state    289
 New state    292 was old state    303
 New state    293 was old state    296
 New state    294 was old state    295
 New state    295 was old state    294
 New state    296 was old state    298
 New state    297 was old state    292
 New state    298 was old state    297
 New state    299 was old state    293
 New state    300 was old state    301
 New state    301 was old state    304
 New state    302 was old state    314
 New state    303 was old state    316
 New state    304 was old state    307
 New state    305 was old state    319
 New state    306 was old state    308
 New state    307 was old state    310
 New state    308 was old state    311
 New state    309 was old state    302
 New state    310 was old state    320
 New state    311 was old state    305
 New state    312 was old state    306
 New state    313 was old state    323
 New state    314 was old state    312
 New state    315 was old state    309
 New state    316 was old state    313
 New state    317 was old state    315
 New state    318 was old state    325
 New state    319 was old state    332
 New state    320 was old state    318
 New state    321 was old state    328
 New state    322 was old state    317
 New state    323 was old state    334
 New state    324 was old state    341
 New state    325 was old state    327
 New state    326 was old state    321
 New state    327 was old state    324
 New state    328 was old state    331
 New state    329 was old state    322
 New state    331 was old state    326
 New state    332 was old state    329
 New state    333 was old state    340
 New state    334 was old state    339
 New state    335 was old state    333
 New state    336 was old state    358
 New state    337 was old state    338
 New state    338 was old state    335
 New state    339 was old state    337
 New state    340 was old state    342
 New state    341 was old state    343
 New state    342 was old state    336
 New state    343 was old state    344
 New state    344 was old state    347
 New state    347 was old state    352
 New state    348 was old state    350
 New state    350 was old state    355
 New state    352 was old state    354
 New state    354 was old state    356
 New state    355 was old state    348
 New state    356 was old state    360
 New state    357 was old state    359
 New state    358 was old state    363
 New state    359 was old state    362
 New state    360 was old state    380
 New state    361 was old state    357
 New state    362 was old state    361
 New state    363 was old state    364
 New state    364 was old state    369
 New state    366 was old state    367
 New state    367 was old state    371
 New state    368 was old state    372
 New state    369 was old state    366
 New state    370 was old state    368
 New state    371 was old state    370
 New state    372 was old state    375
 New state    374 was old state    377
 New state    375 was old state    379
 New state    376 was old state    378
 New state    377 was old state    381
 New state    378 was old state    382
 New state    379 was old state    386
 New state    380 was old state    374
 No map to state    381
 New state    382 was old state    385
 New state    383 was old state    388
 New state    385 was old state    387
 New state    386 was old state    395
 New state    387 was old state    383
 New state    388 was old state    391
 New state    390 was old state    394
 New state    391 was old state    392
 New state    392 was old state    390
 New state    393 was old state    398
 New state    394 was old state    399
 New state    395 was old state    406
 New state    396 was old state    402
 New state    397 was old state    404
 New state    398 was old state    397
 New state    399 was old state    400
 New state    400 was old state    409
 New state    401 was old state    396
 New state    402 was old state    393
 New state    403 was old state    401
 New state    404 was old state    405
 New state    405 was old state    403
 New state    406 was old state    407
 New state    407 was old state    410
 New state    409 was old state    411
 New state    410 was old state    412
 New state    411 was old state    415
 New state    412 was old state    414
 New state    413 was old state    416
 New state    414 was old state    418
 New state    415 was old state    422
 New state    416 was old state    419
 New state    417 was old state    413
 New state    418 was old state    431
 New state    419 was old state    417
 New state    421 was old state    423
 New state    422 was old state    421
 New state    423 was old state    426
 New state    424 was old state    429
 New state    425 was old state    424
 New state    426 was old state    425
 New state    427 was old state    430
 New state    429 was old state    433
 New state    430 was old state    432
 New state    431 was old state    438
 New state    432 was old state    427
 New state    433 was old state    435
 New state    435 was old state    436
 New state    436 was old state    444
 New state    437 was old state    439
 New state    438 was old state    440
 New state    439 was old state    443
 New state    440 was old state    441
 New state    441 was old state    449
 New state    443 was old state    446
 New state    444 was old state    437
 New state    445 was old state    460
 New state    446 was old state    445
 New state    448 was old state    450
 New state    449 was old state    452
 New state    450 was old state    448
 New state    451 was old state    457
 New state    452 was old state    453
 New state    453 was old state    451
 New state    454 was old state    459
 New state    455 was old state    456
 New state    456 was old state    466
 New state    457 was old state    461
 New state    458 was old state    454
 New state    459 was old state    471
 New state    460 was old state    458
 New state    461 was old state    463
 New state    462 was old state    455
 New state    463 was old state    464
 New state    464 was old state    462
 New state    465 was old state    468
 New state    466 was old state    467
 New state    467 was old state    465
 New state    468 was old state    473
 New state    469 was old state    470
 New state    470 was old state    469
 New state    471 was old state    472
 New state    472 was old state    474
 New state    473 was old state    475
 New state    474 was old state    485
 New state    475 was old state    479
 New state    476 was old state    477
 New state    477 was old state    481
 New state    479 was old state    480
 New state    480 was old state    476
 New state    481 was old state    499
 New state    482 was old state    483
 New state    483 was old state    486
 New state    484 was old state    482
 New state    485 was old state    487
 New state    486 was old state    491
 New state    487 was old state    484
 New state    488 was old state    489
 New state    489 was old state    492
 New state    490 was old state    493
 New state    491 was old state    490
 New state    492 was old state    488
 New state    493 was old state    494
 New state    494 was old state    498
 New state    495 was old state    497
 New state    496 was old state    500
 New state    497 was old state    496
 New state    498 was old state    505
 New state    499 was old state    495
 New state    500 was old state    507
 New state    503 was old state    504
 New state    504 was old state    503
 New state    505 was old state    510
 New state    507 was old state    509
 New state    508 was old state    511
 New state    509 was old state    508
 New state    510 was old state    513
 No map to state    511
 New state    512 was old state    515
 New state    513 was old state    514
 New state    514 was old state    512
 New state    515 was old state    516
 New state    516 was old state    517
 New state    517 was old state    519
 New state    518 was old state    522
 New state    519 was old state    518
 New state    520 was old state    526
 New state    521 was old state    524
 New state    522 was old state    520
 New state    523 was old state    521
 New state    524 was old state    528
 New state    526 was old state    523
 New state    527 was old state    533
 New state    528 was old state    527
 New state    529 was old state    531
 New state    530 was old state    534
 New state    531 was old state    529
 New state    532 was old state    530
 New state    533 was old state    537
 New state    534 was old state    540
 New state    535 was old state    536
 New state    536 was old state    535
 New state    537 was old state    532
 New state    539 was old state    542
 New state    540 was old state    539
 New state    542 was old state    545
 New state    544 was old state    548
 New state    545 was old state    549
 New state    546 was old state    550
 New state    547 was old state    546
 New state    548 was old state    544
 New state    549 was old state    551
 New state    550 was old state    547
 New state    551 was old state    557
 New state    552 was old state    553
 New state    553 was old state    555
 New state    554 was old state    552
 New state    555 was old state    558
 New state    556 was old state    562
 New state    557 was old state    556
 New state    558 was old state    559
 New state    559 was old state    554
 New state    561 was old state    565
 New state    562 was old state    563
 New state    563 was old state    564
 New state    564 was old state    561
 New state    565 was old state    569
 New state    566 was old state    567
 New state    567 was old state    571
 New state    569 was old state    570
 New state    570 was old state    566
 New state    571 was old state    572
 New state    572 was old state    573
 New state    573 was old state    579
 New state    575 was old state    576
 New state    576 was old state    575
 New state    579 was old state    582
 New state    581 was old state    583
 New state    582 was old state    581
 New state    583 was old state    586
 New state    586 was old state    589
 New state    587 was old state    588
 New state    588 was old state    587
 New state    589 was old state    590
 New state    590 was old state    594
 New state    593 was old state    597
 New state    594 was old state    596
 New state    596 was old state    593
 New state    597 was old state    599
 New state    598 was old state    600
 New state    599 was old state    598
 New state    600 was old state    603
 New state    602 was old state    604
 New state    603 was old state    608
 New state    604 was old state    602
 New state    605 was old state    607
 New state    607 was old state    609
 New state    608 was old state    610
 New state    609 was old state    605
 New state    610 was old state    611
 New state    611 was old state    615
 New state    613 was old state    617
 New state    614 was old state    613
 New state    615 was old state    614
 New state    617 was old state    619
 New state    618 was old state    630
 New state    619 was old state    632
 New state    622 was old state    623
 New state    623 was old state    622
 New state    624 was old state    626
 New state    626 was old state    624
 New state    627 was old state    628
 New state    628 was old state    627
 New state    630 was old state    631
 New state    631 was old state    634
 New state    632 was old state    640
 New state    633 was old state    643
 New state    634 was old state    633
 New state    638 was old state    639
 New state    639 was old state    638
 New state    640 was old state    641
 New state    641 was old state    642
 No map to state    642
 New state    643 was old state    650
 New state    649 was old state    651
 New state    650 was old state    649
 No map to state    651
 New state    655 was old state    657
 New state    657 was old state    658
 New state    658 was old state    655
 New state    659 was old state    660
 New state    660 was old state    659
 New state    661 was old state    662
 New state    662 was old state    661
 New state    665 was old state    667
 New state    666 was old state    665
 New state    667 was old state    666
 New state    669 was old state    670
 New state    670 was old state    669
 New state    673 was old state    674
 New state    674 was old state    675
 New state    675 was old state    673
 New state    678 was old state    679
 New state    679 was old state    680
 New state    680 was old state    682
 New state    682 was old state    683
 New state    683 was old state    678
 New state    684 was old state    685
 New state    685 was old state    686
 New state    686 was old state    684
 New state    687 was old state    689
 New state    688 was old state    687
 New state    689 was old state    690
 New state    690 was old state    688
 New state    695 was old state    697
 New state    697 was old state    695
 New state    703 was old state    704
 New state    704 was old state    705
 New state    705 was old state    703
 New state    707 was old state    710
 New state    708 was old state    707
 New state    710 was old state    708
 Excitation Energies [eV] at current iteration:
 Root      1 :     6.392301085879661
 Root      2 :     7.088498647710161
 Root      3 :     7.380201630098657
 Root      4 :     8.008252608987611
 Root      5 :     8.060237353588397
 Root      6 :     8.633120079706730
 Root      7 :     8.799350721529082
 Root      8 :     9.663814934823186
 Root      9 :     9.739907210814843
 Root     10 :     9.967068913990298
 Root     11 :    10.349514329508360
 Root     12 :    10.873984320741850
 Root     13 :    10.902983225209250
 Root     14 :    10.973360183504810
 Root     15 :    11.102996624625480
 Root     16 :    11.189163639641900
 Root     17 :    11.274696097345860
 Root     18 :    11.559747907237240
 Root     19 :    11.654531243380910
 Root     20 :    11.930123259292330
 Root     21 :    11.999878863490340
 Root     22 :    12.019113316969990
 Root     23 :    12.151892314165230
 Root     24 :    12.227320710868690
 Root     25 :    12.431189534378260
 Root     26 :    12.489862128062540
 Root     27 :    12.706829774199770
 Root     28 :    12.798380184843930
 Root     29 :    12.998015879773600
 Root     30 :    13.228277903388750
 Root     31 :    13.244813419743450
 Root     32 :    13.467453619402980
 Root     33 :    13.574975860369120
 Root     34 :    13.893314934881730
 Root     35 :    13.894773066886700
 Root     36 :    14.012930400386320
 Root     37 :    14.101306679523830
 Root     38 :    14.395695412549510
 Root     39 :    14.507898090572000
 Root     40 :    14.614815815694450
 Root     41 :    14.695061400764980
 Root     42 :    14.720285384451080
 Root     43 :    14.860812575654850
 Root     44 :    14.918668775144360
 Root     45 :    15.027126077577020
 Root     46 :    15.094155701137820
 Root     47 :    15.143681808834880
 Root     48 :    15.371225772247080
 Root     49 :    15.447079744920960
 Root     50 :    15.576552744420920
 Root     51 :    15.581744628584050
 Root     52 :    15.666811335755090
 Root     53 :    15.729353684039960
 Root     54 :    15.853981180835230
 Root     55 :    15.890100018252320
 Root     56 :    16.022902494122620
 Root     57 :    16.146197319412440
 Root     58 :    16.250838318387870
 Root     59 :    16.262070308249290
 Root     60 :    16.307730020611950
 Root     61 :    16.430269528095480
 Root     62 :    16.492429650233040
 Root     63 :    16.504906032209510
 Root     64 :    16.612238786939430
 Root     65 :    16.681071868174880
 Root     66 :    16.697779405156790
 Root     67 :    16.810577615691430
 Root     68 :    16.956721624850090
 Root     69 :    17.004882636296880
 Root     70 :    17.141926335398820
 Root     71 :    17.157276924685700
 Root     72 :    17.254751246459370
 Root     73 :    17.300028859507250
 Root     74 :    17.412309931359840
 Root     75 :    17.439247444651920
 Root     76 :    17.597796398585910
 Root     77 :    17.612587804604780
 Root     78 :    17.686776188164820
 Root     79 :    17.738223310123850
 Root     80 :    17.888137321951250
 Root     81 :    18.114912322043780
 Root     82 :    18.123273052402790
 Root     83 :    18.178243648055260
 Root     84 :    18.213434192527860
 Root     85 :    18.255046745143990
 Root     86 :    18.301849652815910
 Root     87 :    18.412020198188610
 Root     88 :    18.456513480565610
 Root     89 :    18.499488624616260
 Root     90 :    18.547565315371890
 Root     91 :    18.668127951474890
 Root     92 :    18.686863163725540
 Root     93 :    18.788417402935210
 Root     94 :    18.863130897428770
 Root     95 :    18.902721439177640
 Root     96 :    19.039567929514070
 Root     97 :    19.119591583945970
 Root     98 :    19.188568526741330
 Root     99 :    19.300026604449740
 Root    100 :    19.414839129487110
 Root    101 :    19.582551041291360
 Root    102 :    19.661501316260880
 Root    103 :    19.714051564855280
 Root    104 :    19.784893848297470
 Root    105 :    19.811461891258830
 Root    106 :    19.836529687968530
 Root    107 :    19.903757362181800
 Root    108 :    20.034535647909390
 Root    109 :    20.083158621080480
 Root    110 :    20.168144410553750
 Root    111 :    20.279877656727750
 Root    112 :    20.388720734899760
 Root    113 :    20.454612241970210
 Root    114 :    20.632462130014350
 Root    115 :    20.709527607906380
 Root    116 :    20.753910406749540
 Root    117 :    20.787779653991330
 Root    118 :    20.816470005295200
 Root    119 :    20.834673672657230
 Root    120 :    20.904765299528800
 Root    121 :    20.920910156148820
 Root    122 :    20.955205385397500
 Root    123 :    21.041205029351050
 Root    124 :    21.116957606384450
 Root    125 :    21.181030585002390
 Root    126 :    21.210231841321210
 Root    127 :    21.351335180202640
 Root    128 :    21.376189048004190
 Root    129 :    21.462205184859040
 Root    130 :    21.571593391095120
 Root    131 :    21.605332470121710
 Root    132 :    21.638962936627550
 Root    133 :    21.724188314207730
 Root    134 :    21.817897887664570
 Root    135 :    21.848358699058550
 Root    136 :    21.923353115226330
 Root    137 :    22.119006018367530
 Root    138 :    22.180977673013000
 Root    139 :    22.294597361627070
 Root    140 :    22.358636310104760
 Root    141 :    22.406618787885460
 Root    142 :    22.439104206805670
 Root    143 :    22.492409429660740
 Root    144 :    22.515351502371200
 Root    145 :    22.695940977753260
 Root    146 :    22.725990674107640
 Root    147 :    22.819664059743340
 Root    148 :    22.904504971022580
 Root    149 :    22.975735392236380
 Root    150 :    23.057034485901710
 Root    151 :    23.082601009052570
 Root    152 :    23.145228735133470
 Root    153 :    23.245665128849100
 Root    154 :    23.398590068397560
 Root    155 :    23.475117969684660
 Root    156 :    23.554560118500840
 Root    157 :    23.609418971287330
 Root    158 :    23.689476428631030
 Root    159 :    23.702147400479940
 Root    160 :    23.743775504099870
 Root    161 :    23.760741798313590
 Root    162 :    23.817689791279420
 Root    163 :    23.830807956063900
 Root    164 :    23.986771307768940
 Root    165 :    24.066424004516460
 Root    166 :    24.113245686333200
 Root    167 :    24.159427281306390
 Root    168 :    24.175551401510250
 Root    169 :    24.336954533846790
 Root    170 :    24.451300705851480
 Root    171 :    24.479938015313740
 Root    172 :    24.599109508563370
 Root    173 :    24.613079557040060
 Root    174 :    24.639878689661990
 Root    175 :    24.776730638104450
 Root    176 :    24.833721080391590
 Root    177 :    24.944970864190860
 Root    178 :    24.981013409506530
 Root    179 :    25.019300490152720
 Root    180 :    25.041555072291810
 Root    181 :    25.128971024309220
 Root    182 :    25.225954921269810
 Root    183 :    25.300088162988460
 Root    184 :    25.367990833809100
 Root    185 :    25.411609044515110
 Root    186 :    25.425155099055760
 Root    187 :    25.465692100460430
 Root    188 :    25.578839373812450
 Root    189 :    25.625648052496430
 Root    190 :    25.692639260169850
 Root    191 :    25.758828733013630
 Root    192 :    25.807402484869750
 Root    193 :    25.880722900833590
 Root    194 :    25.949306547087240
 Root    195 :    26.200469793919310
 Root    196 :    26.333322308205210
 Root    197 :    26.395923429152670
 Root    198 :    26.427871379759400
 Root    199 :    26.495961879646870
 Root    200 :    26.513530752853470
 Root    201 :    26.586276108996870
 Root    202 :    26.643310544436660
 Root    203 :    26.712874130072610
 Root    204 :    26.732447411823820
 Root    205 :    26.819825954934100
 Root    206 :    26.847515298026950
 Root    207 :    26.888913618921600
 Root    208 :    26.947535038592740
 Root    209 :    27.028109520213590
 Root    210 :    27.072780615773340
 Root    211 :    27.123025311040220
 Root    212 :    27.339954391638350
 Root    213 :    27.382314165016950
 Root    214 :    27.422135023675240
 Root    215 :    27.457074984422500
 Root    216 :    27.483677323292160
 Root    217 :    27.583138746356440
 Root    218 :    27.596253215812510
 Root    219 :    27.770605763109060
 Root    220 :    27.778785139713130
 Root    221 :    27.866908590035540
 Root    222 :    27.906255647288920
 Root    223 :    27.999327849053450
 Root    224 :    28.034797911723200
 Root    225 :    28.068773404665280
 Root    226 :    28.215889502855440
 Root    227 :    28.232064977904500
 Root    228 :    28.273403864619470
 Root    229 :    28.361110295164740
 Root    230 :    28.464381345640750
 Root    231 :    28.469359199846950
 Root    232 :    28.504045208577920
 Root    233 :    28.541212814321850
 Root    234 :    28.640308874183630
 Root    235 :    28.802374102255450
 Root    236 :    28.909105299692090
 Root    237 :    28.968408477989070
 Root    238 :    29.019274519969970
 Root    239 :    29.081060731586260
 Root    240 :    29.147957341451970
 Root    241 :    29.364112909759810
 Root    242 :    29.487823933633740
 Root    243 :    29.527344704443860
 Root    244 :    29.593643887287700
 Root    245 :    29.714632578570130
 Root    246 :    29.758425654944090
 Root    247 :    29.843190089679900
 Root    248 :    29.873202136506960
 Root    249 :    30.105614294233740
 Root    250 :    30.196503220208330
 Root    251 :    30.237303803566010
 Root    252 :    30.350675179119310
 Root    253 :    30.354507556069470
 Root    254 :    30.370385282861590
 Root    255 :    30.435541724526550
 Root    256 :    30.499180560026450
 Root    257 :    30.523134433833240
 Root    258 :    30.700394338643860
 Root    259 :    30.753304041274330
 Root    260 :    30.766828303019820
 Root    261 :    30.867188346527840
 Root    262 :    31.128095252033180
 Root    263 :    31.151460039604200
 Root    264 :    31.290111666484940
 Root    265 :    31.391221671236190
 Root    266 :    31.469068589878360
 Root    267 :    31.485594534452680
 Root    268 :    31.515652096786240
 Root    269 :    31.620357739941700
 Root    270 :    31.665555362004480
 Root    271 :    31.739862128295610
 Root    272 :    31.909541050793610
 Root    273 :    31.932014479082960
 Root    274 :    31.959401184075490
 Root    275 :    32.141632429634000
 Root    276 :    32.219123284970590
 Root    277 :    32.276363340376000
 Root    278 :    32.466304185042700
 Root    279 :    32.533380052051930
 Root    280 :    32.649401118037450
 Root    281 :    32.875044677731110
 Root    282 :    32.925911789030370
 Root    283 :    32.978795221380270
 Root    284 :    33.081909480994140
 Root    285 :    33.122145302998150
 Root    286 :    33.187559466869620
 Root    287 :    33.291269494635190
 Root    288 :    33.368263288010740
 Root    289 :    33.382944615223220
 Root    290 :    33.439504337575090
 Root    291 :    33.548415691445300
 Root    292 :    33.614668259291830
 Root    293 :    33.651683992443860
 Root    294 :    33.828669852073500
 Root    295 :    33.865985654323540
 Root    296 :    34.021854495285830
 Root    297 :    34.029966442860690
 Root    298 :    34.090427088362970
 Root    299 :    34.183331796888870
 Root    300 :    34.249155910985850
 Root    301 :    34.332586052806960
 Root    302 :    34.411552625635440
 Root    303 :    34.548998966283700
 Root    304 :    34.652536687835210
 Root    305 :    34.736916404618950
 Root    306 :    34.890073385378920
 Root    307 :    34.956100912431010
 Root    308 :    34.985233782723630
 Root    309 :    35.093750054691370
 Root    310 :    35.119788754066090
 Root    311 :    35.174047015656830
 Root    312 :    35.293075682385950
 Root    313 :    35.538499471550030
 Root    314 :    35.585142159522800
 Root    315 :    35.652339611585300
 Root    316 :    35.715984994909350
 Root    317 :    35.895114053515820
 Root    318 :    36.027002210837350
 Root    319 :    36.067974541646520
 Root    320 :    36.261883995894230
 Root    321 :    36.320092303788180
 Root    322 :    36.501406644398890
 Root    323 :    36.534927895181530
 Root    324 :    36.547260283723730
 Root    325 :    36.606883185152940
 Root    326 :    36.735031894731630
 Root    327 :    36.774984116531680
 Root    328 :    36.819919203481820
 Root    329 :    36.984448784255800
 Root    330 :    37.153514818359430
 Root    331 :    37.216302094647230
 Root    332 :    37.365974500087370
 Root    333 :    37.689548046411390
 Root    334 :    37.756166619470870
 Root    335 :    37.773459755583910
 Root    336 :    37.838691659278650
 Root    337 :    37.944600277031850
 Root    338 :    38.029575313477880
 Root    339 :    38.118998577316040
 Root    340 :    38.278881732011790
 Root    341 :    38.428084381559880
 Root    342 :    38.492338022700490
 Root    343 :    38.559334973641500
 Root    344 :    38.580788166319860
 Root    345 :    38.876113049611860
 Root    346 :    38.967410983004830
 Root    347 :    39.087902418920710
 Root    348 :    39.145251007270670
 Root    349 :    39.246463744195720
 Root    350 :    39.386042822231350
 Root    351 :    39.493629578155020
 Root    352 :    39.575064388586770
 Root    353 :    39.677587196369530
 Root    354 :    39.722833303097340
 Root    355 :    39.868433675256010
 Root    356 :    40.016578479121700
 Root    357 :    40.144567239604240
 Root    358 :    40.230070628951690
 Root    359 :    40.484943257394360
 Root    360 :    40.599605081114530
 Root    361 :    40.723826940336020
 Root    362 :    40.735982440585750
 Root    363 :    41.093060009195350
 Root    364 :    41.302538065843910
 Root    365 :    41.381108161335400
 Root    366 :    41.445772596773330
 Root    367 :    41.514295336244000
 Root    368 :    41.630705397070020
 Root    369 :    41.800152614480830
 Root    370 :    41.994221206849470
 Root    371 :    42.147442286402930
 Root    372 :    42.256203517613820
 Root    373 :    42.289862321420270
 Root    374 :    42.389795629424190
 Root    375 :    42.564111021109350
 Root    376 :    42.592267265050770
 Root    377 :    42.724941141928060
 Root    378 :    42.746072548301540
 Root    379 :    42.874596153673880
 Root    380 :    43.062687112302050
 Root    381 :    43.206702581976880
 Root    382 :    43.335863906829990
 Root    383 :    43.584298557778030
 Root    384 :    43.701696278243200
 Root    385 :    43.969118484351110
 Root    386 :    44.125829700430660
 Root    387 :    44.152353153716700
 Root    388 :    44.215700869692310
 Root    389 :    44.260974354219710
 Root    390 :    44.496031519401750
 Root    391 :    44.950067650463330
 Root    392 :    45.036883773343860
 Root    393 :    45.095580995184100
 Root    394 :    45.141576589197290
 Root    395 :    45.490492727797550
 Root    396 :    45.557321937681140
 Root    397 :    45.642407789156320
 Root    398 :    45.774024889711110
 Root    399 :    45.864941409715210
 Root    400 :    45.916971113419630
 Root    401 :    46.186123254591780
 Root    402 :    46.248098412595400
 Root    403 :    46.476852254683950
 Root    404 :    46.521473554306640
 Root    405 :    46.608950556768140
 Root    406 :    46.954124477724460
 Root    407 :    47.031934184149780
 Root    408 :    47.166905427596560
 Root    409 :    47.284692455353280
 Root    410 :    47.365981289327540
 Root    411 :    47.540197163843570
 Root    412 :    47.808504793565160
 Root    413 :    48.040085815207530
 Root    414 :    48.127701606943980
 Root    415 :    48.319630303163140
 Root    416 :    48.372777901530940
 Root    417 :    48.502393068620800
 Root    418 :    48.594581117498760
 Root    419 :    48.811071886862140
 Root    420 :    49.147491962275260
 Root    421 :    49.215358271914100
 Root    422 :    49.352695665651330
 Root    423 :    49.416333005453760
 Root    424 :    49.710685612570970
 Root    425 :    50.086640361356130
 Root    426 :    50.172699739089900
 Root    427 :    50.441250992568840
 Root    428 :    50.551784744090480
 Root    429 :    50.760493720946210
 Root    430 :    51.077436388984350
 Root    431 :    51.184360580464220
 Root    432 :    51.511251449051770
 Root    433 :    51.715065143887630
 Root    434 :    51.822493096514300
 Root    435 :    51.982036865856860
 Root    436 :    52.093374272823230
 Root    437 :    52.173207253145660
 Root    438 :    52.559699123624770
 Root    439 :    52.886729738861210
 Root    440 :    52.944858889128010
 Root    441 :    52.956473807206000
 Root    442 :    53.001939481851270
 Root    443 :    53.049874996395930
 Root    444 :    53.108287427048810
 Root    445 :    53.150407562730050
 Root    446 :    53.288675656851320
 Root    447 :    53.427182112945690
 Root    448 :    53.651926346681040
 Root    449 :    53.812032380391540
 Root    450 :    53.896093447031030
 Root    451 :    54.059339193376730
 Root    452 :    54.358057888675960
 Root    453 :    54.538882335617450
 Root    454 :    54.562541015260840
 Root    455 :    54.666474427580720
 Root    456 :    54.806774665509470
 Root    457 :    54.923133397763000
 Root    458 :    54.967036439182020
 Root    459 :    55.066888533336940
 Root    460 :    55.346035392486610
 Root    461 :    55.578462192291470
 Root    462 :    55.747373868122520
 Root    463 :    55.814666533301420
 Root    464 :    55.961494263247600
 Root    465 :    56.015953148623740
 Root    466 :    56.050336560708720
 Root    467 :    56.256812382373580
 Root    468 :    56.379020139974970
 Root    469 :    56.604270772317630
 Root    470 :    56.654346009283020
 Root    471 :    56.874893018542360
 Root    472 :    57.026746585994890
 Root    473 :    57.181501857828690
 Root    474 :    57.374949297341490
 Root    475 :    57.722884503256300
 Root    476 :    57.785044033334540
 Root    477 :    57.878420152453960
 Root    478 :    57.936531715828520
 Root    479 :    58.050970100378300
 Root    480 :    58.179558183367190
 Root    481 :    58.287576749703720
 Root    482 :    58.393309959338160
 Root    483 :    58.586621481797730
 Root    484 :    58.812057336056990
 Root    485 :    58.975345003676620
 Root    486 :    59.135024644698680
 Root    487 :    59.149971085816150
 Root    488 :    59.187366726959560
 Root    489 :    59.412092812717520
 Root    490 :    59.493664484220280
 Root    491 :    59.634701312514970
 Root    492 :    59.754892509596660
 Root    493 :    59.909575798935270
 Root    494 :    60.486714706518660
 Root    495 :    60.656125281617250
 Root    496 :    60.725112616024790
 Root    497 :    61.027279252251190
 Root    498 :    61.274592846630370
 Root    499 :    61.370393626130200
 Root    500 :    61.595059823787240
 Root    501 :    61.619032123287550
 Root    502 :    61.800091439968970
 Root    503 :    61.859378872393800
 Root    504 :    61.981077859111820
 Root    505 :    62.087740335302800
 Root    506 :    62.233473883839130
 Root    507 :    62.364125741642880
 Root    508 :    62.451809691519460
 Root    509 :    62.645461060619230
 Root    510 :    62.847156611059300
 Root    511 :    62.934406603178410
 Root    512 :    63.094187285397820
 Root    513 :    63.188783484820320
 Root    514 :    63.430092409401300
 Root    515 :    63.467343542310910
 Root    516 :    63.617203652715680
 Root    517 :    63.842948010443240
 Root    518 :    63.959342863282690
 Root    519 :    64.053008856961430
 Root    520 :    64.206249346455820
 Root    521 :    64.269720334314540
 Root    522 :    64.716845883312590
 Root    523 :    64.820566163848580
 Root    524 :    64.861047495519660
 Root    525 :    64.976937539758040
 Root    526 :    65.078709731508230
 Root    527 :    65.168252260502130
 Root    528 :    65.303326446867120
 Root    529 :    65.387072685664610
 Root    530 :    65.445554662806300
 Root    531 :    65.473856694122560
 Root    532 :    65.680913929688540
 Root    533 :    65.724486157197450
 Root    534 :    65.881057743196070
 Root    535 :    66.084546180045210
 Root    536 :    66.312297856988120
 Root    537 :    66.414315222150490
 Root    538 :    66.532893414327870
 Root    539 :    66.781137096482740
 Root    540 :    66.792829588810700
 Root    541 :    67.022590457444070
 Root    542 :    67.237593858748800
 Root    543 :    67.351823414431280
 Root    544 :    67.659247798627650
 Root    545 :    67.806964317223030
 Root    546 :    67.854016469215550
 Root    547 :    67.961144008728600
 Root    548 :    68.059226317846760
 Root    549 :    68.186622889888010
 Root    550 :    68.669367379820240
 Root    551 :    68.727471805809420
 Root    552 :    68.830720211920580
 Root    553 :    68.969884787036020
 Root    554 :    69.098127025317210
 Root    555 :    69.236851722938980
 Root    556 :    69.438278656833480
 Root    557 :    69.503492064178840
 Root    558 :    69.656362471083280
 Root    559 :    69.857957765705560
 Root    560 :    69.936053711863420
 Root    561 :    70.351639870888750
 Root    562 :    70.530530578571530
 Root    563 :    70.664907610653830
 Root    564 :    70.768807370788930
 Root    565 :    70.932314746286750
 Root    566 :    71.036016941569970
 Root    567 :    71.159086657652510
 Root    568 :    71.710310593382060
 Root    569 :    71.744046289161890
 Root    570 :    71.955391024003080
 Root    571 :    72.118772586913100
 Root    572 :    72.256117799514950
 Root    573 :    72.324603640105370
 Root    574 :    72.481877936460580
 Root    575 :    72.688407059350030
 Root    576 :    72.838275440715110
 Root    577 :    73.053001148456400
 Root    578 :    73.288876308443900
 Root    579 :    73.329955022563410
 Root    580 :    73.403924551697290
 Root    581 :    73.529865769075190
 Root    582 :    74.074718208575620
 Root    583 :    74.123236822293510
 Root    584 :    74.254637158883140
 Root    585 :    74.415891432888190
 Root    586 :    74.786881072665450
 Root    587 :    74.940027518162370
 Root    588 :    75.172701642043780
 Root    589 :    75.482265292397830
 Root    590 :    75.510773386094800
 Root    591 :    76.211966947172900
 Root    592 :    76.400486244754150
 Root    593 :    76.464821766586130
 Root    594 :    76.879401039484280
 Root    595 :    76.943177663039920
 Root    596 :    77.112496985613790
 Root    597 :    77.248843565496540
 Root    598 :    77.544600440398060
 Root    599 :    77.655460080422430
 Root    600 :    77.828179028224410
 Root    601 :    78.052793088217640
 Root    602 :    78.244436568209240
 Root    603 :    78.405888465240910
 Root    604 :    78.511571347494050
 Root    605 :    78.626062406050210
 Root    606 :    79.188774518980280
 Root    607 :    79.398458762601960
 Root    608 :    79.614683710831370
 Root    609 :    79.667037432740860
 Root    610 :    79.878610109081220
 Root    611 :    79.890305569481100
 Root    612 :    80.374380922048840
 Root    613 :    80.875113940105520
 Root    614 :    80.952975124650850
 Root    615 :    81.020227968321020
 Root    616 :    81.181937696796820
 Root    617 :    81.383863610592850
 Root    618 :    81.647583354117810
 Root    619 :    81.952134052920700
 Root    620 :    82.132144701637610
 Root    621 :    82.462897976163700
 Root    622 :    82.623346514364610
 Root    623 :    82.780359083592200
 Root    624 :    83.113714450153640
 Root    625 :    83.192993271726510
 Root    626 :    83.277479525813790
 Root    627 :    83.771889474490660
 Root    628 :    84.045436047106950
 Root    629 :    84.245686076140940
 Root    630 :    84.420605126755830
 Root    631 :    85.027285246200820
 Root    632 :    85.156057564744500
 Root    633 :    85.314455026161720
 Root    634 :    85.480515301034320
 Root    635 :    85.742802593409250
 Root    636 :    86.249353542802880
 Root    637 :    86.629291266892580
 Root    638 :    86.721489013829980
 Root    639 :    87.011660551156310
 Root    640 :    87.487409022546520
 Root    641 :    87.648451132344420
 Root    642 :    87.868408081617280
 Root    643 :    88.261729087017640
 Root    644 :    88.533600657326590
 Root    645 :    88.704444044411600
 Root    646 :    89.063824887870380
 Root    647 :    89.293935692211490
 Root    648 :    89.520454211526650
 Root    649 :    89.652193649901490
 Root    650 :    89.920634584901170
 Root    651 :    90.454379521856910
 Root    652 :    90.752263041547810
 Root    653 :    91.198603743650620
 Root    654 :    91.804681019872750
 Root    655 :    91.960521056702050
 Root    656 :    92.199833393515280
 Root    657 :    92.549663442003890
 Root    658 :    92.688638506063650
 Root    659 :    92.927679583494040
 Root    660 :    93.277778138402710
 Root    661 :    93.510030205439750
 Root    662 :    93.670313873078310
 Root    663 :    94.247941444529540
 Root    664 :    94.823567073258000
 Root    665 :    95.060070327170140
 Root    666 :    95.416974677178170
 Root    667 :    95.678242948566790
 Root    668 :    95.992157722486340
 Root    669 :    96.314081933951780
 Root    670 :    96.521823878865670
 Root    671 :    96.575821461887540
 Root    672 :    96.687323879580230
 Root    673 :    96.995966458367180
 Root    674 :    97.563602753089190
 Root    675 :    97.816382993068030
 Root    676 :    98.236348341626250
 Root    677 :    98.443126897046260
 Root    678 :    98.780434782097060
 Root    679 :    99.497022677470880
 Root    680 :    99.669717386580860
 Root    681 :    99.850075339835090
 Root    682 :   100.119019612969500
 Root    683 :   100.432345816318600
 Root    684 :   101.336149696074400
 Root    685 :   101.535847921916700
 Root    686 :   101.817408583409400
 Root    687 :   102.165999085840100
 Root    688 :   102.237832237596500
 Root    689 :   102.713482840559200
 Root    690 :   103.099492795496600
 Root    691 :   103.394996603213800
 Root    692 :   103.772438394906800
 Root    693 :   103.965440196925800
 Root    694 :   104.444936642555600
 Root    695 :   104.711911415415300
 Root    696 :   105.246980430001400
 Root    697 :   105.551025544076800
 Root    698 :   105.717250019295500
 Root    699 :   106.306498706155400
 Root    700 :   106.921927990735100
 Root    701 :   107.514159618678100
 Root    702 :   107.667101774488600
 Root    703 :   107.954744210101000
 Root    704 :   108.468853386064700
 Root    705 :   108.683885511366900
 Root    706 :   110.040426080849700
 Root    707 :   110.275900408977500
 Root    708 :   111.018142049855600
 Root    709 :   111.472173447709600
 Root    710 :   112.050695778164000
 Root    711 :   112.342424934356100
 Root    712 :   113.213318512881000
 Root    713 :   113.534143322962200
 Root    714 :   114.037774333311000
 Root    715 :   114.806428228298900
 Root    716 :   115.837741993970300
 Root    717 :   118.856430495742000
 Root    718 :   120.439850066046600
 Root    719 :   121.986602525450700
 Root    720 :   123.215841230103100
 Convergence achieved for final wavefunctions.
 ***********************************************************************
 Excited states from <AA,BB:AA,BB> singles matrix:
 ***********************************************************************
 
 1PDM for each excited state written to RWF  633
 Ground to excited state transition densities written to RWF  633
 Ground to excited state transition electric dipole moments (Au):
       state          X           Y           Z        Dip. S.      Osc.
         1         0.0874      0.0004      0.1936      0.0451      0.0071
         2         0.1623      0.0331      0.1075      0.0390      0.0068
         3        -1.1430     -0.1237      0.0852      1.3291      0.2403
         4        -0.1493      0.0484     -0.0618      0.0285      0.0056
         5         0.5215     -0.3194      0.0043      0.3740      0.0738
         6        -0.0811      0.0218      0.4252      0.1878      0.0397
         7        -0.3538     -0.5122      0.0257      0.3882      0.0837
         8         0.3395     -0.0151      0.0466      0.1177      0.0279
         9         0.2146      0.0581      0.0405      0.0511      0.0122
        10        -0.0009      0.0416     -0.1193      0.0160      0.0039
        11         0.0115     -0.0100     -0.0366      0.0016      0.0004
        12        -0.1867      0.4060      0.0250      0.2003      0.0534
        13         0.0179     -0.1134     -0.2284      0.0653      0.0175
        14         0.1648     -0.1915     -0.0729      0.0691      0.0186
        15         0.2237     -0.0652      0.1333      0.0721      0.0196
        16        -0.2375     -0.3851      0.2176      0.2521      0.0691
        17         0.0868      0.2425      0.3321      0.1766      0.0488
        18        -0.7145     -0.2408     -0.0048      0.5685      0.1610
        19        -0.2233      0.0678      0.0731      0.0598      0.0171
        20         0.3509     -0.0262      0.0363      0.1251      0.0366
        21        -0.1272      0.2587     -0.0106      0.0832      0.0245
        22         0.0121      0.1779     -0.0221      0.0323      0.0095
        23        -0.0950     -0.0838     -0.2974      0.1045      0.0311
        24         0.1993      0.3305      0.0347      0.1502      0.0450
        25         0.0294     -0.0095      0.4979      0.2489      0.0758
        26         0.3382      0.2575     -0.0151      0.1809      0.0554
[...]
      2  -0.738553D-01 -0.172211D-01 -0.554734D-02 -0.200097D-01 -0.524439D-01
      3   0.558465D-01 -0.170423D-02  0.137370D-01 -0.274122D-01 -0.139795D-01
      4  -0.774621D-03  0.112396D-01 -0.471439D-01  0.155437D+00 -0.283442D-01
      5   0.227647D+00  0.510799D-01  0.138832D-01  0.649039D-01  0.173199D+00
      6  -0.172918D+00 -0.217589D-01 -0.420299D-01  0.795572D-01  0.442638D-01
      7   0.113335D-02 -0.292609D-01  0.139832D+00 -0.447119D+00  0.716342D-01
      8  -0.337628D-01 -0.312941D-01 -0.391379D-01  0.129983D+00  0.124558D-01
      9  -0.117349D-01  0.956067D-01 -0.390276D+00 -0.672667D-01  0.204848D-01
     10  -0.130518D+00 -0.524907D-01 -0.376189D+00  0.119481D+00  0.137846D+00
     11  -0.146588D+00  0.139609D+01  0.463543D+00  0.209877D+00 -0.278299D+00
     12  -0.643376D-01  0.298748D+00  0.231336D+00  0.302162D-01  0.834225D-03
     13   0.265480D-01 -0.595614D-01 -0.139404D+00  0.466742D-01 -0.101667D+00
     14  -0.118965D+00 -0.318518D-03 -0.561594D+00  0.337339D-01 -0.413166D-01
     15   0.182218D-03 -0.129343D+00  0.373706D+00  0.233501D+00  0.356252D-01
     16  -0.455074D-01 -0.903689D-01 -0.253555D-01  0.121330D-01  0.112715D+00
               656           657           658           659           660 
      1  -0.146424D+03 -0.146412D+03 -0.146406D+03 -0.146398D+03 -0.146385D+03
      2   0.626824D-01 -0.198953D-01  0.131237D-01  0.230796D-01  0.128830D-01
      3  -0.449892D-01  0.186124D-01 -0.134303D-01 -0.179931D-01 -0.145952D-01
      4  -0.833021D-01 -0.851740D-01 -0.175867D+00 -0.217876D-01 -0.465461D-01
      5  -0.187483D+00  0.651303D-01 -0.393297D-01 -0.769310D-01 -0.453335D-01
      6   0.117872D+00 -0.484516D-01  0.531558D-01  0.528725D-01  0.408284D-01
      7   0.249607D+00  0.272114D+00  0.531420D+00  0.713068D-01  0.141072D+00
      8  -0.871729D-01 -0.187733D-01 -0.312833D+00  0.220238D-01 -0.111416D+00
      9   0.105664D+00  0.679923D+00 -0.306975D+00  0.270504D+00 -0.804395D-01
     10  -0.325438D+00 -0.903594D-01  0.122427D+00 -0.500022D-01 -0.174643D-01
     11   0.737323D+00 -0.986644D+00 -0.665312D+00  0.510730D-01  0.251356D+00
     12   0.643548D-01  0.359693D-01  0.337191D-01 -0.823424D-02  0.525990D-01
     13  -0.198088D+00  0.698925D-01 -0.121862D+00 -0.988106D-02 -0.171248D-01
     14  -0.107436D+00 -0.169620D-01 -0.326216D-01 -0.887228D-01  0.396326D-02
     15  -0.198198D+00 -0.879940D+00  0.226749D+00 -0.282052D+00  0.180599D+00
     16  -0.121767D+00  0.158896D-01 -0.327170D+00 -0.431697D-01 -0.295884D+00
               661           662           663           664           665 
      1  -0.146376D+03 -0.146370D+03 -0.146349D+03 -0.146328D+03 -0.146319D+03
      2  -0.600587D-01  0.108686D-01 -0.413373D-01 -0.228015D-02 -0.166773D-01
      3   0.669099D-02 -0.768766D-02 -0.152696D-01 -0.291966D-01 -0.409503D-02
      4  -0.462822D-02  0.174716D-01  0.366441D-01 -0.129147D-01  0.228974D-01
      5   0.201447D+00 -0.281211D-01  0.127162D+00  0.819272D-02  0.457323D-01
      6  -0.871880D-02  0.124788D-01  0.482745D-01  0.801294D-01  0.169848D-01
      7   0.182639D-01 -0.490141D-01 -0.128890D+00  0.361614D-01 -0.775138D-01
      8  -0.163321D-01  0.948874D-02 -0.567521D-01 -0.391394D-01  0.572684D-01
      9  -0.146453D+00 -0.505883D-01  0.168819D+01 -0.484195D-01  0.288814D+00
     10  -0.223428D+00  0.456032D-01  0.171188D+00 -0.629470D-01 -0.112473D+00
     11   0.382723D+00 -0.497766D+00  0.326852D+00  0.485951D+00  0.150122D+00
     12  -0.926948D-01  0.207644D+00  0.711049D-02  0.313217D-01 -0.158183D-01
     13  -0.275851D-01  0.403643D-01  0.157794D+00  0.370110D-01  0.551564D-01
     14  -0.292209D+00 -0.109155D-01  0.680315D-01 -0.486610D-01 -0.364320D+00
     15   0.191574D+00  0.712408D-01 -0.183628D+01  0.532494D-01 -0.453818D+00
     16  -0.112639D+00 -0.823335D-01 -0.352799D-01 -0.256841D-01  0.116414D+00
               666           667           668           669           670 
      1  -0.146306D+03 -0.146297D+03 -0.146285D+03 -0.146273D+03 -0.146266D+03
      2  -0.263137D-01  0.690210D-02 -0.235974D-01  0.365161D-01  0.523169D-03
      3  -0.563687D-01 -0.354870D-02  0.127856D-03  0.916113D-02 -0.455974D-01
      4  -0.237392D-01  0.117499D-01  0.465790D-01  0.234536D-01  0.422498D-01
      5   0.638005D-01 -0.281533D-01  0.711862D-01 -0.115357D+00  0.599264D-02
      6   0.177898D+00  0.198970D-01 -0.120830D-02 -0.278000D-01  0.130851D+00
      7   0.671016D-01 -0.355690D-01 -0.150471D+00 -0.789782D-01 -0.130383D+00
      8  -0.388271D-01 -0.352998D-01  0.321984D-01  0.379411D-01  0.283959D-01
      9   0.282449D-01 -0.884641D+00  0.487359D+00  0.282634D+00  0.396713D-01
     10  -0.220038D+00 -0.103064D+00 -0.135792D+00 -0.131216D-01 -0.180142D+00
     11   0.497888D+00 -0.653768D-01  0.269645D+00  0.518148D+00 -0.683418D+00
     12  -0.180801D+00 -0.531363D-01 -0.202597D-01 -0.239565D+00  0.220986D+00
     13   0.115450D+00 -0.880358D-01  0.111610D+00  0.186461D-01  0.163758D+00
     14  -0.508833D+00 -0.674744D-01 -0.160011D+00 -0.686545D-01 -0.213198D+00
     15  -0.415879D-04  0.950755D+00 -0.489287D+00 -0.297128D+00  0.614065D-01
     16  -0.954628D-01 -0.495348D-01  0.885056D-01  0.637942D-01  0.809940D-01
               671           672           673           674           675 
      1  -0.146264D+03 -0.146260D+03 -0.146248D+03 -0.146227D+03 -0.146218D+03
      2   0.111599D-01 -0.345403D-02 -0.727905D-01 -0.339913D-02 -0.450701D-01
      3  -0.770706D-02  0.664815D-03  0.122873D+00 -0.146839D-01 -0.115992D+00
      4  -0.935135D-02 -0.112648D-01  0.326472D-01 -0.407756D-01  0.250569D-01
      5  -0.347910D-01  0.134327D-01  0.247354D+00  0.111704D-03  0.168326D+00
      6   0.241602D-01 -0.325161D-02 -0.397183D+00  0.455912D-01  0.361560D+00
      7   0.399543D-01  0.364128D-01 -0.999460D-01  0.115876D+00 -0.756628D-01
      8   0.600717D-03 -0.739079D-01 -0.487294D-02 -0.185358D-01  0.160440D-01
      9  -0.730391D-01 -0.227565D+00  0.264123D+00  0.338978D-01  0.107196D+00
     10   0.183748D-01  0.245385D+00 -0.985409D-01 -0.126216D+00 -0.786057D+00
     11   0.679143D+00  0.361137D+00  0.109891D+01  0.241508D+00 -0.506714D+00
     12  -0.171689D+00 -0.588380D-01  0.554122D-02 -0.554014D-02  0.560848D-01
     13   0.686774D-01 -0.484759D-01 -0.127127D-01  0.148001D+00 -0.103538D+00
     14   0.393181D-01  0.248066D+00 -0.358045D+00 -0.940151D-01 -0.971867D+00
     15   0.829960D-01  0.131969D+00 -0.281830D+00 -0.381193D-01 -0.138215D+00
     16  -0.637921D-01 -0.776182D-01  0.504865D-01  0.865064D-01  0.385633D-01
               676           677           678           679           680 
      1  -0.146203D+03 -0.146195D+03 -0.146183D+03 -0.146156D+03 -0.146150D+03
      2   0.525881D-02 -0.162912D-01  0.547723D-01 -0.721292D-01  0.168208D-01
      3  -0.339506D-01 -0.111001D-01  0.980948D-01 -0.453564D-01  0.199889D-01
      4   0.643382D-02  0.991211D-01 -0.834501D-02 -0.103905D-01  0.158746D-01
      5  -0.572771D-02  0.522113D-01 -0.173507D+00  0.253325D+00 -0.431242D-01
      6   0.101216D+00  0.329843D-01 -0.305964D+00  0.148836D+00 -0.747845D-01
      7  -0.178473D-01 -0.301850D+00  0.248451D-01  0.369200D-01 -0.494839D-01
      8  -0.350193D-01  0.197907D+00 -0.493225D-01 -0.172039D-01  0.121521D-01
      9  -0.837010D-01  0.646332D-01  0.509812D-01 -0.166454D+00  0.490823D-01
     10  -0.478914D-01  0.105100D+00  0.867125D-01 -0.211354D+00 -0.142320D+00
     11  -0.126002D+00  0.283678D+00  0.103958D+00  0.422200D+00  0.527423D+00
     12   0.422531D-01 -0.567743D-01 -0.207904D-01 -0.118677D+00  0.151601D+00
     13   0.360951D-01  0.129327D+00 -0.372310D-01 -0.762998D-01 -0.112166D+00
     14  -0.753542D-01  0.328645D-01  0.350996D+00 -0.473407D+00 -0.441308D+00
     15   0.790951D-01  0.373913D-01  0.117247D-01  0.144105D+00 -0.636137D-01
     16  -0.486271D-01  0.264324D+00 -0.564036D-01 -0.482986D-01  0.100158D+00
               681           682           683           684           685 
      1  -0.146143D+03 -0.146133D+03 -0.146122D+03 -0.146089D+03 -0.146081D+03
      2   0.204284D-01  0.127678D-01 -0.289076D-01 -0.118815D-01 -0.757728D-02
      3   0.284013D-02 -0.379830D-01 -0.836386D-01  0.525881D-02 -0.295997D-01
      4   0.865436D-02 -0.568946D-01 -0.317368D-01 -0.217182D-01  0.661366D-02
      5  -0.616803D-01 -0.406440D-01  0.817923D-01  0.387655D-01  0.224748D-01
      6   0.870232D-04  0.122672D+00  0.259007D+00 -0.155218D-01  0.111045D+00
      7  -0.282049D-01  0.189737D+00  0.100882D+00  0.611493D-01 -0.198513D-01
      8   0.200988D-01 -0.650029D-01 -0.274697D-01  0.337025D-01 -0.354534D-01
      9   0.257853D-02 -0.141567D-01 -0.225614D+00 -0.184292D+00  0.213740D-01
     10  -0.513136D-01  0.782545D-01  0.552518D+00 -0.174426D+00 -0.293344D+00
     11   0.201354D+00 -0.346595D+00  0.327432D+00 -0.537770D+00 -0.100271D+01
     12   0.138492D-01 -0.349389D-01  0.577428D-01 -0.146773D+00 -0.207134D+00
     13  -0.558730D-01 -0.609648D-01  0.350285D-01  0.961061D-01  0.341024D-01
     14  -0.263825D+00  0.112954D+00  0.453431D+00 -0.157415D+00 -0.432777D+00
     15   0.102948D-01  0.374554D-01  0.215565D+00  0.222990D+00  0.367200D-01
     16   0.339952D-01  0.197991D+00 -0.897873D-01  0.153234D-01 -0.706139D-01
               686           687           688           689           690 
      1  -0.146071D+03 -0.146058D+03 -0.146056D+03 -0.146038D+03 -0.146024D+03
      2  -0.513897D-01 -0.975945D-02  0.599382D-02  0.220350D-01  0.715092D-01
      3   0.810460D-01 -0.263947D-01 -0.382186D-02  0.911480D-01  0.700659D-01
      4  -0.161424D-01  0.165692D-02 -0.223533D-01  0.141519D-01  0.889202D-02
      5   0.173685D+00  0.444181D-01 -0.108583D-01 -0.850321D-01 -0.245107D+00
      6  -0.269600D+00  0.759509D-01  0.149264D-01 -0.306351D+00 -0.243959D+00
      7   0.564476D-01 -0.631312D-02  0.734802D-01 -0.431140D-01 -0.304320D-01
      8  -0.293160D-01 -0.113853D-01 -0.180597D-01  0.505912D-02 -0.426671D-02
      9  -0.142155D+00 -0.145078D+00  0.254872D+00  0.127563D+00  0.727597D-01
     10  -0.272264D+00 -0.177814D-01 -0.516642D-01  0.354707D+00  0.587807D-01
     11  -0.116014D+01  0.205807D+00 -0.204786D+00  0.119980D+01  0.427850D+00
     12  -0.156377D+00  0.153485D-01 -0.110359D-01 -0.457112D-01  0.378983D-01
     13   0.528267D-01  0.126028D-01  0.184854D-01  0.531443D-01  0.531824D-01
     14  -0.414315D+00 -0.291684D+00 -0.866010D-01  0.572507D+00  0.588709D-01
     15   0.154837D+00  0.920580D-01 -0.277518D+00 -0.148726D+00 -0.610249D-01
     16   0.600270D-01 -0.543690D-01 -0.391409D-01  0.275556D-01  0.401956D-01
               691           692           693           694           695 
      1  -0.146013D+03 -0.145999D+03 -0.145992D+03 -0.145974D+03 -0.145965D+03
      2   0.115790D-01  0.224030D-01 -0.138920D-01 -0.121771D+00 -0.621948D-01
      3   0.154292D-01  0.248195D-01 -0.812101D-02 -0.469128D-01  0.486877D-01
      4  -0.152309D-01  0.117482D-01  0.182426D-01  0.225976D-01 -0.184867D-01
      5  -0.547515D-01 -0.683964D-01  0.282777D-01  0.432964D+00  0.238513D+00
      6  -0.593533D-01 -0.817958D-01  0.317673D-01  0.172106D+00 -0.182749D+00
      7   0.518681D-01 -0.499618D-01 -0.526514D-01 -0.729877D-01  0.645096D-01
      8   0.351409D-02  0.330349D-01 -0.156717D-01  0.465422D-01 -0.204292D-01
      9  -0.108297D+00 -0.428817D-01 -0.903353D-01  0.103954D+00 -0.175890D+00
     10   0.519266D+00 -0.655744D-02  0.532969D-01  0.728279D+00  0.399439D+00
     11   0.144571D+01  0.199362D-01  0.110895D+00 -0.116665D+01  0.148920D+01
     12  -0.695042D-01 -0.575227D-01  0.150073D-01 -0.101837D+00  0.121392D+00
     13  -0.656469D-01 -0.113008D-01 -0.984704D-02  0.696490D-01  0.219567D-01
     14   0.539092D+00  0.930590D-01  0.106444D+00  0.588226D+00  0.336450D+00
     15   0.704884D-01 -0.664277D-02  0.677719D-02 -0.139434D+00  0.450255D-01
     16  -0.374120D-01 -0.809829D-01 -0.148081D-01 -0.503182D-01  0.231677D-01
               696           697           698           699           700 
      1  -0.145945D+03 -0.145934D+03 -0.145928D+03 -0.145906D+03 -0.145883D+03
      2   0.136265D-01 -0.466401D-01  0.158809D-01  0.171084D-01  0.484281D-01
      3  -0.636929D-02  0.113540D-01 -0.284475D-01  0.457925D-03 -0.577331D-01
      4   0.159191D-01 -0.878647D-02  0.945124D-02  0.901909D-02  0.805342D-02
      5  -0.525359D-01  0.154064D+00 -0.654077D-01 -0.561503D-01 -0.189747D+00
      6   0.345242D-01 -0.311540D-01  0.963405D-01  0.486773D-02  0.197830D+00
      7  -0.562247D-01  0.275995D-01 -0.318094D-01 -0.287444D-01 -0.257323D-01
      8   0.346757D-01 -0.257876D-01  0.408794D-01  0.187642D-01  0.118593D-01
      9   0.109483D+00 -0.162516D-01  0.114524D+00 -0.134784D+00  0.936946D-01
     10   0.441257D+00 -0.729084D+00  0.312988D-01 -0.149250D-01 -0.411354D+00
     11   0.526944D-01  0.231518D+00  0.229456D+00 -0.217675D+00  0.977010D+00
     12   0.321920D-01  0.266363D+00  0.849685D-01  0.229033D-01 -0.260135D+00
     13  -0.184295D+00 -0.104583D+00 -0.171687D+00 -0.310961D-01 -0.158131D+00
     14   0.680539D+00 -0.846055D+00 -0.167356D-01  0.533721D-01 -0.355822D+00
     15  -0.688608D-01 -0.297710D-01 -0.106662D+00  0.101161D+00 -0.897754D-01
     16  -0.231897D-01  0.668837D-01  0.255831D-01  0.634355D-01 -0.197875D-01
               701           702           703           704           705 
      1  -0.145862D+03 -0.145856D+03 -0.145845D+03 -0.145827D+03 -0.145819D+03
      2  -0.357464D-01  0.102838D-01  0.417303D-01  0.337273D-01 -0.165008D-01
      3  -0.428721D-01  0.228001D-01  0.233086D-01 -0.412052D-01 -0.131833D-01
      4   0.697675D-02 -0.163954D-02 -0.138473D-01  0.616793D-02  0.743781D-02
      5   0.142964D+00 -0.360477D-01 -0.119410D+00 -0.896973D-01  0.454829D-01
      6   0.141756D+00 -0.673515D-01 -0.854128D-01  0.137970D+00  0.476510D-01
      7  -0.173121D-01  0.157144D-01  0.428637D-01 -0.229302D-01 -0.315757D-01
      8   0.277301D-01  0.925362D-02 -0.155357D-01  0.121560D-01  0.139722D-01
      9   0.664738D-01  0.756405D-01 -0.977973D-01  0.507657D-01  0.812827D-01
     10   0.213265D+00 -0.215918D+00 -0.966047D-01 -0.166288D+00  0.372291D+00
     11   0.104501D+01 -0.299501D+00  0.206440D+00 -0.811950D-02 -0.122820D+01
     12   0.814506D-01 -0.366653D-01 -0.863698D-01  0.193459D+00 -0.702686D-01
     13  -0.177091D-01  0.510399D-02  0.132620D-01 -0.148308D+00 -0.290099D-01
     14   0.253151D+00 -0.233203D+00 -0.216870D+00 -0.327119D+00  0.371542D+00
     15  -0.156089D+00 -0.837640D-01  0.939490D-01 -0.449194D-01  0.210373D-02
     16   0.111323D-02  0.628181D-01  0.127705D-01  0.357013D-01 -0.434204D-01
               706           707           708           709           710 
      1  -0.145769D+03 -0.145760D+03 -0.145733D+03 -0.145716D+03 -0.145695D+03
      2  -0.456524D-01  0.698443D-02  0.751932D-01 -0.230828D-01 -0.272084D-01
      3  -0.291090D-01 -0.125982D-01  0.229257D-01  0.833289D-01  0.136689D-01
      4   0.974973D-02 -0.129284D-01  0.289840D-01  0.640813D-02 -0.561981D-02
      5   0.193142D+00 -0.132825D-01 -0.290561D+00  0.945999D-01  0.930623D-01
      6   0.103262D+00  0.383991D-01 -0.871811D-01 -0.309563D+00 -0.670334D-01
      7  -0.367327D-01  0.461054D-01 -0.997214D-01 -0.215582D-01  0.202904D-01
      8  -0.422108D-02 -0.248038D-01  0.254877D-01 -0.114351D-01 -0.130437D-01
      9   0.745967D-01 -0.100295D+00  0.218245D+00  0.591434D-01 -0.408401D-01
     10  -0.714775D+00 -0.344852D+00 -0.291273D+00 -0.332017D+00 -0.125840D+00
     11   0.746588D-01 -0.921378D-02 -0.894827D+00 -0.700677D+00 -0.403254D+00
     12  -0.470929D-01  0.126202D+00  0.230262D+00  0.320789D+00  0.218924D+00
     13  -0.819910D-01  0.112194D+00 -0.900564D-01 -0.234157D-01  0.953175D-01
     14  -0.594737D+00 -0.386548D+00 -0.779490D-01 -0.205279D+00 -0.179380D+00
     15  -0.824966D-01  0.772059D-01 -0.638520D-01 -0.377464D-01  0.265245D-01
     16   0.317956D-01  0.826905D-02  0.795130D-01  0.925576D-01  0.375334D-01
               711           712           713           714           715 
      1  -0.145684D+03 -0.145652D+03 -0.145640D+03 -0.145622D+03 -0.145594D+03
      2   0.638948D-01  0.950369D-03 -0.101034D-02 -0.502216D-01  0.120774D-01
      3  -0.166868D-01  0.151266D-01 -0.112266D-01 -0.119508D-02  0.281233D-01
      4   0.137813D-01  0.443991D-02 -0.651897D-02 -0.139683D-01 -0.810250D-03
      5  -0.247292D+00 -0.106093D-01 -0.152611D-01  0.178637D+00 -0.518974D-01
      6   0.807326D-01 -0.643045D-01  0.451454D-01 -0.817029D-02 -0.108420D+00
      7  -0.472629D-01 -0.156511D-01  0.257314D-01  0.465411D-01  0.160480D-02
      8   0.314621D-01  0.633705D-02 -0.115707D-01 -0.145141D-01 -0.200772D-01
      9   0.106872D+00  0.172110D-01 -0.293822D-01 -0.119938D+00 -0.144517D-01
     10   0.346500D+00 -0.545816D-02 -0.168297D+00  0.144839D+00 -0.562112D+00
     11  -0.797709D+00  0.797200D+00 -0.263044D+00  0.391344D+00  0.372767D+00
     12   0.356470D-01  0.603268D-01  0.106753D+00  0.549426D-02  0.206356D+00
     13   0.733140D-02 -0.889632D-01  0.550967D-01  0.707037D-01 -0.778062D-01
     14   0.555430D+00 -0.681104D-01 -0.142116D+00  0.196722D+00 -0.413298D+00
     15   0.676283D-02 -0.508980D-01  0.355983D-01  0.585771D-01  0.310111D-01
     16  -0.228934D-01  0.210019D-01  0.155107D-01 -0.325041D-01  0.632570D-01
               716           717           718           719           720 
      1  -0.145556D+03 -0.145445D+03 -0.145387D+03 -0.145330D+03 -0.145285D+03
      2  -0.861290D-03 -0.128108D-01 -0.280147D-01  0.179114D-01 -0.145432D-01
      3  -0.928366D-01  0.735210D-02 -0.281068D-01 -0.870966D-02  0.699094D-02
      4   0.314853D-02 -0.109646D-02 -0.124162D-02  0.164592D-02  0.159496D-03
      5   0.193831D-02  0.627114D-01  0.814225D-01 -0.513270D-01  0.402434D-01
      6   0.311982D+00 -0.229405D-01  0.100299D+00  0.170903D-01 -0.318943D-01
      7  -0.126582D-01  0.380455D-02  0.629284D-02 -0.777669D-02 -0.155369D-03
      8   0.199951D-01  0.661420D-02  0.478583D-02  0.569342D-02 -0.873233D-02
      9   0.476876D-01  0.525434D-02 -0.112022D-01  0.348797D-01  0.284174D-02
     10   0.194874D+00  0.307141D+00  0.801795D-01 -0.709279D-01 -0.354162D+00
     11   0.849501D-01  0.114780D-01  0.194940D+00 -0.721431D+00 -0.152593D+00
     12   0.986813D-01  0.123486D+00 -0.980736D-01  0.868992D-01  0.141848D+00
     13  -0.909999D-01  0.608934D-01 -0.128162D-01  0.383950D-01 -0.437250D-02
     14   0.258833D+00  0.114644D+00 -0.692290D-01 -0.271245D-01 -0.265834D+00
     15  -0.396551D-01 -0.328761D-01 -0.279946D-01  0.114064D-01  0.114390D-01
     16  -0.655646D-01 -0.138428D-02 -0.359436D-01  0.221866D-01  0.474098D-01
 Unable to Open any file for archive entry.
 1\1\GINC-HEL23\SP\RLC-wHPBE TD-FC\Gen\C1H4N2\SABYASACHI\21-Mar-2022\0\
 \#P TD(Nstates=10000) lc-whpbe/Gen SCF(maxcycles=100) Int(Grid=ultrafi
 ne)\\xGDB7_00001_tier4.com\\0,1\N,0,1.111035,-0.177046,-0.052467\C,0,-
 0.122009,0.419593,0.001774\N,0,-1.267607,-0.121443,0.008098\H,0,1.9205
 58,0.367802,0.180104\H,0,1.1807,-1.165617,0.115308\H,0,-0.065701,1.508
 813,0.004046\H,0,-1.207497,-1.139126,0.000481\\Version=EM64L-G16RevC.0
 1\State=1-A\HF=-149.812729\RMSD=2.437e-09\PG=C01 [X(C1H4N2)]\\@
 The archive entry for this job was punched.


 THERE IS AN OLD, OLD RECIPE IN MAINE FOR STEWING COOT. PLACE THE
 BIRD IN A KETTLE OF WATER WITH A RED BUILDING BRICK FREE OF MORTAR AND
 BLEMISHES. PARBOIL THE COOT AND BRICK TOGETHER FOR THREE HOURS.
 POUR OFF THE WATER, REFILL THE KETTLE, AND AGAIN PARBOIL FOR THREE HOURS.
 ONCE AGAIN POUR OFF THE WATER, FOR THE LAST TIME ADD FRESH WATER,
 AND LET THE COOT AND BRICK SIMMER TOGETHER OVERNIGHT. IN THE MORNING,
 THROW AWAY THE COOT AND EAT THE BRICK.
 Job cpu time:       0 days  0 hours 10 minutes 52.0 seconds.
 Elapsed time:       0 days  0 hours  1 minutes 21.9 seconds.
 File lengths (MBytes):  RWF=    666 Int=      0 D2E=      0 Chk=    150 Scr=      1
 Normal termination of Gaussian 16 at Mon Mar 21 20:10:38 2022.
