 Entering Gaussian System, Link 0=g16
 Input=000009.com
 Output=000009.log
 Initial command:
 /home/sabyasachi/g16/l1.exe "/scratch/sabyasachi/PBS_7976242.helios/Gau-157645.inp" -scrdir="/scratch/sabyasachi/PBS_7976242.helios/"
 Entering Link 1 = /home/sabyasachi/g16/l1.exe PID=    157646.
  
 Copyright (c) 1988-2019, Gaussian, Inc.  All Rights Reserved.
  
 This is part of the Gaussian(R) 16 program.  It is based on
 the Gaussian(R) 09 system (copyright 2009, Gaussian, Inc.),
 the Gaussian(R) 03 system (copyright 2003, Gaussian, Inc.),
 the Gaussian(R) 98 system (copyright 1998, Gaussian, Inc.),
 the Gaussian(R) 94 system (copyright 1995, Gaussian, Inc.),
 the Gaussian 92(TM) system (copyright 1992, Gaussian, Inc.),
 the Gaussian 90(TM) system (copyright 1990, Gaussian, Inc.),
 the Gaussian 88(TM) system (copyright 1988, Gaussian, Inc.),
 the Gaussian 86(TM) system (copyright 1986, Carnegie Mellon
 University), and the Gaussian 82(TM) system (copyright 1983,
 Carnegie Mellon University). Gaussian is a federally registered
 trademark of Gaussian, Inc.
  
 This software contains proprietary and confidential information,
 including trade secrets, belonging to Gaussian, Inc.
  
 This software is provided under written license and may be
 used, copied, transmitted, or stored only in accord with that
 written license.
  
 The following legend is applicable only to US Government
 contracts under FAR:
  
                    RESTRICTED RIGHTS LEGEND
  
 Use, reproduction and disclosure by the US Government is
 subject to restrictions as set forth in subparagraphs (a)
 and (c) of the Commercial Computer Software - Restricted
 Rights clause in FAR 52.227-19.
  
 Gaussian, Inc.
 340 Quinnipiac St., Bldg. 40, Wallingford CT 06492
  
  
 ---------------------------------------------------------------
 Warning -- This program may not be used in any manner that
 competes with the business of Gaussian, Inc. or will provide
 assistance to any competitor of Gaussian, Inc.  The licensee
 of this program is prohibited from giving any competitor of
 Gaussian, Inc. access to this program.  By using this program,
 the user acknowledges that Gaussian, Inc. is engaged in the
 business of creating and licensing software in the field of
 computational chemistry and represents and warrants to the
 licensee that it is not a competitor of Gaussian, Inc. and that
 it will not use this program in any manner prohibited above.
 ---------------------------------------------------------------
  

 Cite this work as:
 Gaussian 16, Revision C.01,
 M. J. Frisch, G. W. Trucks, H. B. Schlegel, G. E. Scuseria, 
 M. A. Robb, J. R. Cheeseman, G. Scalmani, V. Barone, 
 G. A. Petersson, H. Nakatsuji, X. Li, M. Caricato, A. V. Marenich, 
 J. Bloino, B. G. Janesko, R. Gomperts, B. Mennucci, H. P. Hratchian, 
 J. V. Ortiz, A. F. Izmaylov, J. L. Sonnenberg, D. Williams-Young, 
 F. Ding, F. Lipparini, F. Egidi, J. Goings, B. Peng, A. Petrone, 
 T. Henderson, D. Ranasinghe, V. G. Zakrzewski, J. Gao, N. Rega, 
 G. Zheng, W. Liang, M. Hada, M. Ehara, K. Toyota, R. Fukuda, 
 J. Hasegawa, M. Ishida, T. Nakajima, Y. Honda, O. Kitao, H. Nakai, 
 T. Vreven, K. Throssell, J. A. Montgomery, Jr., J. E. Peralta, 
 F. Ogliaro, M. J. Bearpark, J. J. Heyd, E. N. Brothers, K. N. Kudin, 
 V. N. Staroverov, T. A. Keith, R. Kobayashi, J. Normand, 
 K. Raghavachari, A. P. Rendell, J. C. Burant, S. S. Iyengar, 
 J. Tomasi, M. Cossi, J. M. Millam, M. Klene, C. Adamo, R. Cammi, 
 J. W. Ochterski, R. L. Martin, K. Morokuma, O. Farkas, 
 J. B. Foresman, and D. J. Fox, Gaussian, Inc., Wallingford CT, 2019.
 
 ******************************************
 Gaussian 16:  EM64L-G16RevC.01  3-Jul-2019
                21-Mar-2022 
 ******************************************
 %mem=64gb
 %nproc=8
 Will use up to    8 processors via shared memory.
 ----------------------------------------------------------------------
 #P TD(Nstates=10000) lc-whpbe/Gen SCF(maxcycles=100) Int(Grid=ultrafin
 e)
 ----------------------------------------------------------------------
 1/38=1,172=1/1;
 2/12=2,17=6,18=5,40=1/2;
 3/5=7,11=9,25=1,30=1,74=-71,75=-5/1,2,3,8;
 4//1;
 5/5=2,7=100,38=5/2;
 8/6=1,10=1,108=10000/1;
 9/41=10000,42=1,70=2/14;
 6/7=2,8=2,9=2,10=2/1;
 99/5=1,9=1/99;
 Leave Link    1 at Mon Mar 21 20:16:48 2022, MaxMem=  8589934592 cpu:               0.4 elap:               0.1
 (Enter /home/sabyasachi/g16/l101.exe)
 ---------------------
 xGDB7_00001_tier4.com
 ---------------------
 Symbolic Z-matrix:
 Charge =  0 Multiplicity = 1
 9                     0.        0.        0.68819 
 9                     0.        0.       -0.68819 
 
 ITRead=  0  0
 MicOpt= -1 -1
 NAtoms=      2 NQM=        2 NQMF=       0 NMMI=      0 NMMIF=      0
                NMic=       0 NMicF=      0.
                    Isotopes and Nuclear Properties:
 (Nuclear quadrupole moments (NQMom) in fm**2, nuclear magnetic moments (NMagM)
  in nuclear magnetons)

  Atom         1           2
 IAtWgt=          19          19
 AtmWgt=  18.9984033  18.9984033
 NucSpn=           1           1
 AtZEff=  -0.0000000  -0.0000000
 NQMom=    0.0000000   0.0000000
 NMagM=    2.6288670   2.6288670
 AtZNuc=   9.0000000   9.0000000
 Leave Link  101 at Mon Mar 21 20:16:48 2022, MaxMem=  8589934592 cpu:               0.6 elap:               0.1
 (Enter /home/sabyasachi/g16/l202.exe)
                          Input orientation:                          
 ---------------------------------------------------------------------
 Center     Atomic      Atomic             Coordinates (Angstroms)
 Number     Number       Type             X           Y           Z
 ---------------------------------------------------------------------
      1          9           0        0.000000    0.000000    0.688193
      2          9           0        0.000000    0.000000   -0.688193
 ---------------------------------------------------------------------
 Stoichiometry    F2
 Framework group  D*H[C*(F.F)]
 Deg. of freedom     1
 Full point group                 D*H     NOp   8
 Largest Abelian subgroup         D2H     NOp   8
 Largest concise Abelian subgroup C2      NOp   2
                         Standard orientation:                         
 ---------------------------------------------------------------------
 Center     Atomic      Atomic             Coordinates (Angstroms)
 Number     Number       Type             X           Y           Z
 ---------------------------------------------------------------------
      1          9           0        0.000000    0.000000    0.688193
      2          9           0        0.000000    0.000000   -0.688193
 ---------------------------------------------------------------------
 Rotational constants (GHZ):           0.0000000          28.0833945          28.0833945
 Leave Link  202 at Mon Mar 21 20:16:48 2022, MaxMem=  8589934592 cpu:               0.1 elap:               0.0
 (Enter /home/sabyasachi/g16/l301.exe)
 General basis read from cards:  (5D, 7F)
 Centers:       1      2
 S 5 1.00
     Exponent=  2.8948325990D+03 Coefficients= -5.3408255515D-03
     Exponent=  4.3541939120D+02 Coefficients= -3.9904258866D-02
     Exponent=  9.8843328866D+01 Coefficients= -1.7912768038D-01
     Exponent=  2.7485198001D+01 Coefficients= -4.6758090825D-01
     Exponent=  8.5405498171D+00 Coefficients= -4.4653131020D-01
 S 1 1.00
     Exponent=  1.0654578038D+00 Coefficients=  1.0000000000D+00
 S 1 1.00
     Exponent=  3.3247346748D-01 Coefficients=  1.0000000000D+00
 S 1 1.00
     Exponent=  9.8097752264D-02 Coefficients=  1.0000000000D+00
 P 3 1.00
     Exponent=  2.2696633924D+01 Coefficients= -4.5212874436D-02
     Exponent=  4.9872339257D+00 Coefficients= -2.3754317067D-01
     Exponent=  1.3491613954D+00 Coefficients= -5.1287353587D-01
 P 1 1.00
     Exponent=  3.4829881977D-01 Coefficients=  1.0000000000D+00
 P 1 1.00
     Exponent=  8.3372148304D-02 Coefficients=  1.0000000000D+00
 D 1 1.00
     Exponent=  1.4000000000D+00 Coefficients=  1.0000000000D+00
 D 1 1.00
     Exponent=  2.2301361948D-01 Coefficients=  1.0000000000D+00
 ****
 Ernie: Thresh=  0.10000D-02 Tol=  0.10000D-05 Strict=F.
 There are    13 symmetry adapted cartesian basis functions of AG  symmetry.
 There are     2 symmetry adapted cartesian basis functions of B1G symmetry.
 There are     5 symmetry adapted cartesian basis functions of B2G symmetry.
 There are     5 symmetry adapted cartesian basis functions of B3G symmetry.
 There are     2 symmetry adapted cartesian basis functions of AU  symmetry.
 There are    13 symmetry adapted cartesian basis functions of B1U symmetry.
 There are     5 symmetry adapted cartesian basis functions of B2U symmetry.
 There are     5 symmetry adapted cartesian basis functions of B3U symmetry.
 There are    11 symmetry adapted basis functions of AG  symmetry.
 There are     2 symmetry adapted basis functions of B1G symmetry.
 There are     5 symmetry adapted basis functions of B2G symmetry.
 There are     5 symmetry adapted basis functions of B3G symmetry.
 There are     2 symmetry adapted basis functions of AU  symmetry.
 There are    11 symmetry adapted basis functions of B1U symmetry.
 There are     5 symmetry adapted basis functions of B2U symmetry.
 There are     5 symmetry adapted basis functions of B3U symmetry.
    46 basis functions,    70 primitive gaussians,    50 cartesian basis functions
     9 alpha electrons        9 beta electrons
       nuclear repulsion energy        31.1419573321 Hartrees.
 IExCor=33909 DFT=T Ex+Corr=LC-wHPBE ExCW=0 ScaHFX=  1.000000
 ScaDFX=  1.000000  1.000000  1.000000  1.000000 ScalE2=  1.000000  1.000000
 IRadAn=      5 IRanWt=     -1 IRanGd=            0 ICorTp=0 IEmpDi=  4
 HFx  wShort=  0.000000 wLong=  0.400000 cFull=  0.000000 cShort=  0.000000 cLong=  1.000000
 DFx  wShort=  0.000000 wLong=  0.400000 cFull=  0.000000 cShort=  1.000000 cLong=  0.000000
 NAtoms=    2 NActive=    2 NUniq=    1 SFac= 4.00D+00 NAtFMM=   60 NAOKFM=F Big=F
 Integral buffers will be    131072 words long.
 Raffenetti 1 integral format.
 Two-electron integral symmetry is turned on.
 Leave Link  301 at Mon Mar 21 20:16:48 2022, MaxMem=  8589934592 cpu:               0.4 elap:               0.1
 (Enter /home/sabyasachi/g16/l302.exe)
 NPDir=0 NMtPBC=     1 NCelOv=     1 NCel=       1 NClECP=     1 NCelD=      1
         NCelK=      1 NCelE2=     1 NClLst=     1 CellRange=     0.0.
 One-electron integrals computed using PRISM.
 One-electron integral symmetry used in STVInt
 NBasis=    46 RedAO= T EigKep=  2.60D-03  NBF=    11     2     5     5     2    11     5     5
 NBsUse=    46 1.00D-06 EigRej= -1.00D+00 NBFU=    11     2     5     5     2    11     5     5
 Precomputing XC quadrature grid using
 IXCGrd= 4 IRadAn=           5 IRanWt=          -1 IRanGd=           0 AccXCQ= 0.00D+00.
 Generated NRdTot=       0 NPtTot=           0 NUsed=           0 NTot=          32
 NSgBfM=    50    50    50    50    50 MxSgAt=     2 MxSgA2=     2.
 Leave Link  302 at Mon Mar 21 20:16:48 2022, MaxMem=  8589934592 cpu:               0.9 elap:               0.1
 (Enter /home/sabyasachi/g16/l303.exe)
 DipDrv:  MaxL=1.
 Leave Link  303 at Mon Mar 21 20:16:48 2022, MaxMem=  8589934592 cpu:               0.2 elap:               0.0
 (Enter /home/sabyasachi/g16/l308.exe)
 Leave Link  308 at Mon Mar 21 20:16:48 2022, MaxMem=  8589934592 cpu:               0.2 elap:               0.0
 (Enter /home/sabyasachi/g16/l401.exe)
 ExpMin= 8.34D-02 ExpMax= 2.89D+03 ExpMxC= 4.35D+02 IAcc=3 IRadAn=         5 AccDes= 0.00D+00
 Harris functional with IExCor=33909 and IRadAn=       5 diagonalized for initial guess.
 HarFok:  IExCor=33909 AccDes= 0.00D+00 IRadAn=         5 IDoV= 1 UseB2=F ITyADJ=14
 ICtDFT=  3500011 ScaDFX=  1.000000  1.000000  1.000000  1.000000
 FoFCou: FMM=F IPFlag=           0 FMFlag=      100000 FMFlg1=           0
         NFxFlg=           0 DoJE=T BraDBF=F KetDBF=T FulRan=T
         wScrn=  0.000000 ICntrl=       500 IOpCl=  0 I1Cent=   200000004 NGrid=           0
         NMat0=    1 NMatS0=      1 NMatT0=    0 NMatD0=    1 NMtDS0=    0 NMtDT0=    0
 Petite list used in FoFCou.
 Harris En= -195.514521619015    
 JPrj=0 DoOrth=F DoCkMO=F.
 Initial guess orbital symmetries:
       Occupied  (SGU) (SGG) (SGG) (SGU) (SGG) (PIU) (PIU) (PIG)
                 (PIG)
       Virtual   (SGU) (SGU) (SGG) (PIU) (PIU) (PIG) (PIG) (SGG)
                 (SGU) (DLTG) (DLTG) (PIU) (PIU) (SGU) (DLTU) (DLTU)
                 (PIG) (PIG) (SGG) (PIU) (PIU) (SGG) (SGU) (PIG)
                 (PIG) (SGG) (SGU) (SGG) (PIU) (PIU) (DLTG) (DLTG)
                 (DLTU) (DLTU) (PIG) (PIG) (SGU)
 The electronic state of the initial guess is 1-SGG.
 Leave Link  401 at Mon Mar 21 20:16:48 2022, MaxMem=  8589934592 cpu:               1.2 elap:               0.2
 (Enter /home/sabyasachi/g16/l502.exe)
 Keep R1 ints in memory in symmetry-blocked form, NReq=8208712.
 FoFCou: FMM=F IPFlag=           0 FMFlag=           0 FMFlg1=           0
         NFxFlg=           0 DoJE=F BraDBF=F KetDBF=F FulRan=T
         wScrn=  0.000000 ICntrl=       600 IOpCl=  0 I1Cent=           0 NGrid=           0
         NMat0=    1 NMatS0=   1081 NMatT0=    0 NMatD0=    1 NMtDS0=    0 NMtDT0=    0
 Petite list used in FoFCou.
 Closed shell SCF:
 Using DIIS extrapolation, IDIIS=  1040.
 NGot=  8589934592 LenX=  8589844957 LenY=  8589842016
 Requested convergence on RMS density matrix=1.00D-08 within 100 cycles.
 Requested convergence on MAX density matrix=1.00D-06.
 Requested convergence on             energy=1.00D-06.
 No special actions if energy rises.
 Integral accuracy reduced to 1.0D-05 until final iterations.

 Cycle   1  Pass 0  IDiag  1:
 E= -199.207736151763    
 DIIS: error= 3.61D-02 at cycle   1 NSaved=   1.
 NSaved= 1 IEnMin= 1 EnMin= -199.207736151763     IErMin= 1 ErrMin= 3.61D-02
 ErrMax= 3.61D-02  0.00D+00 EMaxC= 1.00D-01 BMatC= 6.20D-02 BMatP= 6.20D-02
 IDIUse=3 WtCom= 6.39D-01 WtEn= 3.61D-01
 Coeff-Com:  0.100D+01
 Coeff-En:   0.100D+01
 Coeff:      0.100D+01
 Gap=     0.519 Goal=   None    Shift=    0.000
 GapD=    0.519 DampG=2.000 DampE=0.500 DampFc=1.0000 IDamp=-1.
 RMSDP=5.53D-03 MaxDP=5.98D-02              OVMax= 7.10D-02

 Cycle   2  Pass 0  IDiag  1:
 E= -199.237345580065     Delta-E=       -0.029609428302 Rises=F Damp=F
 DIIS: error= 2.13D-02 at cycle   2 NSaved=   2.
 NSaved= 2 IEnMin= 2 EnMin= -199.237345580065     IErMin= 2 ErrMin= 2.13D-02
 ErrMax= 2.13D-02  0.00D+00 EMaxC= 1.00D-01 BMatC= 2.95D-02 BMatP= 6.20D-02
 IDIUse=3 WtCom= 7.87D-01 WtEn= 2.13D-01
 Coeff-Com:  0.404D+00 0.596D+00
 Coeff-En:   0.150D+00 0.850D+00
 Coeff:      0.350D+00 0.650D+00
 Gap=     0.504 Goal=   None    Shift=    0.000
 RMSDP=2.22D-03 MaxDP=3.27D-02 DE=-2.96D-02 OVMax= 2.41D-02

 Cycle   3  Pass 0  IDiag  1:
 E= -199.254451685769     Delta-E=       -0.017106105704 Rises=F Damp=F
 DIIS: error= 2.45D-03 at cycle   3 NSaved=   3.
 NSaved= 3 IEnMin= 3 EnMin= -199.254451685769     IErMin= 3 ErrMin= 2.45D-03
 ErrMax= 2.45D-03  0.00D+00 EMaxC= 1.00D-01 BMatC= 1.70D-04 BMatP= 2.95D-02
 IDIUse=3 WtCom= 9.75D-01 WtEn= 2.45D-02
 Coeff-Com: -0.251D-01 0.299D-01 0.995D+00
 Coeff-En:   0.000D+00 0.000D+00 0.100D+01
 Coeff:     -0.245D-01 0.292D-01 0.995D+00
 Gap=     0.502 Goal=   None    Shift=    0.000
 RMSDP=3.91D-04 MaxDP=4.10D-03 DE=-1.71D-02 OVMax= 4.25D-03

 Cycle   4  Pass 0  IDiag  1:
 E= -199.254635924718     Delta-E=       -0.000184238949 Rises=F Damp=F
 DIIS: error= 3.70D-04 at cycle   4 NSaved=   4.
 NSaved= 4 IEnMin= 4 EnMin= -199.254635924718     IErMin= 4 ErrMin= 3.70D-04
 ErrMax= 3.70D-04  0.00D+00 EMaxC= 1.00D-01 BMatC= 8.30D-06 BMatP= 1.70D-04
 IDIUse=3 WtCom= 9.96D-01 WtEn= 3.70D-03
 Coeff-Com: -0.182D-01-0.199D-01 0.186D+00 0.853D+00
 Coeff-En:   0.000D+00 0.000D+00 0.000D+00 0.100D+01
 Coeff:     -0.181D-01-0.199D-01 0.185D+00 0.853D+00
 Gap=     0.502 Goal=   None    Shift=    0.000
 RMSDP=6.94D-05 MaxDP=6.39D-04 DE=-1.84D-04 OVMax= 4.91D-04

 Cycle   5  Pass 0  IDiag  1:
 E= -199.254641719907     Delta-E=       -0.000005795189 Rises=F Damp=F
 DIIS: error= 3.46D-05 at cycle   5 NSaved=   5.
 NSaved= 5 IEnMin= 5 EnMin= -199.254641719907     IErMin= 5 ErrMin= 3.46D-05
 ErrMax= 3.46D-05  0.00D+00 EMaxC= 1.00D-01 BMatC= 4.80D-08 BMatP= 8.30D-06
 IDIUse=1 WtCom= 1.00D+00 WtEn= 0.00D+00
 Coeff-Com:  0.151D-02 0.352D-03-0.370D-01-0.719D-01 0.111D+01
 Coeff:      0.151D-02 0.352D-03-0.370D-01-0.719D-01 0.111D+01
 Gap=     0.502 Goal=   None    Shift=    0.000
 RMSDP=1.49D-05 MaxDP=1.48D-04 DE=-5.80D-06 OVMax= 1.23D-04

 Cycle   6  Pass 0  IDiag  1:
 E= -199.254641838790     Delta-E=       -0.000000118882 Rises=F Damp=F
 DIIS: error= 7.00D-06 at cycle   6 NSaved=   6.
 NSaved= 6 IEnMin= 6 EnMin= -199.254641838790     IErMin= 6 ErrMin= 7.00D-06
 ErrMax= 7.00D-06  0.00D+00 EMaxC= 1.00D-01 BMatC= 5.33D-10 BMatP= 4.80D-08
 IDIUse=1 WtCom= 1.00D+00 WtEn= 0.00D+00
 Coeff-Com: -0.142D-03 0.101D-03 0.566D-02 0.560D-02-0.194D+00 0.118D+01
 Coeff:     -0.142D-03 0.101D-03 0.566D-02 0.560D-02-0.194D+00 0.118D+01
 Gap=     0.502 Goal=   None    Shift=    0.000
 RMSDP=9.79D-07 MaxDP=9.14D-06 DE=-1.19D-07 OVMax= 2.11D-05

 Initial convergence to 1.0D-05 achieved.  Increase integral accuracy.
 Cycle   7  Pass 1  IDiag  1:
 E= -199.254615371890     Delta-E=        0.000026466899 Rises=F Damp=F
 DIIS: error= 6.79D-06 at cycle   1 NSaved=   1.
 NSaved= 1 IEnMin= 1 EnMin= -199.254615371890     IErMin= 1 ErrMin= 6.79D-06
 ErrMax= 6.79D-06  0.00D+00 EMaxC= 1.00D-01 BMatC= 8.41D-10 BMatP= 8.41D-10
 IDIUse=1 WtCom= 1.00D+00 WtEn= 0.00D+00
 Coeff-Com:  0.100D+01
 Coeff:      0.100D+01
 Gap=     0.502 Goal=   None    Shift=    0.000
 RMSDP=9.79D-07 MaxDP=9.14D-06 DE= 2.65D-05 OVMax= 6.05D-06

 Cycle   8  Pass 1  IDiag  1:
 E= -199.254615372353     Delta-E=       -0.000000000463 Rises=F Damp=F
 DIIS: error= 1.69D-06 at cycle   2 NSaved=   2.
 NSaved= 2 IEnMin= 2 EnMin= -199.254615372353     IErMin= 2 ErrMin= 1.69D-06
 ErrMax= 1.69D-06  0.00D+00 EMaxC= 1.00D-01 BMatC= 1.07D-10 BMatP= 8.41D-10
 IDIUse=1 WtCom= 1.00D+00 WtEn= 0.00D+00
 Coeff-Com:  0.200D+00 0.800D+00
 Coeff:      0.200D+00 0.800D+00
 Gap=     0.502 Goal=   None    Shift=    0.000
 RMSDP=1.83D-07 MaxDP=2.17D-06 DE=-4.63D-10 OVMax= 2.33D-06

 Cycle   9  Pass 1  IDiag  1:
 E= -199.254615372418     Delta-E=       -0.000000000065 Rises=F Damp=F
 DIIS: error= 4.77D-07 at cycle   3 NSaved=   3.
 NSaved= 3 IEnMin= 3 EnMin= -199.254615372418     IErMin= 3 ErrMin= 4.77D-07
 ErrMax= 4.77D-07  0.00D+00 EMaxC= 1.00D-01 BMatC= 1.25D-11 BMatP= 1.07D-10
 IDIUse=1 WtCom= 1.00D+00 WtEn= 0.00D+00
 Coeff-Com: -0.351D-01 0.209D+00 0.826D+00
 Coeff:     -0.351D-01 0.209D+00 0.826D+00
 Gap=     0.502 Goal=   None    Shift=    0.000
 RMSDP=5.67D-08 MaxDP=8.11D-07 DE=-6.49D-11 OVMax= 6.24D-07

 Cycle  10  Pass 1  IDiag  1:
 E= -199.254615372426     Delta-E=       -0.000000000008 Rises=F Damp=F
 DIIS: error= 7.28D-08 at cycle   4 NSaved=   4.
 NSaved= 4 IEnMin= 4 EnMin= -199.254615372426     IErMin= 4 ErrMin= 7.28D-08
 ErrMax= 7.28D-08  0.00D+00 EMaxC= 1.00D-01 BMatC= 1.35D-13 BMatP= 1.25D-11
 IDIUse=1 WtCom= 1.00D+00 WtEn= 0.00D+00
 Coeff-Com: -0.900D-02 0.187D-01 0.118D+00 0.872D+00
 Coeff:     -0.900D-02 0.187D-01 0.118D+00 0.872D+00
 Gap=     0.502 Goal=   None    Shift=    0.000
 RMSDP=6.99D-09 MaxDP=5.38D-08 DE=-8.36D-12 OVMax= 9.83D-08

 SCF Done:  E(RLC-wHPBE) =  -199.254615372     A.U. after   10 cycles
            NFock= 10  Conv=0.70D-08     -V/T= 2.0054
 KE= 1.981931211602D+02 PE=-5.377388768503D+02 EE= 1.091491829855D+02
 Leave Link  502 at Mon Mar 21 20:16:49 2022, MaxMem=  8589934592 cpu:               2.3 elap:               0.3
 (Enter /home/sabyasachi/g16/l801.exe)
 DoSCS=F DFT=T ScalE2(SS,OS)=  1.000000  1.000000
 ExpMin= 8.34D-02 ExpMax= 2.89D+03 ExpMxC= 4.35D+02 IAcc=3 IRadAn=         5 AccDes= 0.00D+00
 HarFok:  IExCor=  205 AccDes= 0.00D+00 IRadAn=         5 IDoV=-2 UseB2=F ITyADJ=14
 ICtDFT= 12500011 ScaDFX=  1.000000  1.000000  1.000000  1.000000
 Largest valence mixing into a core orbital is  3.23D-05
 Largest core mixing into a valence orbital is  1.11D-05
 Range of M.O.s used for correlation:     3    46
 NBasis=    46 NAE=     9 NBE=     9 NFC=     2 NFV=     0
 NROrb=     44 NOA=     7 NOB=     7 NVA=    37 NVB=    37
 Leave Link  801 at Mon Mar 21 20:16:49 2022, MaxMem=  8589934592 cpu:               0.4 elap:               0.1
 (Enter /home/sabyasachi/g16/l914.exe)
 RHF ground state
 Keep R1, R2, and R3 ints in memory in symmetry-blocked form, NReq=77772932.
 FoFCou: FMM=F IPFlag=           0 FMFlag=           0 FMFlg1=           0
         NFxFlg=           0 DoJE=F BraDBF=F KetDBF=F FulRan=T
         wScrn=  0.000000 ICntrl=       600 IOpCl=  0 I1Cent=           0 NGrid=           0
         NMat0=    1 NMatS0=   1081 NMatT0=    0 NMatD0=    1 NMtDS0=    0 NMtDT0=    0
 Petite list used in FoFCou.
 MDV=  8589934592 DFT=T DoStab=F Mixed=T DoRPA=T DoScal=F NonHer=T
 Making orbital integer symmetry assigments:
 Orbital symmetries:
       Occupied  (SGU) (SGG) (SGG) (SGU) (SGG) (PIU) (PIU) (PIG)
                 (PIG)
       Virtual   (SGU) (SGU) (SGG) (PIU) (PIU) (PIG) (PIG) (SGG)
                 (SGU) (DLTG) (DLTG) (PIU) (PIU) (SGU) (DLTU) (DLTU)
                 (SGG) (PIG) (PIG) (PIU) (PIU) (SGG) (SGU) (PIG)
                 (PIG) (SGG) (SGU) (SGG) (PIU) (PIU) (DLTG) (DLTG)
                 (DLTU) (DLTU) (PIG) (PIG) (SGU)
   259 initial guesses have been made.
 Convergence on wavefunction:    0.001000000000000
 Davidson Disk Diagonalization:  ConvIn= 1.00D-03 SkipCon=T Conv= 1.00D-03.
 Max sub-space:  1554 roots to seek:   518 dimension of matrix:          518
 *** WARNING: Number of orthogonal guesses is          259
 Iteration     1 Dimension   259 NMult     0 NNew    259
 CISAX will form   259 AO SS matrices at one time.
 NMat=   259 NSing=   259 JSym2X=-1.
 DSYEVD-2 returned Info=         519 IAlg= 4 N=   259 NDim=   259 NE2=    33164823 trying  DSYEV.
 New state      3 was old state      4
 New state      4 was old state      3
 New state      5 was old state      8
 New state      6 was old state      9
 New state      7 was old state      5
 New state      8 was old state      6
 New state      9 was old state      7
 New state     10 was old state     13
 New state     13 was old state     18
 New state     14 was old state     19
 New state     15 was old state     14
 New state     16 was old state     17
 New state     17 was old state     15
 New state     18 was old state     10
 New state     19 was old state     16
 New state     20 was old state     22
 New state     21 was old state     23
 New state     22 was old state     20
 New state     23 was old state     21
 New state     24 was old state     25
 New state     25 was old state     27
 New state     27 was old state     29
 New state     29 was old state     24
 New state     30 was old state     34
 New state     31 was old state     35
 New state     32 was old state     36
 New state     33 was old state     37
 New state     34 was old state     30
 New state     35 was old state     32
 New state     36 was old state     33
 New state     37 was old state     31
 New state     38 was old state     41
 New state     39 was old state     40
 New state     40 was old state     42
 New state     41 was old state     39
 New state     42 was old state     38
 New state     43 was old state     46
 New state     44 was old state     45
 New state     45 was old state     43
 New state     46 was old state     44
 New state     50 was old state     51
 New state     51 was old state     52
 New state     52 was old state     56
 New state     53 was old state     55
 New state     54 was old state     58
 New state     55 was old state     50
 New state     56 was old state     53
 New state     57 was old state     54
 New state     58 was old state     59
 New state     59 was old state     60
 New state     60 was old state     57
 New state     67 was old state     78
 New state     68 was old state     77
 New state     69 was old state     80
 New state     71 was old state     69
 New state     72 was old state     67
 New state     73 was old state     68
 New state     74 was old state     79
 New state     75 was old state     72
 New state     76 was old state     71
 New state     77 was old state     74
 New state     78 was old state     81
 New state     79 was old state     75
 New state     80 was old state     76
 New state     81 was old state     88
 New state     82 was old state     87
 New state     83 was old state     73
 New state     84 was old state     89
 New state     85 was old state     90
 New state     86 was old state     91
 New state     87 was old state     92
 New state     88 was old state     84
 New state     89 was old state     85
 New state     90 was old state     86
 New state     91 was old state     83
 New state     92 was old state     82
 New state     93 was old state     96
 New state     94 was old state     97
 New state     95 was old state     93
 New state     96 was old state     99
 New state     97 was old state     98
 New state     98 was old state    101
 New state     99 was old state     95
 New state    100 was old state     94
 New state    101 was old state    100
 New state    102 was old state    103
 New state    103 was old state    104
 New state    104 was old state    102
 New state    105 was old state    106
 New state    106 was old state    105
 New state    107 was old state    109
 New state    109 was old state    107
 New state    110 was old state    113
 New state    111 was old state    114
 New state    113 was old state    110
 New state    114 was old state    111
 New state    117 was old state    118
 New state    118 was old state    119
 New state    119 was old state    120
 New state    120 was old state    121
 New state    121 was old state    123
 New state    122 was old state    124
 New state    123 was old state    125
 New state    124 was old state    122
 New state    125 was old state    128
 New state    127 was old state    129
 New state    128 was old state    130
 New state    129 was old state    136
 New state    130 was old state    137
 New state    131 was old state    117
 New state    132 was old state    135
 New state    133 was old state    134
 New state    134 was old state    131
 New state    135 was old state    133
 New state    136 was old state    132
 New state    137 was old state    127
 New state    138 was old state    139
 New state    139 was old state    138
 New state    142 was old state    152
 New state    143 was old state    153
 New state    144 was old state    143
 New state    145 was old state    144
 New state    146 was old state    148
 New state    147 was old state    149
 New state    148 was old state    150
 New state    149 was old state    147
 New state    150 was old state    142
 New state    151 was old state    145
 New state    152 was old state    146
 New state    153 was old state    156
 New state    154 was old state    155
 New state    155 was old state    154
 New state    156 was old state    168
 New state    157 was old state    164
 New state    158 was old state    163
 New state    159 was old state    160
 New state    160 was old state    159
 New state    162 was old state    158
 New state    163 was old state    157
 New state    164 was old state    165
 New state    165 was old state    166
 New state    166 was old state    167
 New state    167 was old state    169
 New state    168 was old state    170
 New state    169 was old state    171
 New state    170 was old state    151
 New state    171 was old state    173
 New state    173 was old state    175
 New state    175 was old state    182
 New state    178 was old state    181
 New state    181 was old state    178
 New state    182 was old state    184
 New state    184 was old state    186
 New state    186 was old state    187
 No map to state    187
 New state    193 was old state    194
 New state    194 was old state    196
 New state    195 was old state    193
 New state    196 was old state    197
 New state    197 was old state    195
 New state    198 was old state    200
 New state    200 was old state    202
 New state    201 was old state    198
 New state    202 was old state    205
 New state    203 was old state    206
 New state    205 was old state    203
 New state    206 was old state    211
 New state    207 was old state    212
 New state    208 was old state    201
 New state    209 was old state    207
 New state    210 was old state    208
 New state    211 was old state    210
 New state    212 was old state    209
 New state    213 was old state    216
 New state    214 was old state    215
 New state    215 was old state    221
 New state    216 was old state    222
 New state    219 was old state    226
 New state    220 was old state    224
 New state    221 was old state    223
 New state    222 was old state    227
 New state    223 was old state    228
 New state    224 was old state    220
 New state    225 was old state    219
 New state    226 was old state    229
 New state    227 was old state    231
 New state    228 was old state    233
 New state    229 was old state    230
 New state    230 was old state    214
 New state    231 was old state    213
 New state    232 was old state    225
 New state    233 was old state    236
 New state    234 was old state    237
 New state    235 was old state    232
 New state    236 was old state    234
 New state    237 was old state    235
 New state    243 was old state    244
 New state    244 was old state    243
 New state    251 was old state    252
 New state    252 was old state    251
 Excitation Energies [eV] at current iteration:
 Root      1 :     4.888968773257715
 Root      2 :     4.888968773258340
 Root      3 :     8.755374822190715
 Root      4 :     8.755374822190882
 Root      5 :    13.115405285420310
 Root      6 :    13.115405285420430
 Root      7 :    13.430776398529750
 Root      8 :    13.430776398529870
 Root      9 :    13.489613209611260
 Root     10 :    14.226733668872860
 Root     11 :    14.226736438105660
 Root     12 :    14.230689508723630
 Root     13 :    15.802165249467410
 Root     14 :    15.802165249467430
 Root     15 :    16.125398761478530
 Root     16 :    16.129063880619810
 Root     17 :    16.129066782408270
 Root     18 :    16.247773064501490
 Root     19 :    16.833272556084640
 Root     20 :    17.361952205734400
 Root     21 :    17.361952205734540
 Root     22 :    17.913814289363540
 Root     23 :    17.913814289363650
 Root     24 :    18.385846189858700
 Root     25 :    18.385849926481030
 Root     26 :    18.422558133709150
 Root     27 :    18.720000899854850
 Root     28 :    19.386375808117170
 Root     29 :    19.676019001706610
 Root     30 :    19.956276680769110
 Root     31 :    19.956276680769190
 Root     32 :    20.077035502483910
 Root     33 :    20.077035502483970
 Root     34 :    20.296423048359140
 Root     35 :    20.296423618090460
 Root     36 :    20.330994383259530
 Root     37 :    20.662680977740190
 Root     38 :    21.761912039591390
 Root     39 :    21.761912039591460
 Root     40 :    21.779119542979790
 Root     41 :    21.909963878301410
 Root     42 :    21.909963878301460
 Root     43 :    22.739047740076430
 Root     44 :    22.739047740076510
 Root     45 :    23.140863534903510
 Root     46 :    23.140863534903540
 Root     47 :    24.838301250234060
 Root     48 :    25.624346230125140
 Root     49 :    25.624346230125330
 Root     50 :    26.405813388698140
 Root     51 :    26.405813388698160
 Root     52 :    26.906193512064470
 Root     53 :    26.906206905018100
 Root     54 :    27.004920336732070
 Root     55 :    27.269067967202000
 Root     56 :    27.555969951314750
 Root     57 :    27.555969951314770
 Root     58 :    28.572771685880570
 Root     59 :    28.572776449419940
 Root     60 :    28.700080658987620
 Root     61 :    29.255101533393530
 Root     62 :    29.255101533393590
 Root     63 :    29.476873864354960
 Root     64 :    29.476873864355000
 Root     65 :    29.808533434550840
 Root     66 :    29.808533434550990
 Root     67 :    30.288416876568160
 Root     68 :    30.288443345205350
 Root     69 :    30.446467663075160
 Root     70 :    30.991104367784300
 Root     71 :    30.991104367784510
 Root     72 :    31.328615764877690
 Root     73 :    31.685361992694900
 Root     74 :    32.090093344132490
 Root     75 :    32.124708208583290
 Root     76 :    32.124711955516830
 Root     77 :    32.134576150442670
 Root     78 :    32.328215945439600
 Root     79 :    32.501761913938780
 Root     80 :    32.501761913938930
 Root     81 :    33.010837244556640
 Root     82 :    33.010837244556680
 Root     83 :    33.111776965714420
 Root     84 :    33.188888409740500
 Root     85 :    33.188888409740510
 Root     86 :    33.595213275801140
 Root     87 :    33.595213275801250
 Root     88 :    33.975483434045610
 Root     89 :    33.975483434045740
 Root     90 :    33.988305920498180
 Root     91 :    34.639541007812580
 Root     92 :    34.639541007812940
 Root     93 :    34.866434188857860
 Root     94 :    34.866442664138300
 Root     95 :    35.175036558691960
 Root     96 :    35.577750387570720
 Root     97 :    35.577753277471730
 Root     98 :    35.579846459158640
 Root     99 :    35.825060657742530
 Root    100 :    35.825060657742700
 Root    101 :    36.989509868434600
 Root    102 :    37.187148239880150
 Root    103 :    37.187148239880320
 Root    104 :    37.488324426188450
 Root    105 :    38.990862055317980
 Root    106 :    39.529787216438610
 Root    107 :    40.088667127912780
 Root    108 :    40.088667127913040
 Root    109 :    40.099939828514770
 Root    110 :    41.122585171406450
 Root    111 :    41.122585321295350
 Root    112 :    41.907439526242040
 Root    113 :    42.058560433001990
 Root    114 :    42.058560433002440
 Root    115 :    43.730596722467680
 Root    116 :    43.788657578081100
 Root    117 :    43.788666988464090
 Root    118 :    45.382063745421100
 Root    119 :    45.382063745421230
 Root    120 :    47.123568131494300
 Root    121 :    47.158778059507860
 Root    122 :    47.158787382706840
 Root    123 :    47.577655377063290
 Root    124 :    47.640847268249520
 Root    125 :    47.666023713731110
 Root    126 :    47.666027822375720
 Root    127 :    48.846398425701110
 Root    128 :    48.846402140310170
 Root    129 :    48.889385520370470
 Root    130 :    48.889385520371070
 Root    131 :    48.896199784115750
 Root    132 :    49.681827478592690
 Root    133 :    49.681827478592990
 Root    134 :    49.797757077335370
 Root    135 :    50.150553107841520
 Root    136 :    50.150553107841600
 Root    137 :    50.448539683927810
 Root    138 :    52.827842618105390
 Root    139 :    52.827842618105560
 Root    140 :    53.493193892009260
 Root    141 :    53.493193892009330
 Root    142 :    54.444781798846730
 Root    143 :    54.444781798847000
 Root    144 :    54.944584097073470
 Root    145 :    54.944598300339070
 Root    146 :    55.194200813137940
 Root    147 :    55.194206955488060
 Root    148 :    55.225079287608790
 Root    149 :    55.432974579184820
 Root    150 :    55.501177098889650
 Root    151 :    55.639612324157700
 Root    152 :    55.639612324157800
 Root    153 :    57.418136689457780
 Root    154 :    57.418136689459050
 Root    155 :    57.483146963104390
 Root    156 :    57.850237317845450
 Root    157 :    58.645814333804900
 Root    158 :    58.645814333805080
 Root    159 :    59.010228149202970
 Root    160 :    59.010233398289170
 Root    161 :    59.110117864315540
 Root    162 :    59.524248544005770
 Root    163 :    59.524248544005840
 Root    164 :    60.090679516571880
 Root    165 :    60.655059757402790
 Root    166 :    60.655059757403140
 Root    167 :    62.439789415983890
 Root    168 :    62.439789415984830
 Root    169 :    64.032759398411860
 Root    170 :    64.230837669948640
 Root    171 :    68.233752129552670
 Root    172 :    68.233752129552700
 Root    173 :    69.566677052133560
 Root    174 :    69.566677052133940
 Root    175 :    71.025747174713220
 Root    176 :    72.025989790056600
 Root    177 :    72.025989790057380
 Root    178 :    72.693606507769230
 Root    179 :    73.605580960664870
 Root    180 :    73.605580960665660
 Root    181 :    74.854353915116420
 Root    182 :    75.400848806064330
 Root    183 :    77.091788982142400
 Root    184 :    80.791901903095000
 Root    185 :    80.791901903095360
 Root    186 :    81.550197540706860
 Root    187 :    81.674617757481340
 Root    188 :    85.704421518969570
 Root    189 :    85.704421518969640
 Root    190 :    87.184501172994000
 Root    191 :    89.503086105009270
 Root    192 :    89.503086105009390
 Root    193 :    89.675790846388300
 Root    194 :    89.675796225552200
 Root    195 :    89.706191023076310
 Root    196 :    91.605866498596780
 Root    197 :    92.723954809531390
 Root    198 :    93.528831614382570
 Root    199 :    93.528851497020550
 Root    200 :    93.553702451104900
 Root    201 :    94.679786732359600
 Root    202 :    95.411850846037300
 Root    203 :    95.411850846037380
 Root    204 :    95.735756294451830
 Root    205 :    95.735756294452160
 Root    206 :    96.820819916704150
 Root    207 :    96.820819916704390
 Root    208 :    97.541745619506900
 Root    209 :    98.087998143005460
 Root    210 :    98.087998143005630
 Root    211 :    99.496027009409390
 Root    212 :    99.496027009409470
 Root    213 :    99.987375334844420
 Root    214 :    99.987375334844660
 Root    215 :   101.307563760076500
 Root    216 :   101.307633181814200
 Root    217 :   101.393810533628900
 Root    218 :   101.393810533629100
 Root    219 :   102.206211718120900
 Root    220 :   102.213703725179600
 Root    221 :   102.213706532837200
 Root    222 :   102.922002583160100
 Root    223 :   102.922074644704600
 Root    224 :   103.598299033628700
 Root    225 :   103.598299033628700
 Root    226 :   104.278958347755600
 Root    227 :   106.032345553294000
 Root    228 :   106.032351545818600
 Root    229 :   106.055367876705500
 Root    230 :   106.518879799733500
 Root    231 :   106.518879799733800
 Root    232 :   107.753741910872700
 Root    233 :   108.869940950873100
 Root    234 :   108.869940950873400
 Root    235 :   109.091259492528400
 Root    236 :   110.868907811895500
 Root    237 :   110.868907811895900
 Root    238 :   112.486957635242300
 Root    239 :   114.742605857833500
 Root    240 :   114.742679087963500
 Root    241 :   116.438966915675000
 Root    242 :   116.439041785484000
 Root    243 :   116.605824115105300
 Root    244 :   116.605824115105400
 Root    245 :   121.241198843902100
 Root    246 :   121.241198843902200
 Root    247 :   121.874527496451600
 Root    248 :   121.874596164115700
 Root    249 :   123.448678081434400
 Root    250 :   123.448750723348800
 Root    251 :   128.268137950473400
 Root    252 :   128.268137950473600
 Root    253 :   130.366256276526400
 Root    254 :   130.366256276526700
 Root    255 :   134.037154257904400
 Root    256 :   134.037154257904600
 Root    257 :   136.695753679805400
 Root    258 :   148.537875899186200
 Root    259 :   155.478959521267800
 Convergence achieved for final wavefunctions.
 ***********************************************************************
 Excited states from <AA,BB:AA,BB> singles matrix:
 ***********************************************************************
 
 1PDM for each excited state written to RWF  633
 Ground to excited state transition densities written to RWF  633
 Ground to excited state transition electric dipole moments (Au):
       state          X           Y           Z        Dip. S.      Osc.
         1         0.0082     -0.0167     -0.0000      0.0003      0.0000
         2        -0.0167     -0.0082     -0.0000      0.0003      0.0000
         3        -0.0000     -0.0000      0.0000      0.0000      0.0000
         4        -0.0000      0.0000      0.0000      0.0000      0.0000
         5         0.0000      0.0000     -0.0000      0.0000      0.0000
         6        -0.0000      0.0000      0.0000      0.0000      0.0000
         7        -0.1367     -0.3113      0.0000      0.1156      0.0380
         8        -0.3113      0.1367      0.0000      0.1156      0.0380
         9        -0.0000     -0.0000     -1.1075      1.2266      0.4054
        10        -0.0000     -0.0000     -0.0000      0.0000      0.0000
        11        -0.0000      0.0000      0.0000      0.0000      0.0000
        12         0.0000     -0.0000      0.0000      0.0000      0.0000
        13         0.0000      0.0000     -0.0000      0.0000      0.0000
        14        -0.0000      0.0000     -0.0000      0.0000      0.0000
        15        -0.0000      0.0000     -0.0000      0.0000      0.0000
        16         0.0000     -0.0000      0.0000      0.0000      0.0000
        17         0.0000     -0.0000      0.0000      0.0000      0.0000
        18        -0.0000      0.0000     -0.8308      0.6903      0.2748
        19        -0.0000      0.0000     -0.0000      0.0000      0.0000
        20        -0.1493      0.5092     -0.0000      0.2815      0.1198
        21         0.5092      0.1493      0.0000      0.2815      0.1198
        22        -0.0000      0.0000     -0.0000      0.0000      0.0000
        23        -0.0000     -0.0000      0.0000      0.0000      0.0000
        24         0.0000      0.0000     -0.0000      0.0000      0.0000
        25         0.0000     -0.0000     -0.0000      0.0000      0.0000
        26        -0.0000      0.0000      0.0000      0.0000      0.0000
        27         0.0000      0.0000      0.0000      0.0000      0.0000
        28         0.0000     -0.0000     -0.0000      0.0000      0.0000
        29        -0.0000      0.0000      0.1217      0.0148      0.0071
        30        -0.0480      0.1886      0.0000      0.0379      0.0185
        31         0.1886      0.0480      0.0000      0.0379      0.0185
        32        -0.0780     -0.3316      0.0000      0.1160      0.0571
        33        -0.3316      0.0780     -0.0000      0.1160      0.0571
        34        -0.0000     -0.0000      0.0000      0.0000      0.0000
        35         0.0000      0.0000     -0.0000      0.0000      0.0000
        36        -0.0000      0.0000      0.0000      0.0000      0.0000
        37         0.0000     -0.0000      0.1917      0.0367      0.0186
        38         0.2905     -0.0652      0.0000      0.0887      0.0473
        39         0.0652      0.2905     -0.0000      0.0887      0.0473
        40         0.0000      0.0000     -0.0000      0.0000      0.0000
        41        -0.0000      0.0000     -0.0000      0.0000      0.0000
        42        -0.0000      0.0000      0.0000      0.0000      0.0000
        43         0.0000     -0.0000      0.0000      0.0000      0.0000
        44         0.0000      0.0000      0.0000      0.0000      0.0000
        45         0.0000      0.0000     -0.0000      0.0000      0.0000
        46        -0.0000     -0.0000      0.0000      0.0000      0.0000
        47        -0.0000     -0.0000      0.0000      0.0000      0.0000
        48        -0.0000      0.0000      0.0000      0.0000      0.0000
        49        -0.0000     -0.0000     -0.0000      0.0000      0.0000
        50        -0.0000     -0.0000      0.0000      0.0000      0.0000
        51         0.0000     -0.0000      0.0000      0.0000      0.0000
        52        -0.0000     -0.0000     -0.0000      0.0000      0.0000
        53         0.0000      0.0000     -0.0000      0.0000      0.0000
        54         0.0000     -0.0000      0.0000      0.0000      0.0000
        55        -0.0000      0.0000      0.6768      0.4580      0.3060
        56         0.8302     -0.3547      0.0000      0.8150      0.5502
        57         0.3547      0.8302     -0.0000      0.8150      0.5502
        58        -0.0000      0.0000      0.0000      0.0000      0.0000
        59         0.0000      0.0000     -0.0000      0.0000      0.0000
        60        -0.0000      0.0000      1.1502      1.3229      0.9302
        61         0.0342     -0.2278      0.0000      0.0531      0.0380
        62        -0.2278     -0.0342      0.0000      0.0531      0.0380
        63         0.0000     -0.0000      0.0000      0.0000      0.0000
        64         0.0000      0.0000     -0.0000      0.0000      0.0000
        65         0.0843     -0.6774     -0.0000      0.4659      0.3403
        66         0.6774      0.0843      0.0000      0.4659      0.3403
        67         0.0000     -0.0000      0.0000      0.0000      0.0000
        68         0.0000      0.0000     -0.0000      0.0000      0.0000
        69        -0.0000      0.0000      0.0000      0.0000      0.0000
        70         0.0000      0.0000      0.0000      0.0000      0.0000
        71         0.0000     -0.0000     -0.0000      0.0000      0.0000
        72        -0.0000      0.0000     -0.0000      0.0000      0.0000
        73         0.0000     -0.0000      0.2219      0.0492      0.0382
        74         0.0000      0.0000      0.0000      0.0000      0.0000
        75        -0.0000     -0.0000      0.0000      0.0000      0.0000
        76         0.0000     -0.0000     -0.0000      0.0000      0.0000
        77         0.0000     -0.0000      0.0000      0.0000      0.0000
        78         0.0000     -0.0000     -0.2641      0.0697      0.0552
        79        -0.0000     -0.0000      0.0000      0.0000      0.0000
        80        -0.0000     -0.0000     -0.0000      0.0000      0.0000
        81         0.4169      0.5464      0.0000      0.4724      0.3820
        82         0.5464     -0.4169      0.0000      0.4724      0.3820
        83         0.0000     -0.0000     -0.0000      0.0000      0.0000
        84        -0.0000     -0.0000     -0.0000      0.0000      0.0000
        85         0.0000     -0.0000      0.0000      0.0000      0.0000
        86         0.0000      0.0000     -0.0000      0.0000      0.0000
        87        -0.0000      0.0000      0.0000      0.0000      0.0000
        88         0.0000     -0.0000      0.0000      0.0000      0.0000
        89        -0.0000      0.0000      0.0000      0.0000      0.0000
        90        -0.0000      0.0000     -0.2155      0.0464      0.0387
        91         0.0115      0.1591      0.0000      0.0254      0.0216
        92         0.1591     -0.0115     -0.0000      0.0254      0.0216
        93         0.0000     -0.0000      0.0000      0.0000      0.0000
        94        -0.0000      0.0000      0.0000      0.0000      0.0000
        95        -0.0000     -0.0000      0.1388      0.0193      0.0166
        96         0.0000      0.0000     -0.0000      0.0000      0.0000
        97        -0.0000     -0.0000     -0.0000      0.0000      0.0000
        98        -0.0000     -0.0000     -0.0000      0.0000      0.0000
        99         0.2158     -0.1126     -0.0000      0.0592      0.0520
       100         0.1126      0.2158     -0.0000      0.0592      0.0520
       101         0.0000      0.0000      0.2264      0.0513      0.0465
       102         0.0000      0.0000      0.0000      0.0000      0.0000
       103         0.0000      0.0000      0.0000      0.0000      0.0000
       104         0.0000      0.0000      0.0000      0.0000      0.0000
       105         0.0000     -0.0000     -0.0000      0.0000      0.0000
       106        -0.0000     -0.0000      0.0332      0.0011      0.0011
       107         0.0013     -0.0000      0.0000      0.0000      0.0000
       108         0.0000      0.0013     -0.0000      0.0000      0.0000
       109         0.0000     -0.0000      0.0000      0.0000      0.0000
       110         0.0000      0.0000      0.0000      0.0000      0.0000
       111        -0.0000     -0.0000     -0.0000      0.0000      0.0000
       112        -0.0000      0.0000     -0.0000      0.0000      0.0000
       113         0.0000      0.0000      0.0000      0.0000      0.0000
       114        -0.0000      0.0000     -0.0000      0.0000      0.0000
       115         0.0000      0.0000     -0.0000      0.0000      0.0000
       116        -0.0000      0.0000      0.0000      0.0000      0.0000
       117        -0.0000      0.0000     -0.0000      0.0000      0.0000
       118        -0.0000     -0.0000     -0.0000      0.0000      0.0000
       119         0.0000     -0.0000      0.0000      0.0000      0.0000
       120         0.0000      0.0000     -0.1004      0.0101      0.0116
       121         0.0000      0.0000      0.0000      0.0000      0.0000
       122        -0.0000     -0.0000     -0.0000      0.0000      0.0000
       123        -0.0000      0.0000     -0.0000      0.0000      0.0000
       124         0.0000      0.0000      0.0000      0.0000      0.0000
       125        -0.0000     -0.0000      0.0000      0.0000      0.0000
       126        -0.0000      0.0000      0.0000      0.0000      0.0000
       127         0.0000      0.0000     -0.0000      0.0000      0.0000
       128        -0.0000     -0.0000     -0.0000      0.0000      0.0000
       129         0.1830      0.0151     -0.0000      0.0337      0.0404
       130        -0.0151      0.1830      0.0000      0.0337      0.0404
       131        -0.0000      0.0000     -0.2083      0.0434      0.0520
       132         0.0000      0.0000      0.0000      0.0000      0.0000
       133         0.0000      0.0000      0.0000      0.0000      0.0000
       134        -0.0000     -0.0000      0.0861      0.0074      0.0090
       135         0.0031     -0.0355     -0.0000      0.0013      0.0016
       136        -0.0355     -0.0031      0.0000      0.0013      0.0016
       137         0.0000      0.0000     -0.0000      0.0000      0.0000
       138         0.0020      0.0135      0.0000      0.0002      0.0002
       139         0.0135     -0.0020     -0.0000      0.0002      0.0002
       140         0.1384      0.3553      0.0000      0.1454      0.1906
       141         0.3553     -0.1384      0.0000      0.1454      0.1906
       142        -0.0000     -0.0000     -0.0000      0.0000      0.0000
       143        -0.0000     -0.0000     -0.0000      0.0000      0.0000
       144        -0.0000      0.0000      0.0000      0.0000      0.0000
       145         0.0000     -0.0000     -0.0000      0.0000      0.0000
       146        -0.0000     -0.0000     -0.0000      0.0000      0.0000
       147        -0.0000     -0.0000      0.0000      0.0000      0.0000
       148         0.0000     -0.0000     -0.0000      0.0000      0.0000
       149        -0.0000      0.0000      0.0000      0.0000      0.0000
       150         0.0000      0.0000     -0.0756      0.0057      0.0078
       151         0.0410     -0.0486      0.0000      0.0040      0.0055
       152        -0.0486     -0.0410     -0.0000      0.0040      0.0055
       153         0.0000      0.0000     -0.0000      0.0000      0.0000
       154        -0.0000     -0.0000      0.0000      0.0000      0.0000
       155         0.0000      0.0000      0.0000      0.0000      0.0000
       156         0.0000      0.0000     -0.0000      0.0000      0.0000
       157        -0.0766      0.0061      0.0000      0.0059      0.0085
       158        -0.0061     -0.0766      0.0000      0.0059      0.0085
       159         0.0000      0.0000     -0.0000      0.0000      0.0000
       160         0.0000      0.0000     -0.0000      0.0000      0.0000
       161         0.0000      0.0000     -0.0000      0.0000      0.0000
       162         0.0000     -0.0000      0.0000      0.0000      0.0000
       163         0.0000     -0.0000      0.0000      0.0000      0.0000
       164        -0.0000     -0.0000     -0.1392      0.0194      0.0285
       165         0.0000     -0.0000      0.0000      0.0000      0.0000
       166         0.0000     -0.0000      0.0000      0.0000      0.0000
       167        -0.0000     -0.0000     -0.0000      0.0000      0.0000
       168        -0.0000     -0.0000      0.0000      0.0000      0.0000
       169         0.0000      0.0000     -0.1293      0.0167      0.0262
       170        -0.0000      0.0000      0.0000      0.0000      0.0000
       171         0.2056      0.0299      0.0000      0.0432      0.0722
       172        -0.0299      0.2056      0.0000      0.0432      0.0722
       173        -0.0249     -0.3526     -0.0000      0.1249      0.2129
       174        -0.3526      0.0249      0.0000      0.1249      0.2129
       175         0.0000     -0.0000     -0.0581      0.0034      0.0059
       176        -0.0000      0.0000     -0.0000      0.0000      0.0000
       177        -0.0000     -0.0000      0.0000      0.0000      0.0000
       178         0.0000     -0.0000     -0.4059      0.1648      0.2934
       179        -0.0131     -0.2799      0.0000      0.0785      0.1416
       180        -0.2799      0.0131     -0.0000      0.0785      0.1416
       181        -0.0000     -0.0000     -0.0000      0.0000      0.0000
       182         0.0000      0.0000     -0.0570      0.0033      0.0060
       183         0.0000     -0.0000     -0.0000      0.0000      0.0000
       184         0.0000     -0.0000      0.0000      0.0000      0.0000
       185        -0.0000      0.0000      0.0000      0.0000      0.0000
       186        -0.0000      0.0000     -0.0000      0.0000      0.0000
       187         0.0000      0.0000      0.1425      0.0203      0.0406
       188        -0.0000      0.0000      0.0000      0.0000      0.0000
       189         0.0000     -0.0000     -0.0000      0.0000      0.0000
       190        -0.0000     -0.0000     -0.0000      0.0000      0.0000
       191        -0.0313     -0.0793      0.0000      0.0073      0.0160
       192        -0.0793      0.0313     -0.0000      0.0073      0.0160
       193        -0.0000     -0.0000      0.0000      0.0000      0.0000
       194        -0.0000      0.0000      0.0000      0.0000      0.0000
       195         0.0000      0.0000     -0.0000      0.0000      0.0000
       196        -0.0000     -0.0000      0.0000      0.0000      0.0000
       197        -0.0000     -0.0000      0.6106      0.3728      0.8470
       198        -0.0000     -0.0000      0.0000      0.0000      0.0000
       199        -0.0000      0.0000      0.0000      0.0000      0.0000
       200        -0.0000      0.0000      0.0000      0.0000      0.0000
       201         0.0000      0.0000      0.0812      0.0066      0.0153
       202        -0.0000      0.0000      0.0000      0.0000      0.0000
       203        -0.0000     -0.0000     -0.0000      0.0000      0.0000
       204         0.0235      0.0457     -0.0000      0.0026      0.0062
       205         0.0457     -0.0235     -0.0000      0.0026      0.0062
       206        -0.0000      0.0000      0.0000      0.0000      0.0000
       207         0.0000      0.0000     -0.0000      0.0000      0.0000
       208         0.0000     -0.0000     -0.0000      0.0000      0.0000
       209         0.0000      0.0000     -0.0000      0.0000      0.0000
       210        -0.0000      0.0000      0.0000      0.0000      0.0000
       211         0.0274      0.1476     -0.0000      0.0225      0.0549
       212         0.1476     -0.0274      0.0000      0.0225      0.0549
       213        -0.0000     -0.0000      0.0000      0.0000      0.0000
       214        -0.0000      0.0000      0.0000      0.0000      0.0000
       215         0.0000     -0.0000      0.0000      0.0000      0.0000
       216        -0.0000     -0.0000      0.0000      0.0000      0.0000
       217         0.0000     -0.0000      0.0000      0.0000      0.0000
       218         0.0000     -0.0000     -0.0000      0.0000      0.0000
       219         0.0000      0.0000      0.0000      0.0000      0.0000
       220        -0.0000      0.0000      0.0000      0.0000      0.0000
       221        -0.0000      0.0000     -0.0000      0.0000      0.0000
       222        -0.0000      0.0000     -0.0000      0.0000      0.0000
       223         0.0000     -0.0000      0.0000      0.0000      0.0000
       224        -0.0000     -0.0000     -0.0000      0.0000      0.0000
       225         0.0000     -0.0000      0.0000      0.0000      0.0000
       226         0.0000     -0.0000      0.0491      0.0024      0.0062
       227        -0.0000      0.0000      0.0000      0.0000      0.0000
       228         0.0000     -0.0000     -0.0000      0.0000      0.0000
       229        -0.0000     -0.0000     -0.0000      0.0000      0.0000
       230        -0.3532     -0.7976     -0.0000      0.7609      1.9857
       231         0.7976     -0.3532     -0.0000      0.7609      1.9857
       232         0.0000      0.0000     -0.0000      0.0000      0.0000
       233         0.0000      0.0000     -0.0000      0.0000      0.0000
       234         0.0000     -0.0000      0.0000      0.0000      0.0000
       235         0.0000      0.0000      0.4935      0.2435      0.6508
       236         0.0000     -0.0000     -0.0000      0.0000      0.0000
       237         0.0000      0.0000     -0.0000      0.0000      0.0000
       238         0.0000      0.0000      0.0000      0.0000      0.0000
       239         0.0000      0.0000     -0.0000      0.0000      0.0000
       240        -0.0000     -0.0000     -0.0000      0.0000      0.0000
       241        -0.0000      0.0000     -0.0000      0.0000      0.0000
       242         0.0000     -0.0000     -0.0000      0.0000      0.0000
       243        -0.1115      0.1396     -0.0000      0.0319      0.0912
       244         0.1396      0.1115     -0.0000      0.0319      0.0912
       245        -0.0382     -0.0030     -0.0000      0.0015      0.0044
       246         0.0030     -0.0382     -0.0000      0.0015      0.0044
       247         0.0000      0.0000      0.0000      0.0000      0.0000
       248        -0.0000     -0.0000      0.0000      0.0000      0.0000
       249        -0.0000     -0.0000      0.0000      0.0000      0.0000
       250         0.0000     -0.0000      0.0000      0.0000      0.0000
       251        -0.0000      0.0000      0.0000      0.0000      0.0000
       252        -0.0000      0.0000     -0.0000      0.0000      0.0000
       253        -0.0041     -0.2028     -0.0000      0.0411      0.1313
       254        -0.2028      0.0041     -0.0000      0.0411      0.1313
       255         0.0000     -0.0000      0.0000      0.0000      0.0000
       256         0.0000     -0.0000     -0.0000      0.0000      0.0000
       257         0.0000     -0.0000      0.2697      0.0727      0.2436
       258         0.0000      0.0000      0.0000      0.0000      0.0000
       259         0.0000      0.0000      0.0526      0.0028      0.0106
 Ground to excited state transition velocity dipole moments (Au):
       state          X           Y           Z        Dip. S.      Osc.
         1        -0.0063      0.0129      0.0000      0.0002      0.0008
         2         0.0129      0.0063      0.0000      0.0002      0.0008
         3        -0.0000      0.0000     -0.0000      0.0000      0.0000
         4         0.0000     -0.0000      0.0000      0.0000      0.0000
         5        -0.0000     -0.0000     -0.0000      0.0000      0.0000
         6         0.0000     -0.0000     -0.0000      0.0000      0.0000
         7         0.0672      0.1530     -0.0000      0.0279      0.0377
         8         0.1530     -0.0672     -0.0000      0.0279      0.0377
         9         0.0000     -0.0000      0.5544      0.3073      0.4133
        10         0.0000      0.0000      0.0000      0.0000      0.0000
        11        -0.0000     -0.0000     -0.0000      0.0000      0.0000
        12        -0.0000      0.0000     -0.0000      0.0000      0.0000
        13         0.0000      0.0000      0.0000      0.0000      0.0000
        14        -0.0000     -0.0000      0.0000      0.0000      0.0000
        15        -0.0000     -0.0000      0.0000      0.0000      0.0000
        16         0.0000     -0.0000     -0.0000      0.0000      0.0000
        17        -0.0000     -0.0000     -0.0000      0.0000      0.0000
        18         0.0000      0.0000      0.5054      0.2554      0.2852
        19         0.0000     -0.0000      0.0000      0.0000      0.0000
        20         0.0985     -0.3357      0.0000      0.1224      0.1279
        21        -0.3357     -0.0985     -0.0000      0.1224      0.1279
        22         0.0000     -0.0000      0.0000      0.0000      0.0000
        23         0.0000      0.0000     -0.0000      0.0000      0.0000
        24        -0.0000      0.0000      0.0000      0.0000      0.0000
        25        -0.0000      0.0000      0.0000      0.0000      0.0000
        26         0.0000     -0.0000     -0.0000      0.0000      0.0000
        27        -0.0000     -0.0000     -0.0000      0.0000      0.0000
        28        -0.0000     -0.0000      0.0000      0.0000      0.0000
        29         0.0000      0.0000     -0.0852      0.0073      0.0067
        30         0.0313     -0.1229     -0.0000      0.0161      0.0146
        31        -0.1229     -0.0313     -0.0000      0.0161      0.0146
        32         0.0547      0.2327     -0.0000      0.0572      0.0517
        33         0.2327     -0.0547      0.0000      0.0572      0.0517
        34        -0.0000      0.0000     -0.0000      0.0000      0.0000
        35        -0.0000     -0.0000     -0.0000      0.0000      0.0000
        36         0.0000      0.0000     -0.0000      0.0000      0.0000
        37         0.0000      0.0000     -0.1551      0.0241      0.0211
        38        -0.2465      0.0554     -0.0000      0.0638      0.0532
        39        -0.0554     -0.2465      0.0000      0.0638      0.0532
        40        -0.0000     -0.0000      0.0000      0.0000      0.0000
        41         0.0000     -0.0000      0.0000      0.0000      0.0000
        42         0.0000     -0.0000     -0.0000      0.0000      0.0000
        43        -0.0000     -0.0000     -0.0000      0.0000      0.0000
        44        -0.0000     -0.0000     -0.0000      0.0000      0.0000
        45        -0.0000     -0.0000      0.0000      0.0000      0.0000
        46         0.0000      0.0000     -0.0000      0.0000      0.0000
        47        -0.0000      0.0000     -0.0000      0.0000      0.0000
        48         0.0000     -0.0000     -0.0000      0.0000      0.0000
        49        -0.0000      0.0000      0.0000      0.0000      0.0000
        50         0.0000      0.0000     -0.0000      0.0000      0.0000
        51        -0.0000      0.0000     -0.0000      0.0000      0.0000
        52         0.0000     -0.0000      0.0000      0.0000      0.0000
        53        -0.0000     -0.0000      0.0000      0.0000      0.0000
        54        -0.0000      0.0000     -0.0000      0.0000      0.0000
        55         0.0000     -0.0000     -0.6721      0.4517      0.3005
        56        -0.8547      0.3651     -0.0000      0.8639      0.5687
        57        -0.3651     -0.8547     -0.0000      0.8639      0.5687
        58         0.0000      0.0000     -0.0000      0.0000      0.0000
        59        -0.0000     -0.0000      0.0000      0.0000      0.0000
        60        -0.0000      0.0000     -1.2509      1.5647      0.9890
        61        -0.0341      0.2269     -0.0000      0.0527      0.0327
        62         0.2269      0.0341     -0.0000      0.0527      0.0327
        63        -0.0000      0.0000      0.0000      0.0000      0.0000
        64        -0.0000     -0.0000      0.0000      0.0000      0.0000
        65        -0.0944      0.7590      0.0000      0.5851      0.3561
        66        -0.7590     -0.0944     -0.0000      0.5851      0.3561
        67        -0.0000      0.0000     -0.0000      0.0000      0.0000
        68        -0.0000     -0.0000      0.0000      0.0000      0.0000
        69         0.0000     -0.0000     -0.0000      0.0000      0.0000
        70        -0.0000     -0.0000     -0.0000      0.0000      0.0000
        71        -0.0000      0.0000     -0.0000      0.0000      0.0000
        72         0.0000     -0.0000      0.0000      0.0000      0.0000
        73        -0.0000      0.0000     -0.2810      0.0790      0.0452
        74        -0.0000     -0.0000     -0.0000      0.0000      0.0000
        75         0.0000      0.0000      0.0000      0.0000      0.0000
        76        -0.0000      0.0000      0.0000      0.0000      0.0000
        77        -0.0000      0.0000     -0.0000      0.0000      0.0000
        78        -0.0000      0.0000      0.3004      0.0902      0.0506
        79         0.0000      0.0000     -0.0000      0.0000      0.0000
        80         0.0000      0.0000     -0.0000      0.0000      0.0000
        81        -0.5043     -0.6610     -0.0000      0.6913      0.3799
        82        -0.6610      0.5043     -0.0000      0.6913      0.3799
        83        -0.0000      0.0000     -0.0000      0.0000      0.0000
        84         0.0000     -0.0000      0.0000      0.0000      0.0000
        85        -0.0000      0.0000     -0.0000      0.0000      0.0000
        86        -0.0000     -0.0000      0.0000      0.0000      0.0000
        87         0.0000     -0.0000     -0.0000      0.0000      0.0000
        88        -0.0000      0.0000     -0.0000      0.0000      0.0000
        89         0.0000     -0.0000     -0.0000      0.0000      0.0000
        90         0.0000     -0.0000      0.2710      0.0735      0.0392
        91        -0.0152     -0.2095     -0.0000      0.0441      0.0231
        92        -0.2095      0.0152     -0.0000      0.0441      0.0231
        93        -0.0000      0.0000     -0.0000      0.0000      0.0000
        94        -0.0000     -0.0000     -0.0000      0.0000      0.0000
        95         0.0000     -0.0000     -0.2001      0.0401      0.0207
        96        -0.0000     -0.0000      0.0000      0.0000      0.0000
        97         0.0000      0.0000      0.0000      0.0000      0.0000
        98         0.0000      0.0000      0.0000      0.0000      0.0000
        99        -0.2864      0.1495      0.0000      0.1044      0.0528
       100        -0.1495     -0.2864     -0.0000      0.1044      0.0528
       101        -0.0000     -0.0000     -0.3689      0.1361      0.0667
       102        -0.0000     -0.0000     -0.0000      0.0000      0.0000
       103        -0.0000     -0.0000     -0.0000      0.0000      0.0000
       104        -0.0000     -0.0000     -0.0000      0.0000      0.0000
       105        -0.0000      0.0000      0.0000      0.0000      0.0000
       106         0.0000      0.0000     -0.0309      0.0010      0.0004
       107        -0.0016      0.0000     -0.0000      0.0000      0.0000
       108        -0.0000     -0.0016     -0.0000      0.0000      0.0000
       109        -0.0000     -0.0000      0.0000      0.0000      0.0000
       110        -0.0000     -0.0000      0.0000      0.0000      0.0000
       111         0.0000      0.0000      0.0000      0.0000      0.0000
       112        -0.0000     -0.0000      0.0000      0.0000      0.0000
       113        -0.0000     -0.0000     -0.0000      0.0000      0.0000
       114        -0.0000     -0.0000     -0.0000      0.0000      0.0000
       115         0.0000     -0.0000      0.0000      0.0000      0.0000
       116         0.0000     -0.0000      0.0000      0.0000      0.0000
       117         0.0000     -0.0000      0.0000      0.0000      0.0000
       118         0.0000     -0.0000     -0.0000      0.0000      0.0000
       119        -0.0000      0.0000     -0.0000      0.0000      0.0000
       120        -0.0000     -0.0000      0.1846      0.0341      0.0131
       121         0.0000     -0.0000     -0.0000      0.0000      0.0000
       122         0.0000      0.0000      0.0000      0.0000      0.0000
       123         0.0000     -0.0000      0.0000      0.0000      0.0000
       124        -0.0000     -0.0000      0.0000      0.0000      0.0000
       125         0.0000      0.0000     -0.0000      0.0000      0.0000
       126         0.0000     -0.0000     -0.0000      0.0000      0.0000
       127        -0.0000     -0.0000      0.0000      0.0000      0.0000
       128         0.0000      0.0000     -0.0000      0.0000      0.0000
       129        -0.3418     -0.0282      0.0000      0.1177      0.0437
       130         0.0282     -0.3418     -0.0000      0.1177      0.0437
       131         0.0000     -0.0000      0.3577      0.1280      0.0475
       132        -0.0000     -0.0000     -0.0000      0.0000      0.0000
       133        -0.0000     -0.0000      0.0000      0.0000      0.0000
       134         0.0000      0.0000     -0.1620      0.0263      0.0096
       135        -0.0040      0.0459      0.0000      0.0021      0.0008
       136         0.0459      0.0040      0.0000      0.0021      0.0008
       137        -0.0000     -0.0000      0.0000      0.0000      0.0000
       138        -0.0003     -0.0019     -0.0000      0.0000      0.0000
       139        -0.0019      0.0003     -0.0000      0.0000      0.0000
       140        -0.2695     -0.6922     -0.0000      0.5518      0.1871
       141        -0.6922      0.2695      0.0000      0.5518      0.1871
       142         0.0000      0.0000      0.0000      0.0000      0.0000
       143         0.0000      0.0000      0.0000      0.0000      0.0000
       144         0.0000     -0.0000      0.0000      0.0000      0.0000
       145        -0.0000      0.0000      0.0000      0.0000      0.0000
       146         0.0000      0.0000      0.0000      0.0000      0.0000
       147         0.0000      0.0000     -0.0000      0.0000      0.0000
       148        -0.0000      0.0000      0.0000      0.0000      0.0000
       149         0.0000     -0.0000     -0.0000      0.0000      0.0000
       150        -0.0000     -0.0000      0.0935      0.0087      0.0029
       151        -0.0866      0.1028      0.0000      0.0181      0.0059
       152         0.1028      0.0866      0.0000      0.0181      0.0059
       153        -0.0000     -0.0000      0.0000      0.0000      0.0000
       154         0.0000      0.0000      0.0000      0.0000      0.0000
       155        -0.0000     -0.0000     -0.0000      0.0000      0.0000
       156        -0.0000     -0.0000      0.0000      0.0000      0.0000
       157         0.1696     -0.0134     -0.0000      0.0289      0.0090
       158         0.0134      0.1696     -0.0000      0.0289      0.0090
       159        -0.0000     -0.0000     -0.0000      0.0000      0.0000
       160        -0.0000     -0.0000      0.0000      0.0000      0.0000
       161        -0.0000     -0.0000      0.0000      0.0000      0.0000
       162         0.0000      0.0000     -0.0000      0.0000      0.0000
       163        -0.0000      0.0000     -0.0000      0.0000      0.0000
       164        -0.0000      0.0000      0.3604      0.1299      0.0392
       165        -0.0000      0.0000      0.0000      0.0000      0.0000
       166        -0.0000      0.0000     -0.0000      0.0000      0.0000
       167         0.0000      0.0000     -0.0000      0.0000      0.0000
       168        -0.0000      0.0000     -0.0000      0.0000      0.0000
       169         0.0000     -0.0000      0.2833      0.0803      0.0227
       170         0.0000     -0.0000     -0.0000      0.0000      0.0000
       171        -0.5483     -0.0796     -0.0000      0.3070      0.0816
       172         0.0796     -0.5483      0.0000      0.3070      0.0816
       173         0.0676      0.9566     -0.0000      0.9197      0.2398
       174         0.9566     -0.0676     -0.0000      0.9197      0.2398
       175        -0.0000      0.0000      0.1939      0.0376      0.0096
       176         0.0000     -0.0000      0.0000      0.0000      0.0000
       177         0.0000      0.0000      0.0000      0.0000      0.0000
       178         0.0000      0.0000      1.1218      1.2585      0.3141
       179         0.0388      0.8321     -0.0000      0.6939      0.1710
       180         0.8321     -0.0388      0.0000      0.6939      0.1710
       181         0.0000      0.0000      0.0000      0.0000      0.0000
       182        -0.0000     -0.0000      0.0701      0.0049      0.0012
       183        -0.0000      0.0000      0.0000      0.0000      0.0000
       184        -0.0000      0.0000      0.0000      0.0000      0.0000
       185         0.0000      0.0000     -0.0000      0.0000      0.0000
       186        -0.0000     -0.0000      0.0000      0.0000      0.0000
       187        -0.0000     -0.0000     -0.4646      0.2159      0.0479
       188         0.0000     -0.0000     -0.0000      0.0000      0.0000
       189        -0.0000      0.0000      0.0000      0.0000      0.0000
       190         0.0000      0.0000     -0.0000      0.0000      0.0000
       191         0.0818      0.2071     -0.0000      0.0496      0.0100
       192         0.2071     -0.0818      0.0000      0.0496      0.0100
       193         0.0000      0.0000     -0.0000      0.0000      0.0000
       194         0.0000     -0.0000     -0.0000      0.0000      0.0000
       195        -0.0000     -0.0000      0.0000      0.0000      0.0000
       196        -0.0000      0.0000     -0.0000      0.0000      0.0000
       197         0.0000      0.0000     -1.7774      3.1592      0.6181
       198         0.0000      0.0000     -0.0000      0.0000      0.0000
       199         0.0000     -0.0000     -0.0000      0.0000      0.0000
       200         0.0000     -0.0000     -0.0000      0.0000      0.0000
       201         0.0000     -0.0000     -0.3735      0.1395      0.0267
       202         0.0000     -0.0000     -0.0000      0.0000      0.0000
       203        -0.0000      0.0000      0.0000      0.0000      0.0000
       204        -0.0499     -0.0970      0.0000      0.0119      0.0023
       205        -0.0970      0.0499      0.0000      0.0119      0.0023
       206         0.0000     -0.0000     -0.0000      0.0000      0.0000
       207        -0.0000     -0.0000      0.0000      0.0000      0.0000
       208        -0.0000      0.0000      0.0000      0.0000      0.0000
       209        -0.0000     -0.0000      0.0000      0.0000      0.0000
       210         0.0000      0.0000     -0.0000      0.0000      0.0000
       211        -0.0931     -0.5013      0.0000      0.2599      0.0474
       212        -0.5013      0.0931     -0.0000      0.2599      0.0474
       213         0.0000      0.0000     -0.0000      0.0000      0.0000
       214         0.0000     -0.0000     -0.0000      0.0000      0.0000
       215        -0.0000      0.0000     -0.0000      0.0000      0.0000
       216         0.0000      0.0000     -0.0000      0.0000      0.0000
       217        -0.0000      0.0000     -0.0000      0.0000      0.0000
       218        -0.0000      0.0000      0.0000      0.0000      0.0000
       219        -0.0000     -0.0000     -0.0000      0.0000      0.0000
       220         0.0000     -0.0000     -0.0000      0.0000      0.0000
       221         0.0000     -0.0000      0.0000      0.0000      0.0000
       222        -0.0000     -0.0000      0.0000      0.0000      0.0000
       223        -0.0000      0.0000      0.0000      0.0000      0.0000
       224         0.0000      0.0000      0.0000      0.0000      0.0000
       225        -0.0000      0.0000     -0.0000      0.0000      0.0000
       226        -0.0000      0.0000     -0.1305      0.0170      0.0030
       227         0.0000     -0.0000     -0.0000      0.0000      0.0000
       228        -0.0000      0.0000      0.0000      0.0000      0.0000
       229         0.0000      0.0000      0.0000      0.0000      0.0000
       230         1.2035      2.7178     -0.0000      8.8346      1.5046
       231        -2.7178      1.2035      0.0000      8.8346      1.5046
       232        -0.0000     -0.0000      0.0000      0.0000      0.0000
       233        -0.0000     -0.0000      0.0000      0.0000      0.0000
       234        -0.0000      0.0000     -0.0000      0.0000      0.0000
       235        -0.0000     -0.0000     -1.8481      3.4155      0.5680
       236        -0.0000      0.0000      0.0000      0.0000      0.0000
       237        -0.0000     -0.0000      0.0000      0.0000      0.0000
       238        -0.0000     -0.0000     -0.0000      0.0000      0.0000
       239        -0.0000     -0.0000      0.0000      0.0000      0.0000
       240         0.0000      0.0000      0.0000      0.0000      0.0000
       241         0.0000     -0.0000      0.0000      0.0000      0.0000
       242        -0.0000      0.0000      0.0000      0.0000      0.0000
       243         0.4015     -0.5026      0.0000      0.4137      0.0644
       244        -0.5026     -0.4015      0.0000      0.4137      0.0644
       245         0.1491      0.0117      0.0000      0.0224      0.0033
       246        -0.0117      0.1491      0.0000      0.0224      0.0033
       247        -0.0000     -0.0000     -0.0000      0.0000      0.0000
       248         0.0000      0.0000     -0.0000      0.0000      0.0000
       249         0.0000      0.0000     -0.0000      0.0000      0.0000
       250        -0.0000      0.0000     -0.0000      0.0000      0.0000
       251         0.0000     -0.0000     -0.0000      0.0000      0.0000
       252         0.0000     -0.0000      0.0000      0.0000      0.0000
       253         0.0170      0.8463      0.0000      0.7166      0.0997
       254         0.8463     -0.0170     -0.0000      0.7166      0.0997
       255        -0.0000      0.0000     -0.0000      0.0000      0.0000
       256        -0.0000      0.0000      0.0000      0.0000      0.0000
       257        -0.0000      0.0000     -1.4038      1.9706      0.2615
       258        -0.0000      0.0000     -0.0000      0.0000      0.0000
       259        -0.0000     -0.0000     -0.4278      0.1830      0.0214
 Ground to excited state transition magnetic dipole moments (Au):
       state          X           Y           Z
         1         0.0000      0.0000      0.0000
         2         0.0000     -0.0000      0.0000
         3        -0.2859     -0.9790      0.0000
         4         0.9790     -0.2859     -0.0000
         5         0.6647      0.1206      0.0000
         6         0.1206     -0.6647      0.0000
         7         0.0000      0.0000      0.0000
         8         0.0000      0.0000     -0.0000
         9        -0.0000     -0.0000      0.0000
        10        -0.0000      0.0000      0.0000
        11         0.0000     -0.0000     -0.0000
        12        -0.0000      0.0000     -0.0000
        13        -0.4537      0.0368      0.0000
        14         0.0368      0.4537     -0.0000
        15        -0.0000      0.0000     -0.0000
        16         0.0000      0.0000      0.0000
        17        -0.0000     -0.0000      0.0000
        18        -0.0000     -0.0000     -0.0000
        19        -0.0000     -0.0000     -0.0000
        20         0.0000      0.0000     -0.0000
        21        -0.0000     -0.0000     -0.0000
        22        -0.2583     -0.0324     -0.0000
        23        -0.0324      0.2583     -0.0000
        24         0.0000      0.0000      0.0000
        25        -0.0000      0.0000     -0.0000
        26         0.0000     -0.0000     -0.0000
        27         0.0000     -0.0000      0.0000
        28         0.0000      0.0000      0.0000
        29        -0.0000     -0.0000      0.0000
        30         0.0000     -0.0000     -0.0000
        31        -0.0000     -0.0000     -0.0000
        32        -0.0000      0.0000      0.0000
[...]
     15   0.000000D+00  0.000000D+00 -0.136302D-01  0.327550D+00  0.000000D+00
     16   0.000000D+00  0.000000D+00  0.327550D+00  0.136302D-01  0.000000D+00
               191           192           193           194           195 
      1  -0.195965D+03 -0.195965D+03 -0.195959D+03 -0.195959D+03 -0.195958D+03
      2  -0.313272D-01 -0.793428D-01  0.000000D+00  0.000000D+00  0.000000D+00
      3  -0.793428D-01  0.313272D-01  0.000000D+00  0.000000D+00  0.000000D+00
      4   0.000000D+00  0.000000D+00  0.000000D+00  0.000000D+00  0.000000D+00
      5   0.817589D-01  0.207072D+00  0.000000D+00  0.000000D+00  0.000000D+00
      6   0.207072D+00 -0.817589D-01  0.000000D+00  0.000000D+00  0.000000D+00
      7   0.000000D+00  0.000000D+00  0.000000D+00  0.000000D+00  0.000000D+00
      8   0.000000D+00  0.000000D+00  0.000000D+00  0.000000D+00  0.000000D+00
      9   0.000000D+00  0.000000D+00  0.000000D+00  0.000000D+00  0.000000D+00
     10   0.000000D+00  0.000000D+00  0.000000D+00  0.000000D+00  0.000000D+00
     11   0.000000D+00  0.000000D+00  0.000000D+00  0.000000D+00  0.000000D+00
     12   0.000000D+00  0.000000D+00  0.000000D+00  0.000000D+00  0.000000D+00
     13   0.000000D+00  0.000000D+00  0.000000D+00  0.000000D+00  0.000000D+00
     14   0.000000D+00  0.000000D+00  0.000000D+00  0.000000D+00  0.000000D+00
     15   0.000000D+00  0.000000D+00  0.000000D+00  0.000000D+00  0.000000D+00
     16   0.000000D+00  0.000000D+00  0.000000D+00  0.000000D+00  0.000000D+00
               196           197           198           199           200 
      1  -0.195888D+03 -0.195847D+03 -0.195817D+03 -0.195817D+03 -0.195817D+03
      2   0.000000D+00  0.000000D+00  0.000000D+00  0.000000D+00  0.000000D+00
      3   0.000000D+00  0.000000D+00  0.000000D+00  0.000000D+00  0.000000D+00
      4   0.000000D+00  0.610599D+00  0.000000D+00  0.000000D+00  0.000000D+00
      5   0.000000D+00  0.000000D+00  0.000000D+00  0.000000D+00  0.000000D+00
      6   0.000000D+00  0.000000D+00  0.000000D+00  0.000000D+00  0.000000D+00
      7   0.000000D+00 -0.177742D+01  0.000000D+00  0.000000D+00  0.000000D+00
      8   0.000000D+00  0.000000D+00  0.000000D+00  0.000000D+00  0.000000D+00
      9   0.000000D+00  0.000000D+00  0.000000D+00  0.000000D+00  0.000000D+00
     10   0.000000D+00  0.000000D+00  0.000000D+00  0.000000D+00  0.000000D+00
     11   0.348542D-01  0.000000D+00  0.118587D+00  0.000000D+00  0.000000D+00
     12   0.348542D-01  0.000000D+00 -0.118587D+00  0.000000D+00  0.000000D+00
     13  -0.107121D+01  0.000000D+00  0.000000D+00  0.000000D+00  0.000000D+00
     14   0.000000D+00  0.000000D+00  0.000000D+00 -0.118587D+00  0.000000D+00
     15   0.000000D+00  0.000000D+00  0.000000D+00  0.000000D+00  0.000000D+00
     16   0.000000D+00  0.000000D+00  0.000000D+00  0.000000D+00  0.000000D+00
               201           202           203           204           205 
      1  -0.195775D+03 -0.195748D+03 -0.195748D+03 -0.195736D+03 -0.195736D+03
      2   0.000000D+00  0.000000D+00  0.000000D+00  0.235200D-01  0.456954D-01
      3   0.000000D+00  0.000000D+00  0.000000D+00  0.456954D-01 -0.235200D-01
      4   0.812123D-01  0.000000D+00  0.000000D+00  0.000000D+00  0.000000D+00
      5   0.000000D+00  0.000000D+00  0.000000D+00 -0.499228D-01 -0.969913D-01
      6   0.000000D+00  0.000000D+00  0.000000D+00 -0.969913D-01  0.499228D-01
      7  -0.373514D+00  0.000000D+00  0.000000D+00  0.000000D+00  0.000000D+00
      8   0.000000D+00 -0.187499D-04  0.190063D-04  0.000000D+00  0.000000D+00
      9   0.000000D+00 -0.190063D-04 -0.187499D-04  0.000000D+00  0.000000D+00
     10   0.000000D+00  0.000000D+00  0.000000D+00  0.000000D+00  0.000000D+00
     11   0.000000D+00  0.000000D+00  0.000000D+00  0.000000D+00  0.000000D+00
     12   0.000000D+00  0.000000D+00  0.000000D+00  0.000000D+00  0.000000D+00
     13   0.000000D+00  0.000000D+00  0.000000D+00  0.000000D+00  0.000000D+00
     14   0.000000D+00  0.000000D+00  0.000000D+00  0.000000D+00  0.000000D+00
     15   0.000000D+00 -0.172199D-04 -0.169876D-04  0.000000D+00  0.000000D+00
     16   0.000000D+00  0.169876D-04 -0.172199D-04  0.000000D+00  0.000000D+00
               206           207           208           209           210 
      1  -0.195697D+03 -0.195697D+03 -0.195670D+03 -0.195650D+03 -0.195650D+03
      2   0.000000D+00  0.465511D-05  0.000000D+00  0.000000D+00  0.000000D+00
      3   0.465511D-05  0.000000D+00  0.000000D+00  0.000000D+00  0.000000D+00
      4   0.000000D+00  0.000000D+00  0.000000D+00  0.000000D+00  0.000000D+00
      5   0.294187D-05 -0.145863D-04  0.000000D+00  0.000000D+00  0.000000D+00
      6  -0.145863D-04 -0.294187D-05  0.000000D+00  0.000000D+00  0.000000D+00
      7   0.000000D+00  0.000000D+00  0.000000D+00  0.000000D+00  0.000000D+00
      8   0.000000D+00  0.000000D+00  0.000000D+00 -0.152093D+01 -0.617052D+00
      9   0.000000D+00  0.000000D+00  0.000000D+00  0.617052D+00 -0.152093D+01
     10   0.000000D+00  0.000000D+00  0.000000D+00  0.000000D+00  0.000000D+00
     11   0.000000D+00  0.000000D+00 -0.422881D+00  0.000000D+00  0.000000D+00
     12   0.000000D+00  0.000000D+00 -0.422881D+00  0.000000D+00  0.000000D+00
     13   0.000000D+00  0.000000D+00 -0.312725D+01  0.000000D+00  0.000000D+00
     14   0.000000D+00  0.000000D+00  0.000000D+00  0.000000D+00  0.000000D+00
     15   0.000000D+00  0.000000D+00  0.000000D+00  0.549850D+00 -0.135529D+01
     16   0.000000D+00  0.000000D+00  0.000000D+00  0.135529D+01  0.549850D+00
               211           212           213           214           215 
      1  -0.195598D+03 -0.195598D+03 -0.195580D+03 -0.195580D+03 -0.195532D+03
      2   0.274085D-01  0.147595D+00 -0.999221D-05 -0.622080D-05  0.000000D+00
      3   0.147595D+00 -0.274085D-01 -0.622080D-05  0.999221D-05  0.000000D+00
      4   0.000000D+00  0.000000D+00  0.000000D+00  0.000000D+00  0.000000D+00
      5  -0.930850D-01 -0.501264D+00  0.339744D-04  0.211513D-04  0.000000D+00
      6  -0.501264D+00  0.930850D-01  0.211513D-04 -0.339744D-04  0.000000D+00
      7   0.000000D+00  0.000000D+00  0.000000D+00  0.000000D+00  0.000000D+00
      8   0.000000D+00  0.000000D+00  0.000000D+00  0.000000D+00  0.000000D+00
      9   0.000000D+00  0.000000D+00  0.000000D+00  0.000000D+00  0.000000D+00
     10   0.000000D+00  0.000000D+00  0.000000D+00  0.000000D+00  0.000000D+00
     11   0.000000D+00  0.000000D+00  0.000000D+00  0.000000D+00  0.000000D+00
     12   0.000000D+00  0.000000D+00  0.000000D+00  0.000000D+00  0.000000D+00
     13   0.000000D+00  0.000000D+00  0.000000D+00  0.000000D+00  0.000000D+00
     14   0.000000D+00  0.000000D+00  0.000000D+00  0.000000D+00 -0.220613D+00
     15   0.000000D+00  0.000000D+00  0.000000D+00  0.000000D+00  0.000000D+00
     16   0.000000D+00  0.000000D+00  0.000000D+00  0.000000D+00  0.000000D+00
               216           217           218           219           220 
      1  -0.195532D+03 -0.195528D+03 -0.195528D+03 -0.195499D+03 -0.195498D+03
      2   0.000000D+00  0.000000D+00  0.000000D+00  0.000000D+00  0.000000D+00
      3   0.000000D+00  0.000000D+00  0.000000D+00  0.000000D+00  0.000000D+00
      4   0.000000D+00  0.000000D+00  0.000000D+00  0.000000D+00  0.000000D+00
      5   0.000000D+00  0.000000D+00  0.000000D+00  0.000000D+00  0.000000D+00
      6   0.000000D+00  0.000000D+00  0.000000D+00  0.000000D+00  0.000000D+00
      7   0.000000D+00  0.000000D+00  0.000000D+00  0.000000D+00  0.000000D+00
      8   0.000000D+00 -0.321305D-05  0.388745D-04  0.000000D+00  0.000000D+00
      9   0.000000D+00 -0.388745D-04 -0.321305D-05  0.000000D+00  0.000000D+00
     10   0.000000D+00  0.000000D+00  0.000000D+00  0.000000D+00  0.000000D+00
     11  -0.220613D+00  0.000000D+00  0.000000D+00  0.000000D+00  0.125606D+00
     12   0.220613D+00  0.000000D+00  0.000000D+00  0.000000D+00 -0.125606D+00
     13   0.000000D+00  0.000000D+00  0.000000D+00  0.000000D+00  0.000000D+00
     14   0.000000D+00  0.000000D+00  0.000000D+00  0.000000D+00  0.000000D+00
     15   0.000000D+00 -0.343619D-04 -0.284008D-05  0.000000D+00  0.000000D+00
     16   0.000000D+00  0.284008D-05 -0.343619D-04  0.000000D+00  0.000000D+00
               221           222           223           224           225 
      1  -0.195498D+03 -0.195472D+03 -0.195472D+03 -0.195447D+03 -0.195447D+03
      2   0.000000D+00  0.000000D+00  0.000000D+00  0.000000D+00  0.000000D+00
      3   0.000000D+00  0.000000D+00  0.000000D+00  0.000000D+00  0.000000D+00
      4   0.000000D+00  0.000000D+00  0.000000D+00  0.000000D+00  0.000000D+00
      5   0.000000D+00  0.000000D+00  0.000000D+00  0.000000D+00  0.000000D+00
      6   0.000000D+00  0.000000D+00  0.000000D+00  0.000000D+00  0.000000D+00
      7   0.000000D+00  0.000000D+00  0.000000D+00  0.000000D+00  0.000000D+00
      8   0.000000D+00  0.000000D+00  0.000000D+00 -0.939434D-02 -0.181930D+01
      9   0.000000D+00  0.000000D+00  0.000000D+00 -0.181930D+01  0.939434D-02
     10   0.000000D+00  0.000000D+00  0.000000D+00  0.000000D+00  0.000000D+00
     11   0.000000D+00  0.000000D+00  0.000000D+00  0.000000D+00  0.000000D+00
     12   0.000000D+00  0.000000D+00  0.000000D+00  0.000000D+00  0.000000D+00
     13   0.000000D+00  0.000000D+00  0.000000D+00  0.000000D+00  0.000000D+00
     14   0.125606D+00  0.000000D+00  0.000000D+00  0.000000D+00  0.000000D+00
     15   0.000000D+00  0.000000D+00  0.000000D+00 -0.150812D+01  0.778751D-02
     16   0.000000D+00  0.000000D+00  0.000000D+00  0.778751D-02  0.150812D+01
               226           227           228           229           230 
      1  -0.195422D+03 -0.195358D+03 -0.195358D+03 -0.195357D+03 -0.195340D+03
      2   0.000000D+00  0.000000D+00  0.000000D+00  0.000000D+00 -0.353198D+00
      3   0.000000D+00  0.000000D+00  0.000000D+00  0.000000D+00 -0.797600D+00
      4   0.490810D-01  0.000000D+00  0.000000D+00  0.000000D+00  0.000000D+00
      5   0.000000D+00  0.000000D+00  0.000000D+00  0.000000D+00  0.120350D+01
      6   0.000000D+00  0.000000D+00  0.000000D+00  0.000000D+00  0.271776D+01
      7  -0.130497D+00  0.000000D+00  0.000000D+00  0.000000D+00  0.000000D+00
      8   0.000000D+00  0.000000D+00  0.000000D+00  0.000000D+00  0.000000D+00
      9   0.000000D+00  0.000000D+00  0.000000D+00  0.000000D+00  0.000000D+00
     10   0.000000D+00  0.000000D+00  0.000000D+00  0.000000D+00  0.000000D+00
     11   0.000000D+00  0.000000D+00  0.000000D+00  0.000000D+00  0.000000D+00
     12   0.000000D+00  0.000000D+00  0.000000D+00  0.000000D+00  0.000000D+00
     13   0.000000D+00  0.000000D+00  0.000000D+00  0.000000D+00  0.000000D+00
     14   0.000000D+00  0.000000D+00  0.000000D+00  0.000000D+00  0.000000D+00
     15   0.000000D+00  0.000000D+00  0.000000D+00  0.000000D+00  0.000000D+00
     16   0.000000D+00  0.000000D+00  0.000000D+00  0.000000D+00  0.000000D+00
               231           232           233           234           235 
      1  -0.195340D+03 -0.195295D+03 -0.195254D+03 -0.195254D+03 -0.195246D+03
      2   0.797600D+00  0.000000D+00  0.000000D+00  0.000000D+00  0.000000D+00
      3  -0.353198D+00  0.000000D+00  0.000000D+00  0.000000D+00  0.000000D+00
      4   0.000000D+00  0.000000D+00  0.000000D+00  0.000000D+00  0.493476D+00
      5  -0.271776D+01  0.000000D+00  0.000000D+00  0.000000D+00  0.000000D+00
      6   0.120350D+01  0.000000D+00  0.000000D+00  0.000000D+00  0.000000D+00
      7   0.000000D+00  0.000000D+00  0.000000D+00  0.000000D+00 -0.184812D+01
      8   0.000000D+00  0.000000D+00 -0.554072D-01 -0.308416D+00  0.000000D+00
      9   0.000000D+00  0.000000D+00  0.308416D+00 -0.554072D-01  0.000000D+00
     10   0.000000D+00  0.000000D+00  0.000000D+00  0.000000D+00  0.000000D+00
     11   0.000000D+00  0.254827D+00  0.000000D+00  0.000000D+00  0.000000D+00
     12   0.000000D+00  0.254827D+00  0.000000D+00  0.000000D+00  0.000000D+00
     13   0.000000D+00 -0.740242D+01  0.000000D+00  0.000000D+00  0.000000D+00
     14   0.000000D+00  0.000000D+00  0.000000D+00  0.000000D+00  0.000000D+00
     15   0.000000D+00  0.000000D+00  0.110806D+01 -0.199064D+00  0.000000D+00
     16   0.000000D+00  0.000000D+00  0.199064D+00  0.110806D+01  0.000000D+00
               236           237           238           239           240 
      1  -0.195180D+03 -0.195180D+03 -0.195121D+03 -0.195038D+03 -0.195038D+03
      2   0.000000D+00  0.000000D+00  0.000000D+00  0.000000D+00  0.000000D+00
      3   0.000000D+00  0.000000D+00  0.000000D+00  0.000000D+00  0.000000D+00
      4   0.000000D+00  0.000000D+00  0.000000D+00  0.000000D+00  0.000000D+00
      5   0.000000D+00  0.000000D+00  0.000000D+00  0.000000D+00  0.000000D+00
      6   0.000000D+00  0.000000D+00  0.000000D+00  0.000000D+00  0.000000D+00
      7   0.000000D+00  0.000000D+00  0.000000D+00  0.000000D+00  0.000000D+00
      8   0.666850D+00  0.282761D+01  0.000000D+00  0.000000D+00  0.000000D+00
      9  -0.282761D+01  0.666850D+00  0.000000D+00  0.000000D+00  0.000000D+00
     10   0.000000D+00  0.000000D+00  0.000000D+00  0.000000D+00  0.000000D+00
     11   0.000000D+00  0.000000D+00 -0.412377D+00  0.000000D+00  0.000000D+00
     12   0.000000D+00  0.000000D+00 -0.412377D+00  0.000000D+00  0.000000D+00
     13   0.000000D+00  0.000000D+00 -0.221671D+01  0.000000D+00  0.000000D+00
     14   0.000000D+00  0.000000D+00  0.000000D+00  0.000000D+00  0.000000D+00
     15  -0.333419D+01  0.786320D+00  0.000000D+00  0.000000D+00  0.000000D+00
     16  -0.786320D+00 -0.333419D+01  0.000000D+00  0.000000D+00  0.000000D+00
               241           242           243           244           245 
      1  -0.194976D+03 -0.194976D+03 -0.194969D+03 -0.194969D+03 -0.194799D+03
      2   0.000000D+00  0.000000D+00 -0.111507D+00  0.139585D+00 -0.382002D-01
      3   0.000000D+00  0.000000D+00  0.139585D+00  0.111507D+00 -0.300494D-02
      4   0.000000D+00  0.000000D+00  0.000000D+00  0.000000D+00  0.000000D+00
      5   0.000000D+00  0.000000D+00  0.401469D+00 -0.502560D+00  0.149130D+00
      6   0.000000D+00  0.000000D+00 -0.502560D+00 -0.401469D+00  0.117310D-01
      7   0.000000D+00  0.000000D+00  0.000000D+00  0.000000D+00  0.000000D+00
      8   0.000000D+00  0.000000D+00  0.000000D+00  0.000000D+00  0.000000D+00
      9   0.000000D+00  0.000000D+00  0.000000D+00  0.000000D+00  0.000000D+00
     10   0.000000D+00  0.000000D+00  0.000000D+00  0.000000D+00  0.000000D+00
     11   0.000000D+00  0.871239D+00  0.000000D+00  0.000000D+00  0.000000D+00
     12   0.000000D+00 -0.871239D+00  0.000000D+00  0.000000D+00  0.000000D+00
     13   0.000000D+00  0.000000D+00  0.000000D+00  0.000000D+00  0.000000D+00
     14   0.871239D+00  0.000000D+00  0.000000D+00  0.000000D+00  0.000000D+00
     15   0.000000D+00  0.000000D+00  0.000000D+00  0.000000D+00  0.000000D+00
     16   0.000000D+00  0.000000D+00  0.000000D+00  0.000000D+00  0.000000D+00
               246           247           248           249           250 
      1  -0.194799D+03 -0.194776D+03 -0.194776D+03 -0.194718D+03 -0.194718D+03
      2   0.300494D-02  0.000000D+00  0.000000D+00  0.000000D+00  0.000000D+00
      3  -0.382002D-01  0.000000D+00  0.000000D+00  0.000000D+00  0.000000D+00
      4   0.000000D+00  0.000000D+00  0.000000D+00  0.000000D+00  0.000000D+00
      5  -0.117310D-01  0.000000D+00  0.000000D+00  0.000000D+00  0.000000D+00
      6   0.149130D+00  0.000000D+00  0.000000D+00  0.000000D+00  0.000000D+00
      7   0.000000D+00  0.000000D+00  0.000000D+00  0.000000D+00  0.000000D+00
      8   0.000000D+00  0.000000D+00  0.000000D+00  0.000000D+00  0.000000D+00
      9   0.000000D+00  0.000000D+00  0.000000D+00  0.000000D+00  0.000000D+00
     10   0.000000D+00  0.000000D+00  0.000000D+00  0.000000D+00  0.000000D+00
     11   0.000000D+00  0.000000D+00  0.779947D+00  0.000000D+00  0.000000D+00
     12   0.000000D+00  0.000000D+00 -0.779947D+00  0.000000D+00  0.000000D+00
     13   0.000000D+00  0.000000D+00  0.000000D+00  0.000000D+00  0.000000D+00
     14   0.000000D+00  0.779947D+00  0.000000D+00  0.000000D+00  0.000000D+00
     15   0.000000D+00  0.000000D+00  0.000000D+00  0.000000D+00  0.000000D+00
     16   0.000000D+00  0.000000D+00  0.000000D+00  0.000000D+00  0.000000D+00
               251           252           253           254           255 
      1  -0.194541D+03 -0.194541D+03 -0.194464D+03 -0.194464D+03 -0.194329D+03
      2   0.000000D+00  0.000000D+00 -0.406691D-02 -0.202750D+00  0.000000D+00
      3   0.000000D+00  0.000000D+00 -0.202750D+00  0.406691D-02  0.000000D+00
      4   0.000000D+00  0.000000D+00  0.000000D+00  0.000000D+00  0.000000D+00
      5   0.000000D+00  0.000000D+00  0.169765D-01  0.846339D+00  0.000000D+00
      6   0.000000D+00  0.000000D+00  0.846339D+00 -0.169765D-01  0.000000D+00
      7   0.000000D+00  0.000000D+00  0.000000D+00  0.000000D+00  0.000000D+00
      8   0.291307D+00  0.260508D+00  0.000000D+00  0.000000D+00 -0.645358D+00
      9   0.260508D+00 -0.291307D+00  0.000000D+00  0.000000D+00 -0.603346D+00
     10   0.000000D+00  0.000000D+00  0.000000D+00  0.000000D+00  0.000000D+00
     11   0.000000D+00  0.000000D+00  0.000000D+00  0.000000D+00  0.000000D+00
     12   0.000000D+00  0.000000D+00  0.000000D+00  0.000000D+00  0.000000D+00
     13   0.000000D+00  0.000000D+00  0.000000D+00  0.000000D+00  0.000000D+00
     14   0.000000D+00  0.000000D+00  0.000000D+00  0.000000D+00  0.000000D+00
     15  -0.123557D+00  0.138165D+00  0.000000D+00  0.000000D+00 -0.832190D+00
     16   0.138165D+00  0.123557D+00  0.000000D+00  0.000000D+00  0.890137D+00
               256           257           258           259 
      1  -0.194329D+03 -0.194231D+03 -0.193796D+03 -0.193541D+03
      2   0.000000D+00  0.000000D+00  0.000000D+00  0.000000D+00
      3   0.000000D+00  0.000000D+00  0.000000D+00  0.000000D+00
      4   0.000000D+00  0.269713D+00  0.000000D+00  0.526280D-01
      5   0.000000D+00  0.000000D+00  0.000000D+00  0.000000D+00
      6   0.000000D+00  0.000000D+00  0.000000D+00  0.000000D+00
      7   0.000000D+00 -0.140378D+01  0.000000D+00 -0.427808D+00
      8  -0.603346D+00  0.000000D+00  0.000000D+00  0.000000D+00
      9   0.645358D+00  0.000000D+00  0.000000D+00  0.000000D+00
     10   0.000000D+00  0.000000D+00  0.000000D+00  0.000000D+00
     11   0.000000D+00  0.000000D+00 -0.144055D+00  0.000000D+00
     12   0.000000D+00  0.000000D+00 -0.144055D+00  0.000000D+00
     13   0.000000D+00  0.000000D+00  0.643380D+00  0.000000D+00
     14   0.000000D+00  0.000000D+00  0.000000D+00  0.000000D+00
     15   0.890137D+00  0.000000D+00  0.000000D+00  0.000000D+00
     16   0.832190D+00  0.000000D+00  0.000000D+00  0.000000D+00
 Unable to Open any file for archive entry.
 1\1\GINC-HEL24\SP\RLC-wHPBE TD-FC\Gen\F2\SABYASACHI\21-Mar-2022\0\\#P 
 TD(Nstates=10000) lc-whpbe/Gen SCF(maxcycles=100) Int(Grid=ultrafine)\
 \xGDB7_00001_tier4.com\\0,1\F,0,0.,0.,0.688193\F,0,0.,0.,-0.688193\\Ve
 rsion=EM64L-G16RevC.01\State=1-SGG\HF=-199.2546154\RMSD=6.985e-09\PG=D
 *H [C*(F1.F1)]\\@
 The archive entry for this job was punched.


 THE VALUE OF PHILOSOPHY IS, IN FACT, TO BE SOUGHT LARGELY IN ITS
 VERY UNCERTAINTY.  THE MAN WHO HAS NO TINCTURE OF PHILOSOPHY GOES
 THROUGH LIFE IMPRISONED IN THE PREJUDICES DERIVED FROM COMMON SENSE,
 FROM THE HABITUAL BELIEFS OF HIS AGE OR HIS NATION, AND FROM
 CONVICTIONS WHICH HAVE GROWN UP IN HIS MIND WITHOUT THE CO-OPERATION
 OR CONSENT OF HIS DELIBERATE REASON.  TO SUCH A MAN THE WORLD TENDS
 TO BE DEFINITE, FINITE, OBVIOUS; COMMON OBJECTS ROUSE NO QUESTIONS,
 AND UNFAMILIAR POSSIBILITIES ARE CONTEMPTUOUSLY REJECTED.

                             -- BERTRAND RUSSELL
 Job cpu time:       0 days  0 hours  0 minutes 21.3 seconds.
 Elapsed time:       0 days  0 hours  0 minutes  2.9 seconds.
 File lengths (MBytes):  RWF=     87 Int=      0 D2E=      0 Chk=     16 Scr=      1
 Normal termination of Gaussian 16 at Mon Mar 21 20:16:51 2022.
