 Entering Gaussian System, Link 0=g16
 Input=xGDB7_000013_TDDFT.com
 Output=xGDB7_000013_TDDFT.log
 Initial command:
 /home/prakriti/g16/l1.exe "/scratch/prakriti/PBS_7434523.helios/Gau-193761.inp" -scrdir="/scratch/prakriti/PBS_7434523.helios/"
 Entering Link 1 = /home/prakriti/g16/l1.exe PID=    193762.
  
 Copyright (c) 1988-2019, Gaussian, Inc.  All Rights Reserved.
  
 This is part of the Gaussian(R) 16 program.  It is based on
 the Gaussian(R) 09 system (copyright 2009, Gaussian, Inc.),
 the Gaussian(R) 03 system (copyright 2003, Gaussian, Inc.),
 the Gaussian(R) 98 system (copyright 1998, Gaussian, Inc.),
 the Gaussian(R) 94 system (copyright 1995, Gaussian, Inc.),
 the Gaussian 92(TM) system (copyright 1992, Gaussian, Inc.),
 the Gaussian 90(TM) system (copyright 1990, Gaussian, Inc.),
 the Gaussian 88(TM) system (copyright 1988, Gaussian, Inc.),
 the Gaussian 86(TM) system (copyright 1986, Carnegie Mellon
 University), and the Gaussian 82(TM) system (copyright 1983,
 Carnegie Mellon University). Gaussian is a federally registered
 trademark of Gaussian, Inc.
  
 This software contains proprietary and confidential information,
 including trade secrets, belonging to Gaussian, Inc.
  
 This software is provided under written license and may be
 used, copied, transmitted, or stored only in accord with that
 written license.
  
 The following legend is applicable only to US Government
 contracts under FAR:
  
                    RESTRICTED RIGHTS LEGEND
  
 Use, reproduction and disclosure by the US Government is
 subject to restrictions as set forth in subparagraphs (a)
 and (c) of the Commercial Computer Software - Restricted
 Rights clause in FAR 52.227-19.
  
 Gaussian, Inc.
 340 Quinnipiac St., Bldg. 40, Wallingford CT 06492
  
  
 ---------------------------------------------------------------
 Warning -- This program may not be used in any manner that
 competes with the business of Gaussian, Inc. or will provide
 assistance to any competitor of Gaussian, Inc.  The licensee
 of this program is prohibited from giving any competitor of
 Gaussian, Inc. access to this program.  By using this program,
 the user acknowledges that Gaussian, Inc. is engaged in the
 business of creating and licensing software in the field of
 computational chemistry and represents and warrants to the
 licensee that it is not a competitor of Gaussian, Inc. and that
 it will not use this program in any manner prohibited above.
 ---------------------------------------------------------------
  

 Cite this work as:
 Gaussian 16, Revision C.01,
 M. J. Frisch, G. W. Trucks, H. B. Schlegel, G. E. Scuseria, 
 M. A. Robb, J. R. Cheeseman, G. Scalmani, V. Barone, 
 G. A. Petersson, H. Nakatsuji, X. Li, M. Caricato, A. V. Marenich, 
 J. Bloino, B. G. Janesko, R. Gomperts, B. Mennucci, H. P. Hratchian, 
 J. V. Ortiz, A. F. Izmaylov, J. L. Sonnenberg, D. Williams-Young, 
 F. Ding, F. Lipparini, F. Egidi, J. Goings, B. Peng, A. Petrone, 
 T. Henderson, D. Ranasinghe, V. G. Zakrzewski, J. Gao, N. Rega, 
 G. Zheng, W. Liang, M. Hada, M. Ehara, K. Toyota, R. Fukuda, 
 J. Hasegawa, M. Ishida, T. Nakajima, Y. Honda, O. Kitao, H. Nakai, 
 T. Vreven, K. Throssell, J. A. Montgomery, Jr., J. E. Peralta, 
 F. Ogliaro, M. J. Bearpark, J. J. Heyd, E. N. Brothers, K. N. Kudin, 
 V. N. Staroverov, T. A. Keith, R. Kobayashi, J. Normand, 
 K. Raghavachari, A. P. Rendell, J. C. Burant, S. S. Iyengar, 
 J. Tomasi, M. Cossi, J. M. Millam, M. Klene, C. Adamo, R. Cammi, 
 J. W. Ochterski, R. L. Martin, K. Morokuma, O. Farkas, 
 J. B. Foresman, and D. J. Fox, Gaussian, Inc., Wallingford CT, 2019.
 
 ******************************************
 Gaussian 16:  EM64L-G16RevC.01  3-Jul-2019
                14-Aug-2021 
 ******************************************
 %mem=8gb
 %nproc=8
 Will use up to    8 processors via shared memory.
 ----------------------------------------------------------------------
 #P TD(Nstates=10000) wB97XD/def2SVP SCF(maxcycles=100) Int(Grid=ultraf
 ine)
 ----------------------------------------------------------------------
 1/38=1,172=1/1;
 2/12=2,17=6,18=5,40=1/2;
 3/5=43,7=101,11=9,25=1,30=1,74=-58,75=-5/1,2,3,8;
 4//1;
 5/5=2,7=100,38=5/2;
 8/6=1,10=1,108=10000/1;
 9/41=10000,42=1,70=2/14;
 6/7=2,8=2,9=2,10=2/1;
 99/5=1,9=1/99;
 Leave Link    1 at Sat Aug 14 07:22:48 2021, MaxMem=  1073741824 cpu:               0.3 elap:               0.0
 (Enter /home/prakriti/g16/l101.exe)
 ---------------------
 xGDB7_00001_tier4.com
 ---------------------
 Symbolic Z-matrix:
 Charge =  0 Multiplicity = 1
 6                     0.        0.        0.60339 
 6                     0.        0.       -0.60339 
 1                     0.        0.        1.67798 
 1                     0.        0.       -1.67798 
 
 ITRead=  0  0  0  0
 MicOpt= -1 -1 -1 -1
 NAtoms=      4 NQM=        4 NQMF=       0 NMMI=      0 NMMIF=      0
                NMic=       0 NMicF=      0.
                    Isotopes and Nuclear Properties:
 (Nuclear quadrupole moments (NQMom) in fm**2, nuclear magnetic moments (NMagM)
  in nuclear magnetons)

  Atom         1           2           3           4
 IAtWgt=          12          12           1           1
 AtmWgt=  12.0000000  12.0000000   1.0078250   1.0078250
 NucSpn=           0           0           1           1
 AtZEff=  -0.0000000  -0.0000000  -0.0000000  -0.0000000
 NQMom=    0.0000000   0.0000000   0.0000000   0.0000000
 NMagM=    0.0000000   0.0000000   2.7928460   2.7928460
 AtZNuc=   6.0000000   6.0000000   1.0000000   1.0000000
 Leave Link  101 at Sat Aug 14 07:22:48 2021, MaxMem=  1073741824 cpu:               0.6 elap:               0.1
 (Enter /home/prakriti/g16/l202.exe)
                          Input orientation:                          
 ---------------------------------------------------------------------
 Center     Atomic      Atomic             Coordinates (Angstroms)
 Number     Number       Type             X           Y           Z
 ---------------------------------------------------------------------
      1          6           0        0.000000    0.000000    0.603394
      2          6           0        0.000000    0.000000   -0.603394
      3          1           0        0.000000    0.000000    1.677978
      4          1           0        0.000000    0.000000   -1.677978
 ---------------------------------------------------------------------
                    Distance matrix (angstroms):
                    1          2          3          4
     1  C    0.000000
     2  C    1.206788   0.000000
     3  H    1.074584   2.281372   0.000000
     4  H    2.281372   1.074584   3.355956   0.000000
 Stoichiometry    C2H2
 Framework group  D*H[C*(HC.CH)]
 Deg. of freedom     2
 Full point group                 D*H     NOp   8
 Largest Abelian subgroup         D2H     NOp   8
 Largest concise Abelian subgroup C2      NOp   2
                         Standard orientation:                         
 ---------------------------------------------------------------------
 Center     Atomic      Atomic             Coordinates (Angstroms)
 Number     Number       Type             X           Y           Z
 ---------------------------------------------------------------------
      1          6           0        0.000000    0.000000    0.603394
      2          6           0        0.000000    0.000000   -0.603394
      3          1           0        0.000000    0.000000    1.677978
      4          1           0        0.000000    0.000000   -1.677978
 ---------------------------------------------------------------------
 Rotational constants (GHZ):           0.0000000          35.0633589          35.0633589
 Leave Link  202 at Sat Aug 14 07:22:48 2021, MaxMem=  1073741824 cpu:               0.1 elap:               0.0
 (Enter /home/prakriti/g16/l301.exe)
 Standard basis: def2SVP (5D, 7F)
 Ernie: Thresh=  0.10000D-02 Tol=  0.10000D-05 Strict=F.
 There are    11 symmetry adapted cartesian basis functions of AG  symmetry.
 There are     1 symmetry adapted cartesian basis functions of B1G symmetry.
 There are     4 symmetry adapted cartesian basis functions of B2G symmetry.
 There are     4 symmetry adapted cartesian basis functions of B3G symmetry.
 There are     1 symmetry adapted cartesian basis functions of AU  symmetry.
 There are    11 symmetry adapted cartesian basis functions of B1U symmetry.
 There are     4 symmetry adapted cartesian basis functions of B2U symmetry.
 There are     4 symmetry adapted cartesian basis functions of B3U symmetry.
 There are    10 symmetry adapted basis functions of AG  symmetry.
 There are     1 symmetry adapted basis functions of B1G symmetry.
 There are     4 symmetry adapted basis functions of B2G symmetry.
 There are     4 symmetry adapted basis functions of B3G symmetry.
 There are     1 symmetry adapted basis functions of AU  symmetry.
 There are    10 symmetry adapted basis functions of B1U symmetry.
 There are     4 symmetry adapted basis functions of B2U symmetry.
 There are     4 symmetry adapted basis functions of B3U symmetry.
    38 basis functions,    64 primitive gaussians,    40 cartesian basis functions
     7 alpha electrons        7 beta electrons
       nuclear repulsion energy        24.6365525661 Hartrees.
 IExCor= 4639 DFT=T Ex+Corr=wB97XD ExCW=0 ScaHFX=  1.000000
 ScaDFX=  1.000000  1.000000  1.000000  1.000000 ScalE2=  1.000000  1.000000
 IRadAn=      5 IRanWt=     -1 IRanGd=            0 ICorTp=0 IEmpDi=121
 HFx  wShort=  0.000000 wLong=  0.200000 cFull=  0.222036 cShort=  0.000000 cLong=  0.777964
 DFx  wShort=  0.000000 wLong=  0.200000 cFull=  0.000000 cShort=  0.000000 cLong=  1.000000
 NAtoms=    4 NActive=    4 NUniq=    2 SFac= 4.00D+00 NAtFMM=   60 NAOKFM=F Big=F
 Integral buffers will be    131072 words long.
 Raffenetti 1 integral format.
 Two-electron integral symmetry is turned on.
 R6Disp:  Grimme-D2 Dispersion energy=       -0.0002143533 Hartrees.
 Nuclear repulsion after empirical dispersion term =       24.6363382128 Hartrees.
 Leave Link  301 at Sat Aug 14 07:22:48 2021, MaxMem=  1073741824 cpu:               0.5 elap:               0.1
 (Enter /home/prakriti/g16/l302.exe)
 NPDir=0 NMtPBC=     1 NCelOv=     1 NCel=       1 NClECP=     1 NCelD=      1
         NCelK=      1 NCelE2=     1 NClLst=     1 CellRange=     0.0.
 One-electron integrals computed using PRISM.
 One-electron integral symmetry used in STVInt
   8 Symmetry operations used in ECPInt.
 ECPInt:  NShTT=     171 NPrTT=     627 LenC2=     172 LenP2D=     599.
 LDataN:  DoStor=T MaxTD1= 4 Len=   56
 NBasis=    38 RedAO= T EigKep=  1.33D-03  NBF=    10     1     4     4     1    10     4     4
 NBsUse=    38 1.00D-06 EigRej= -1.00D+00 NBFU=    10     1     4     4     1    10     4     4
 Precomputing XC quadrature grid using
 IXCGrd= 4 IRadAn=           5 IRanWt=          -1 IRanGd=           0 AccXCQ= 0.00D+00.
 Generated NRdTot=       0 NPtTot=           0 NUsed=           0 NTot=          32
 NSgBfM=    40    40    40    40    40 MxSgAt=     4 MxSgA2=     4.
 Leave Link  302 at Sat Aug 14 07:22:49 2021, MaxMem=  1073741824 cpu:               1.0 elap:               0.1
 (Enter /home/prakriti/g16/l303.exe)
 DipDrv:  MaxL=1.
 Leave Link  303 at Sat Aug 14 07:22:49 2021, MaxMem=  1073741824 cpu:               0.2 elap:               0.0
 (Enter /home/prakriti/g16/l308.exe)
 Leave Link  308 at Sat Aug 14 07:22:49 2021, MaxMem=  1073741824 cpu:               0.2 elap:               0.1
 (Enter /home/prakriti/g16/l401.exe)
 ExpMin= 1.22D-01 ExpMax= 1.24D+03 ExpMxC= 1.86D+02 IAcc=3 IRadAn=         5 AccDes= 0.00D+00
 Harris functional with IExCor= 4639 and IRadAn=       5 diagonalized for initial guess.
 HarFok:  IExCor= 4639 AccDes= 0.00D+00 IRadAn=         5 IDoV= 1 UseB2=F ITyADJ=14
 ICtDFT=  3500011 ScaDFX=  1.000000  1.000000  1.000000  1.000000
 FoFCou: FMM=F IPFlag=           0 FMFlag=      100000 FMFlg1=           0
         NFxFlg=           0 DoJE=T BraDBF=F KetDBF=T FulRan=T
         wScrn=  0.000000 ICntrl=       500 IOpCl=  0 I1Cent=   200000004 NGrid=           0
         NMat0=    1 NMatS0=      1 NMatT0=    0 NMatD0=    1 NMtDS0=    0 NMtDT0=    0
 Petite list used in FoFCou.
 Harris En= -73.6782851665942    
 JPrj=0 DoOrth=F DoCkMO=F.
 Initial guess orbital symmetries:
       Occupied  (SGG) (SGU) (SGG) (SGU) (SGG) (PIU) (PIU)
       Virtual   (PIG) (PIG) (SGU) (SGG) (SGU) (SGG) (PIU) (PIU)
                 (PIG) (PIG) (SGG) (SGU) (SGG) (SGU) (PIU) (PIU)
                 (SGU) (DLTG) (DLTG) (PIG) (PIG) (DLTU) (DLTU)
                 (SGG) (PIU) (PIU) (SGU) (PIG) (PIG) (SGG) (SGU)
 The electronic state of the initial guess is 1-SGG.
 Leave Link  401 at Sat Aug 14 07:22:49 2021, MaxMem=  1073741824 cpu:               1.2 elap:               0.2
 (Enter /home/prakriti/g16/l502.exe)
 Keep R1 ints in memory in symmetry-blocked form, NReq=7498554.
 FoFCou: FMM=F IPFlag=           0 FMFlag=           0 FMFlg1=           0
         NFxFlg=           0 DoJE=F BraDBF=F KetDBF=F FulRan=T
         wScrn=  0.000000 ICntrl=       600 IOpCl=  0 I1Cent=           0 NGrid=           0
         NMat0=    1 NMatS0=    741 NMatT0=    0 NMatD0=    1 NMtDS0=    0 NMtDT0=    0
 Petite list used in FoFCou.
 Closed shell SCF:
 Using DIIS extrapolation, IDIIS=  1040.
 NGot=  1073741824 LenX=  1073694411 LenY=  1073692370
 Requested convergence on RMS density matrix=1.00D-08 within 100 cycles.
 Requested convergence on MAX density matrix=1.00D-06.
 Requested convergence on             energy=1.00D-06.
 No special actions if energy rises.
 Integral accuracy reduced to 1.0D-05 until final iterations.

 Cycle   1  Pass 0  IDiag  1:
 E= -77.2222771128579    
 DIIS: error= 3.35D-02 at cycle   1 NSaved=   1.
 NSaved= 1 IEnMin= 1 EnMin= -77.2222771128579     IErMin= 1 ErrMin= 3.35D-02
 ErrMax= 3.35D-02  0.00D+00 EMaxC= 1.00D-01 BMatC= 3.89D-02 BMatP= 3.89D-02
 IDIUse=3 WtCom= 6.65D-01 WtEn= 3.35D-01
 Coeff-Com:  0.100D+01
 Coeff-En:   0.100D+01
 Coeff:      0.100D+01
 Gap=     0.478 Goal=   None    Shift=    0.000
 GapD=    0.478 DampG=2.000 DampE=0.500 DampFc=1.0000 IDamp=-1.
 RMSDP=6.92D-03 MaxDP=8.01D-02              OVMax= 5.64D-02

 Cycle   2  Pass 0  IDiag  1:
 E= -77.2367001268660     Delta-E=       -0.014423014008 Rises=F Damp=F
 DIIS: error= 1.06D-02 at cycle   2 NSaved=   2.
 NSaved= 2 IEnMin= 2 EnMin= -77.2367001268660     IErMin= 2 ErrMin= 1.06D-02
 ErrMax= 1.06D-02  0.00D+00 EMaxC= 1.00D-01 BMatC= 2.29D-03 BMatP= 3.89D-02
 IDIUse=3 WtCom= 8.94D-01 WtEn= 1.06D-01
 Coeff-Com:  0.120D+00 0.880D+00
 Coeff-En:   0.000D+00 0.100D+01
 Coeff:      0.107D+00 0.893D+00
 Gap=     0.493 Goal=   None    Shift=    0.000
 RMSDP=1.42D-03 MaxDP=1.63D-02 DE=-1.44D-02 OVMax= 1.77D-02

 Cycle   3  Pass 0  IDiag  1:
 E= -77.2386492408870     Delta-E=       -0.001949114021 Rises=F Damp=F
 DIIS: error= 4.44D-03 at cycle   3 NSaved=   3.
 NSaved= 3 IEnMin= 3 EnMin= -77.2386492408870     IErMin= 3 ErrMin= 4.44D-03
 ErrMax= 4.44D-03  0.00D+00 EMaxC= 1.00D-01 BMatC= 2.90D-04 BMatP= 2.29D-03
 IDIUse=3 WtCom= 9.56D-01 WtEn= 4.44D-02
 Coeff-Com:  0.289D-02 0.261D+00 0.736D+00
 Coeff-En:   0.000D+00 0.000D+00 0.100D+01
 Coeff:      0.276D-02 0.249D+00 0.748D+00
 Gap=     0.489 Goal=   None    Shift=    0.000
 RMSDP=5.24D-04 MaxDP=4.03D-03 DE=-1.95D-03 OVMax= 6.32D-03

 Cycle   4  Pass 0  IDiag  1:
 E= -77.2389749372076     Delta-E=       -0.000325696321 Rises=F Damp=F
 DIIS: error= 1.72D-04 at cycle   4 NSaved=   4.
 NSaved= 4 IEnMin= 4 EnMin= -77.2389749372076     IErMin= 4 ErrMin= 1.72D-04
 ErrMax= 1.72D-04  0.00D+00 EMaxC= 1.00D-01 BMatC= 1.35D-06 BMatP= 2.90D-04
 IDIUse=3 WtCom= 9.98D-01 WtEn= 1.72D-03
 Coeff-Com: -0.102D-02-0.140D-01 0.267D-01 0.988D+00
 Coeff-En:   0.000D+00 0.000D+00 0.000D+00 0.100D+01
 Coeff:     -0.102D-02-0.140D-01 0.266D-01 0.988D+00
 Gap=     0.490 Goal=   None    Shift=    0.000
 RMSDP=7.19D-05 MaxDP=7.57D-04 DE=-3.26D-04 OVMax= 4.65D-04

 Cycle   5  Pass 0  IDiag  1:
 E= -77.2389766068903     Delta-E=       -0.000001669683 Rises=F Damp=F
 DIIS: error= 1.94D-05 at cycle   5 NSaved=   5.
 NSaved= 5 IEnMin= 5 EnMin= -77.2389766068903     IErMin= 5 ErrMin= 1.94D-05
 ErrMax= 1.94D-05  0.00D+00 EMaxC= 1.00D-01 BMatC= 8.97D-09 BMatP= 1.35D-06
 IDIUse=1 WtCom= 1.00D+00 WtEn= 0.00D+00
 Coeff-Com:  0.739D-04-0.581D-02-0.205D-01-0.552D-01 0.108D+01
 Coeff:      0.739D-04-0.581D-02-0.205D-01-0.552D-01 0.108D+01
 Gap=     0.490 Goal=   None    Shift=    0.000
 RMSDP=1.28D-05 MaxDP=1.24D-04 DE=-1.67D-06 OVMax= 5.99D-05

 Cycle   6  Pass 0  IDiag  1:
 E= -77.2389766215272     Delta-E=       -0.000000014637 Rises=F Damp=F
 DIIS: error= 6.73D-07 at cycle   6 NSaved=   6.
 NSaved= 6 IEnMin= 6 EnMin= -77.2389766215272     IErMin= 6 ErrMin= 6.73D-07
 ErrMax= 6.73D-07  0.00D+00 EMaxC= 1.00D-01 BMatC= 1.37D-11 BMatP= 8.97D-09
 IDIUse=1 WtCom= 1.00D+00 WtEn= 0.00D+00
 Coeff-Com: -0.114D-04 0.920D-03 0.323D-02 0.772D-02-0.177D+00 0.117D+01
 Coeff:     -0.114D-04 0.920D-03 0.323D-02 0.772D-02-0.177D+00 0.117D+01
 Gap=     0.490 Goal=   None    Shift=    0.000
 RMSDP=6.55D-07 MaxDP=8.30D-06 DE=-1.46D-08 OVMax= 3.48D-06

 Initial convergence to 1.0D-05 achieved.  Increase integral accuracy.
 Cycle   7  Pass 1  IDiag  1:
 E= -77.2389996855909     Delta-E=       -0.000023064064 Rises=F Damp=F
 DIIS: error= 2.97D-05 at cycle   1 NSaved=   1.
 NSaved= 1 IEnMin= 1 EnMin= -77.2389996855909     IErMin= 1 ErrMin= 2.97D-05
 ErrMax= 2.97D-05  0.00D+00 EMaxC= 1.00D-01 BMatC= 2.33D-08 BMatP= 2.33D-08
 IDIUse=1 WtCom= 1.00D+00 WtEn= 0.00D+00
 Coeff-Com:  0.100D+01
 Coeff:      0.100D+01
 Gap=     0.490 Goal=   None    Shift=    0.000
 RMSDP=6.55D-07 MaxDP=8.30D-06 DE=-2.31D-05 OVMax= 5.09D-05

 Cycle   8  Pass 1  IDiag  1:
 E= -77.2389997039080     Delta-E=       -0.000000018317 Rises=F Damp=F
 DIIS: error= 7.35D-06 at cycle   2 NSaved=   2.
 NSaved= 2 IEnMin= 2 EnMin= -77.2389997039080     IErMin= 2 ErrMin= 7.35D-06
 ErrMax= 7.35D-06  0.00D+00 EMaxC= 1.00D-01 BMatC= 1.06D-09 BMatP= 2.33D-08
 IDIUse=1 WtCom= 1.00D+00 WtEn= 0.00D+00
 Coeff-Com:  0.555D-01 0.945D+00
 Coeff:      0.555D-01 0.945D+00
 Gap=     0.490 Goal=   None    Shift=    0.000
 RMSDP=2.07D-06 MaxDP=1.97D-05 DE=-1.83D-08 OVMax= 1.57D-05

 Cycle   9  Pass 1  IDiag  1:
 E= -77.2389997049253     Delta-E=       -0.000000001017 Rises=F Damp=F
 DIIS: error= 4.01D-06 at cycle   3 NSaved=   3.
 NSaved= 3 IEnMin= 3 EnMin= -77.2389997049253     IErMin= 3 ErrMin= 4.01D-06
 ErrMax= 4.01D-06  0.00D+00 EMaxC= 1.00D-01 BMatC= 2.04D-10 BMatP= 1.06D-09
 IDIUse=1 WtCom= 1.00D+00 WtEn= 0.00D+00
 Coeff-Com: -0.312D-01 0.276D+00 0.755D+00
 Coeff:     -0.312D-01 0.276D+00 0.755D+00
 Gap=     0.490 Goal=   None    Shift=    0.000
 RMSDP=3.76D-07 MaxDP=3.89D-06 DE=-1.02D-09 OVMax= 5.55D-06

 Cycle  10  Pass 1  IDiag  1:
 E= -77.2389997051538     Delta-E=       -0.000000000228 Rises=F Damp=F
 DIIS: error= 1.47D-07 at cycle   4 NSaved=   4.
 NSaved= 4 IEnMin= 4 EnMin= -77.2389997051538     IErMin= 4 ErrMin= 1.47D-07
 ErrMax= 1.47D-07  0.00D+00 EMaxC= 1.00D-01 BMatC= 4.70D-13 BMatP= 2.04D-10
 IDIUse=1 WtCom= 1.00D+00 WtEn= 0.00D+00
 Coeff-Com:  0.243D-02-0.407D-01-0.697D-01 0.111D+01
 Coeff:      0.243D-02-0.407D-01-0.697D-01 0.111D+01
 Gap=     0.490 Goal=   None    Shift=    0.000
 RMSDP=4.28D-08 MaxDP=2.65D-07 DE=-2.28D-10 OVMax= 3.75D-07

 Cycle  11  Pass 1  IDiag  1:
 E= -77.2389997051545     Delta-E=       -0.000000000001 Rises=F Damp=F
 DIIS: error= 1.66D-08 at cycle   5 NSaved=   5.
 NSaved= 5 IEnMin= 5 EnMin= -77.2389997051545     IErMin= 5 ErrMin= 1.66D-08
 ErrMax= 1.66D-08  0.00D+00 EMaxC= 1.00D-01 BMatC= 7.29D-15 BMatP= 4.70D-13
 IDIUse=1 WtCom= 1.00D+00 WtEn= 0.00D+00
 Coeff-Com: -0.884D-04 0.338D-02 0.506D-02-0.186D+00 0.118D+01
 Coeff:     -0.884D-04 0.338D-02 0.506D-02-0.186D+00 0.118D+01
 Gap=     0.490 Goal=   None    Shift=    0.000
 RMSDP=8.67D-09 MaxDP=7.52D-08 DE=-7.39D-13 OVMax= 7.64D-08

 SCF Done:  E(RwB97XD) =  -77.2389997052     A.U. after   11 cycles
            NFock= 11  Conv=0.87D-08     -V/T= 2.0119
 KE= 7.632774736612D+01 PE=-2.278855634823D+02 EE= 4.968247819823D+01
 Leave Link  502 at Sat Aug 14 07:22:49 2021, MaxMem=  1073741824 cpu:               2.4 elap:               0.3
 (Enter /home/prakriti/g16/l801.exe)
 DoSCS=F DFT=T ScalE2(SS,OS)=  1.000000  1.000000
 ExpMin= 1.22D-01 ExpMax= 1.24D+03 ExpMxC= 1.86D+02 IAcc=3 IRadAn=         5 AccDes= 0.00D+00
 HarFok:  IExCor=  205 AccDes= 0.00D+00 IRadAn=         5 IDoV=-2 UseB2=F ITyADJ=14
 ICtDFT= 12500011 ScaDFX=  1.000000  1.000000  1.000000  1.000000
 Largest valence mixing into a core orbital is  7.02D-05
 Largest core mixing into a valence orbital is  2.48D-05
 Range of M.O.s used for correlation:     3    38
 NBasis=    38 NAE=     7 NBE=     7 NFC=     2 NFV=     0
 NROrb=     36 NOA=     5 NOB=     5 NVA=    31 NVB=    31

 **** Warning!!: The largest alpha MO coefficient is  0.11650782D+02

 Leave Link  801 at Sat Aug 14 07:22:49 2021, MaxMem=  1073741824 cpu:               0.4 elap:               0.1
 (Enter /home/prakriti/g16/l914.exe)
 RHF ground state
 Keep R1, R2, and R3 ints in memory in symmetry-blocked form, NReq=38787046.
 FoFCou: FMM=F IPFlag=           0 FMFlag=           0 FMFlg1=           0
         NFxFlg=           0 DoJE=F BraDBF=F KetDBF=F FulRan=T
         wScrn=  0.000000 ICntrl=       600 IOpCl=  0 I1Cent=           0 NGrid=           0
         NMat0=    1 NMatS0=    741 NMatT0=    0 NMatD0=    1 NMtDS0=    0 NMtDT0=    0
 Petite list used in FoFCou.
 MDV=  1073741824 DFT=T DoStab=F Mixed=T DoRPA=T DoScal=F NonHer=T
 Making orbital integer symmetry assigments:
 Orbital symmetries:
       Occupied  (SGG) (SGU) (SGG) (SGU) (SGG) (PIU) (PIU)
       Virtual   (PIG) (PIG) (SGU) (SGG) (SGU) (SGG) (PIU) (PIU)
                 (PIG) (PIG) (SGG) (SGU) (SGG) (SGU) (PIU) (PIU)
                 (SGU) (PIG) (PIG) (DLTG) (DLTG) (DLTU) (DLTU)
                 (SGG) (PIU) (PIU) (SGU) (PIG) (PIG) (SGG) (SGU)
   155 initial guesses have been made.
 Convergence on wavefunction:    0.001000000000000
 Davidson Disk Diagonalization:  ConvIn= 1.00D-03 SkipCon=T Conv= 1.00D-03.
 Max sub-space:   930 roots to seek:   310 dimension of matrix:          310
 *** WARNING: Number of orthogonal guesses is          155
 Iteration     1 Dimension   155 NMult     0 NNew    155
 CISAX will form   155 AO SS matrices at one time.
 NMat=   155 NSing=   155 JSym2X=-1.
 New state      1 was old state      2
 New state      2 was old state      3
 New state      3 was old state      1
 New state      4 was old state      6
 New state      6 was old state      7
 New state      7 was old state      8
 New state      8 was old state      4
 New state     13 was old state     14
 New state     14 was old state     13
 New state     21 was old state     23
 New state     23 was old state     25
 New state     24 was old state     28
 New state     25 was old state     27
 New state     27 was old state     21
 New state     28 was old state     29
 New state     29 was old state     30
 New state     30 was old state     34
 New state     31 was old state     33
 New state     32 was old state     31
 New state     33 was old state     36
 New state     34 was old state     32
 New state     35 was old state     24
 New state     36 was old state     37
 New state     37 was old state     38
 New state     38 was old state     40
 New state     40 was old state     42
 New state     42 was old state     35
 New state     43 was old state     45
 New state     44 was old state     46
 New state     45 was old state     43
 New state     46 was old state     44
 New state     49 was old state     50
 New state     50 was old state     51
 New state     51 was old state     52
 New state     52 was old state     49
 New state     53 was old state     54
 New state     54 was old state     55
 New state     55 was old state     59
 New state     56 was old state     60
 New state     59 was old state     53
 New state     60 was old state     56
 New state     61 was old state     62
 New state     62 was old state     61
 New state     66 was old state     68
 New state     67 was old state     71
 New state     68 was old state     69
 New state     69 was old state     67
 New state     70 was old state     72
 New state     71 was old state     66
 New state     72 was old state     73
 New state     73 was old state     74
 New state     74 was old state     70
 New state     79 was old state     86
 New state     80 was old state     87
 New state     81 was old state     79
 New state     82 was old state     80
 New state     83 was old state     81
 New state     84 was old state     83
 New state     86 was old state     84
 New state     87 was old state     90
 New state     88 was old state     82
 New state     89 was old state     91
 New state     90 was old state     92
 New state     91 was old state     89
 New state     92 was old state     88
 New state     93 was old state     97
 New state     94 was old state     96
 New state     95 was old state     93
 New state     96 was old state     94
 New state     97 was old state     95
 New state     98 was old state    100
 New state     99 was old state    101
 New state    100 was old state     98
 New state    101 was old state     99
 New state    104 was old state    106
 New state    105 was old state    107
 New state    106 was old state    104
 New state    107 was old state    105
 New state    108 was old state    109
 New state    109 was old state    108
 New state    111 was old state    115
 New state    112 was old state    114
 New state    113 was old state    112
 New state    114 was old state    113
 New state    115 was old state    111
 New state    124 was old state    125
 New state    125 was old state    124
 New state    136 was old state    137
 New state    137 was old state    136
 New state    138 was old state    139
 New state    139 was old state    138
 New state    140 was old state    141
 New state    141 was old state    140
 New state    146 was old state    147
 New state    147 was old state    148
 New state    148 was old state    146
 New state    151 was old state    152
 New state    152 was old state    151
 Excitation Energies [eV] at current iteration:
 Root      1 :     6.827991079232188
 Root      2 :     7.123844074815954
 Root      3 :     7.123849326515826
 Root      4 :     9.728035484679818
 Root      5 :     9.728035484679953
 Root      6 :    10.387121995562370
 Root      7 :    10.387121995562600
 Root      8 :    11.306465659450630
 Root      9 :    12.872243315286250
 Root     10 :    12.872243315286430
 Root     11 :    14.210075229756830
 Root     12 :    14.210075229756840
 Root     13 :    14.342152990883930
 Root     14 :    14.342152990883950
 Root     15 :    15.219607142262470
 Root     16 :    16.047071152472290
 Root     17 :    16.047071152472430
 Root     18 :    16.124528751720180
 Root     19 :    17.738588433781940
 Root     20 :    18.362922795251540
 Root     21 :    18.944303670249050
 Root     22 :    18.944335752544800
 Root     23 :    19.192373693142130
 Root     24 :    20.210921988018110
 Root     25 :    20.210921988018230
 Root     26 :    20.424876166549020
 Root     27 :    20.873353361391470
 Root     28 :    22.247168741858370
 Root     29 :    22.258587647330730
 Root     30 :    22.309825911254300
 Root     31 :    22.309839486266780
 Root     32 :    22.515027550611080
 Root     33 :    22.600419578902510
 Root     34 :    22.748934579411770
 Root     35 :    23.385515556880280
 Root     36 :    23.400027261507060
 Root     37 :    23.400027261507200
 Root     38 :    24.503252415921110
 Root     39 :    24.503252415921150
 Root     40 :    24.951019547880880
 Root     41 :    24.951019547880890
 Root     42 :    24.993347831750580
 Root     43 :    26.730421084683560
 Root     44 :    26.730421084683730
 Root     45 :    27.442420904178680
 Root     46 :    27.548943998609050
 Root     47 :    28.587007536211080
 Root     48 :    28.587007536211340
 Root     49 :    30.224711980894430
 Root     50 :    30.493318179459840
 Root     51 :    30.493318179460700
 Root     52 :    30.788432580885560
 Root     53 :    30.960258966918210
 Root     54 :    30.960258966918280
 Root     55 :    31.848655448174830
 Root     56 :    31.848655448174910
 Root     57 :    32.059415857806270
 Root     58 :    32.059415857806300
 Root     59 :    32.166876738625750
 Root     60 :    33.349258213237500
 Root     61 :    35.281266093175920
 Root     62 :    35.281266093175960
 Root     63 :    36.188513724951230
 Root     64 :    37.039973630118230
 Root     65 :    37.180115689870160
 Root     66 :    38.493596096125120
 Root     67 :    38.519238558425560
 Root     68 :    38.519241284284150
 Root     69 :    38.771397333050210
 Root     70 :    39.792988187396170
 Root     71 :    40.273352553235640
 Root     72 :    40.916397768051280
 Root     73 :    40.916397768051440
 Root     74 :    41.275565819272100
 Root     75 :    43.728687075366950
 Root     76 :    44.819375399128750
 Root     77 :    44.819375399128770
 Root     78 :    45.649484617071440
 Root     79 :    47.052040553356890
 Root     80 :    47.052040553357010
 Root     81 :    47.143331992608180
 Root     82 :    47.143331992608300
 Root     83 :    47.215583281012950
 Root     84 :    48.175080240614690
 Root     85 :    48.175081726366920
 Root     86 :    48.291187631385880
 Root     87 :    48.783151798135070
 Root     88 :    49.052766989231150
 Root     89 :    50.758296388166800
 Root     90 :    50.758296388166830
 Root     91 :    52.372886433375000
 Root     92 :    52.372886433375110
 Root     93 :    53.036399338337460
 Root     94 :    53.036402895608740
 Root     95 :    54.055924746773380
 Root     96 :    54.118111547426300
 Root     97 :    54.118111547426790
 Root     98 :    55.308646473851180
 Root     99 :    55.308669981004050
 Root    100 :    56.163983883619470
 Root    101 :    56.163983883619760
 Root    102 :    57.664343041647700
 Root    103 :    57.664343041647760
 Root    104 :    59.612082548614460
 Root    105 :    59.612082548614510
 Root    106 :    59.912457707248330
 Root    107 :    59.912457707248390
 Root    108 :    59.913025609320260
 Root    109 :    59.913040666839240
 Root    110 :    60.065611380486190
 Root    111 :    60.462419231212360
 Root    112 :    60.462435186918460
 Root    113 :    60.900499932668670
 Root    114 :    60.900499932668690
 Root    115 :    61.278353466496640
 Root    116 :    63.902941324323240
 Root    117 :    63.902944931597740
 Root    118 :    66.234606415023260
 Root    119 :    66.246398096531680
 Root    120 :    66.246398096531710
 Root    121 :    66.308088146682120
 Root    122 :    66.308108287316930
 Root    123 :    67.471213513201620
 Root    124 :    67.794805637548480
 Root    125 :    67.794805637548490
 Root    126 :    69.199540418805540
 Root    127 :    69.199540418805780
 Root    128 :    70.712729789457170
 Root    129 :    70.712739414376200
 Root    130 :    72.345139614636340
 Root    131 :    73.130185852228450
 Root    132 :    73.130185852228490
 Root    133 :    75.334936318215840
 Root    134 :    77.007296429210950
 Root    135 :    82.052137672045320
 Root    136 :    83.032917925208790
 Root    137 :    83.032933309278080
 Root    138 :    83.327436765637870
 Root    139 :    84.129691657428880
 Root    140 :    89.311345327341070
 Root    141 :    89.311345327341140
 Root    142 :    89.911246343885990
 Root    143 :    89.911246343886210
 Root    144 :    91.298123433538880
 Root    145 :    91.298123433539050
 Root    146 :    95.766822096055480
 Root    147 :    95.766822096055620
 Root    148 :    96.200758232581980
 Root    149 :    97.825110462242490
 Root    150 :   103.043603727653200
 Root    151 :   113.225299139347400
 Root    152 :   113.225299139347800
 Root    153 :   119.843254976743700
 Root    154 :   121.349289085585600
 Root    155 :   126.894101431160800
 Convergence achieved for final wavefunctions.
 ***********************************************************************
 Excited states from <AA,BB:AA,BB> singles matrix:
 ***********************************************************************
 
 1PDM for each excited state written to RWF  633
 Ground to excited state transition densities written to RWF  633
 Ground to excited state transition electric dipole moments (Au):
       state          X           Y           Z        Dip. S.      Osc.
         1        -0.0000     -0.0000     -0.0000      0.0000      0.0000
         2         0.0000     -0.0000     -0.0000      0.0000      0.0000
         3         0.0000      0.0000     -0.0000      0.0000      0.0000
         4        -0.0000      0.0000     -0.0000      0.0000      0.0000
         5         0.0000      0.0000     -0.0000      0.0000      0.0000
         6         0.1041      0.0135      0.0000      0.0110      0.0028
         7        -0.0135      0.1041     -0.0000      0.0110      0.0028
         8         0.0000      0.0000     -1.9048      3.6282      1.0050
         9         0.0000      0.0000      0.0000      0.0000      0.0000
        10        -0.0000      0.0000     -0.0000      0.0000      0.0000
        11        -0.0000      0.0000      0.0000      0.0000      0.0000
        12         0.0000      0.0000      0.0000      0.0000      0.0000
        13         0.4927      0.6398      0.0000      0.6522      0.2292
        14         0.6398     -0.4927     -0.0000      0.6522      0.2292
        15         0.0000     -0.0000     -1.4432      2.0830      0.7767
        16        -1.0728     -0.2871      0.0000      1.2333      0.4849
        17         0.2871     -1.0728     -0.0000      1.2333      0.4849
        18         0.0000     -0.0000     -0.0000      0.0000      0.0000
        19         0.0000     -0.0000      0.0000      0.0000      0.0000
        20        -0.0000      0.0000     -0.3856      0.1487      0.0669
        21        -0.0000      0.0000      0.0000      0.0000      0.0000
        22        -0.0000     -0.0000      0.0000      0.0000      0.0000
        23        -0.0000     -0.0000      0.0000      0.0000      0.0000
        24         0.0000     -0.0000     -0.0000      0.0000      0.0000
        25         0.0000      0.0000     -0.0000      0.0000      0.0000
        26         0.0000     -0.0000     -0.0000      0.0000      0.0000
        27         0.0000     -0.0000      0.9321      0.8689      0.4443
        28        -0.0000     -0.0000      0.0000      0.0000      0.0000
        29         0.0000      0.0000      0.2107      0.0444      0.0242
        30         0.0000      0.0000      0.0000      0.0000      0.0000
        31         0.0000     -0.0000      0.0000      0.0000      0.0000
        32         0.0000      0.0000     -0.4454      0.1984      0.1094
        33         0.0000      0.0000     -0.0000      0.0000      0.0000
        34         0.0000      0.0000      0.0000      0.0000      0.0000
        35         0.0000      0.0000     -0.0000      0.0000      0.0000
        36        -0.1365     -0.0019     -0.0000      0.0186      0.0107
        37         0.0019     -0.1365     -0.0000      0.0186      0.0107
        38        -0.0000      0.0000     -0.0000      0.0000      0.0000
        39        -0.0000     -0.0000      0.0000      0.0000      0.0000
        40         0.2876      0.2269     -0.0000      0.1342      0.0820
        41        -0.2269      0.2876     -0.0000      0.1342      0.0820
        42         0.0000     -0.0000      0.1956      0.0383      0.0234
        43        -0.0000      0.0000      0.0000      0.0000      0.0000
        44        -0.0000     -0.0000      0.0000      0.0000      0.0000
        45         0.0000     -0.0000     -0.3410      0.1163      0.0782
        46         0.0000      0.0000      0.0000      0.0000      0.0000
        47        -0.0000      0.0000      0.0000      0.0000      0.0000
        48        -0.0000      0.0000     -0.0000      0.0000      0.0000
        49        -0.0000      0.0000     -0.4406      0.1941      0.1438
        50        -0.0016     -0.3754     -0.0000      0.1409      0.1053
        51        -0.3754      0.0016     -0.0000      0.1409      0.1053
        52         0.0000      0.0000      0.0000      0.0000      0.0000
        53         0.1990      0.0249     -0.0000      0.0402      0.0305
        54        -0.0249      0.1990      0.0000      0.0402      0.0305
        55        -0.0000      0.0000     -0.0000      0.0000      0.0000
        56         0.0000     -0.0000     -0.0000      0.0000      0.0000
        57         0.1810      0.1912     -0.0000      0.0693      0.0544
        58         0.1912     -0.1810      0.0000      0.0693      0.0544
        59         0.0000      0.0000     -0.3824      0.1462      0.1152
        60        -0.0000     -0.0000      0.0000      0.0000      0.0000
        61         0.0000     -0.0000     -0.0000      0.0000      0.0000
        62        -0.0000     -0.0000      0.0000      0.0000      0.0000
        63        -0.0000     -0.0000      0.0000      0.0000      0.0000
        64         0.0000     -0.0000      0.0000      0.0000      0.0000
        65         0.0000      0.0000     -0.1388      0.0193      0.0175
        66        -0.0000     -0.0000     -0.0000      0.0000      0.0000
        67        -0.0000     -0.0000      0.0000      0.0000      0.0000
        68        -0.0000     -0.0000      0.0000      0.0000      0.0000
        69        -0.0000     -0.0000      0.1151      0.0133      0.0126
        70        -0.0000     -0.0000     -0.0000      0.0000      0.0000
        71        -0.0000      0.0000     -0.0561      0.0032      0.0031
        72         0.0000     -0.0000     -0.0000      0.0000      0.0000
        73         0.0000     -0.0000     -0.0000      0.0000      0.0000
        74        -0.0000     -0.0000      0.0000      0.0000      0.0000
        75         0.0000     -0.0000     -0.0000      0.0000      0.0000
        76        -0.0550     -0.3790      0.0000      0.1467      0.1610
        77        -0.3790      0.0550     -0.0000      0.1467      0.1610
        78         0.0000     -0.0000      0.4625      0.2139      0.2392
        79         0.0000     -0.0000      0.0000      0.0000      0.0000
        80        -0.0000     -0.0000      0.0000      0.0000      0.0000
        81         0.0000      0.0000      0.0000      0.0000      0.0000
        82        -0.0000     -0.0000     -0.0000      0.0000      0.0000
        83         0.0000     -0.0000      0.2501      0.0626      0.0724
        84         0.0000     -0.0000     -0.0000      0.0000      0.0000
        85         0.0000      0.0000      0.0000      0.0000      0.0000
        86        -0.0000     -0.0000      0.0000      0.0000      0.0000
        87         0.0000      0.0000      0.0000      0.0000      0.0000
        88         0.0000     -0.0000     -0.1349      0.0182      0.0219
        89        -0.2893     -0.9260      0.0000      0.9412      1.1704
        90        -0.9260      0.2893     -0.0000      0.9412      1.1704
        91         0.4200      0.7085     -0.0000      0.6783      0.8704
        92         0.7085     -0.4200      0.0000      0.6783      0.8704
        93         0.0000     -0.0000      0.0000      0.0000      0.0000
        94        -0.0000      0.0000     -0.0000      0.0000      0.0000
        95         0.0000     -0.0000     -0.1688      0.0285      0.0377
        96         0.0000     -0.0000      0.0000      0.0000      0.0000
        97        -0.0000      0.0000      0.0000      0.0000      0.0000
        98        -0.0000     -0.0000     -0.0000      0.0000      0.0000
        99         0.0000     -0.0000     -0.0000      0.0000      0.0000
       100        -0.3925      0.0011     -0.0000      0.1541      0.2120
       101        -0.0011     -0.3925      0.0000      0.1541      0.2120
       102         0.0000     -0.0000     -0.0000      0.0000      0.0000
       103        -0.0000      0.0000      0.0000      0.0000      0.0000
       104        -0.2168      0.0363     -0.0000      0.0483      0.0706
       105        -0.0363     -0.2168     -0.0000      0.0483      0.0706
       106         0.0000     -0.0000      0.0000      0.0000      0.0000
       107         0.0000     -0.0000     -0.0000      0.0000      0.0000
       108         0.0000      0.0000      0.0000      0.0000      0.0000
       109         0.0000      0.0000      0.0000      0.0000      0.0000
       110        -0.0000      0.0000     -0.0000      0.0000      0.0000
       111         0.0000      0.0000      0.0000      0.0000      0.0000
       112        -0.0000      0.0000     -0.0000      0.0000      0.0000
       113        -0.0000     -0.0000     -0.0000      0.0000      0.0000
       114         0.0000      0.0000     -0.0000      0.0000      0.0000
       115        -0.0000     -0.0000      0.0000      0.0000      0.0000
       116        -0.0000      0.0000      0.0000      0.0000      0.0000
       117        -0.0000      0.0000      0.0000      0.0000      0.0000
       118        -0.0000     -0.0000      0.0000      0.0000      0.0000
       119         0.1601      0.1372     -0.0000      0.0445      0.0722
       120        -0.1372      0.1601      0.0000      0.0445      0.0722
       121         0.0000     -0.0000     -0.0000      0.0000      0.0000
       122         0.0000     -0.0000     -0.0000      0.0000      0.0000
       123        -0.0000     -0.0000      0.0468      0.0022      0.0036
       124         0.0000     -0.0000      0.0000      0.0000      0.0000
       125        -0.0000      0.0000      0.0000      0.0000      0.0000
       126         0.0000      0.0000      0.0000      0.0000      0.0000
       127        -0.0000     -0.0000     -0.0000      0.0000      0.0000
       128         0.0000      0.0000     -0.0000      0.0000      0.0000
       129        -0.0000      0.0000      0.0000      0.0000      0.0000
       130         0.0000     -0.0000     -0.0000      0.0000      0.0000
       131        -0.2280     -0.0102     -0.0000      0.0521      0.0933
       132         0.0102     -0.2280     -0.0000      0.0521      0.0933
       133        -0.0000      0.0000     -0.0517      0.0027      0.0049
       134         0.0000      0.0000      0.0000      0.0000      0.0000
       135        -0.0000     -0.0000      0.1516      0.0230      0.0462
       136        -0.0000     -0.0000     -0.0000      0.0000      0.0000
       137        -0.0000     -0.0000     -0.0000      0.0000      0.0000
       138        -0.0000     -0.0000     -0.0000      0.0000      0.0000
       139        -0.0000      0.0000     -0.1564      0.0245      0.0504
       140         0.0000     -0.0000     -0.0000      0.0000      0.0000
       141         0.0000      0.0000      0.0000      0.0000      0.0000
       142         0.0844      0.0055      0.0000      0.0072      0.0158
       143        -0.0055      0.0844     -0.0000      0.0072      0.0158
       144        -0.0032     -0.1040     -0.0000      0.0108      0.0242
       145        -0.1040      0.0032     -0.0000      0.0108      0.0242
       146         0.0000      0.0000      0.0000      0.0000      0.0000
       147         0.0000      0.0000      0.0000      0.0000      0.0000
       148        -0.0000      0.0000     -0.0000      0.0000      0.0000
       149        -0.0000      0.0000      0.0003      0.0000      0.0000
       150         0.0000     -0.0000     -0.0000      0.0000      0.0000
       151         0.0000     -0.0000      0.0000      0.0000      0.0000
       152         0.0000      0.0000      0.0000      0.0000      0.0000
       153        -0.0000      0.0000     -0.0517      0.0027      0.0079
       154         0.0000     -0.0000     -0.0000      0.0000      0.0000
       155         0.0000     -0.0000     -0.0524      0.0027      0.0085
 Ground to excited state transition velocity dipole moments (Au):
       state          X           Y           Z        Dip. S.      Osc.
         1         0.0000      0.0000      0.0000      0.0000      0.0000
         2        -0.0000      0.0000      0.0000      0.0000      0.0000
         3         0.0000     -0.0000      0.0000      0.0000      0.0000
         4         0.0000     -0.0000      0.0000      0.0000      0.0000
         5        -0.0000      0.0000      0.0000      0.0000      0.0000
         6        -0.0274     -0.0036     -0.0000      0.0008      0.0013
         7         0.0036     -0.0274      0.0000      0.0008      0.0013
         8         0.0000     -0.0000      0.7812      0.6103      0.9791
         9        -0.0000     -0.0000     -0.0000      0.0000      0.0000
        10         0.0000      0.0000      0.0000      0.0000      0.0000
        11         0.0000     -0.0000     -0.0000      0.0000      0.0000
        12        -0.0000     -0.0000     -0.0000      0.0000      0.0000
        13        -0.2471     -0.3209     -0.0000      0.1641      0.2075
        14        -0.3209      0.2471      0.0000      0.1641      0.2075
        15        -0.0000     -0.0000      0.8107      0.6573      0.7835
        16         0.6455      0.1728     -0.0000      0.4465      0.5048
        17        -0.1728      0.6455      0.0000      0.4465      0.5048
        18        -0.0000      0.0000      0.0000      0.0000      0.0000
        19        -0.0000      0.0000     -0.0000      0.0000      0.0000
        20         0.0000     -0.0000      0.2450      0.0600      0.0593
        21        -0.0000      0.0000     -0.0000      0.0000      0.0000
        22         0.0000      0.0000     -0.0000      0.0000      0.0000
        23         0.0000      0.0000     -0.0000      0.0000      0.0000
        24        -0.0000      0.0000      0.0000      0.0000      0.0000
        25        -0.0000     -0.0000      0.0000      0.0000      0.0000
        26        -0.0000     -0.0000      0.0000      0.0000      0.0000
        27        -0.0000      0.0000     -0.7034      0.4948      0.4300
        28         0.0000      0.0000     -0.0000      0.0000      0.0000
        29         0.0000     -0.0000     -0.1677      0.0281      0.0229
        30         0.0000     -0.0000     -0.0000      0.0000      0.0000
        31        -0.0000      0.0000     -0.0000      0.0000      0.0000
        32        -0.0000     -0.0000      0.3419      0.1169      0.0942
        33        -0.0000     -0.0000      0.0000      0.0000      0.0000
        34         0.0000     -0.0000     -0.0000      0.0000      0.0000
        35        -0.0000     -0.0000      0.0000      0.0000      0.0000
        36         0.0983      0.0014      0.0000      0.0097      0.0075
        37        -0.0014      0.0983      0.0000      0.0097      0.0075
        38         0.0000     -0.0000      0.0000      0.0000      0.0000
        39         0.0000      0.0000     -0.0000      0.0000      0.0000
        40        -0.2179     -0.1719      0.0000      0.0770      0.0560
        41         0.1719     -0.2179      0.0000      0.0770      0.0560
        42        -0.0000      0.0000     -0.1773      0.0314      0.0228
        43         0.0000      0.0000     -0.0000      0.0000      0.0000
        44         0.0000     -0.0000      0.0000      0.0000      0.0000
        45         0.0000      0.0000      0.3713      0.1379      0.0911
        46        -0.0000      0.0000     -0.0000      0.0000      0.0000
        47         0.0000     -0.0000     -0.0000      0.0000      0.0000
        48         0.0000     -0.0000     -0.0000      0.0000      0.0000
        49         0.0000      0.0000      0.5793      0.3356      0.2014
        50         0.0017      0.4017      0.0000      0.1613      0.0960
        51         0.4017     -0.0017      0.0000      0.1613      0.0960
        52        -0.0000     -0.0000     -0.0000      0.0000      0.0000
        53        -0.2522     -0.0316      0.0000      0.0646      0.0379
        54         0.0316     -0.2522     -0.0000      0.0646      0.0379
        55         0.0000     -0.0000      0.0000      0.0000      0.0000
        56        -0.0000      0.0000      0.0000      0.0000      0.0000
        57        -0.2265     -0.2392      0.0000      0.1085      0.0614
        58        -0.2392      0.2265     -0.0000      0.1085      0.0614
        59        -0.0000     -0.0000      0.4622      0.2137      0.1205
        60         0.0000      0.0000     -0.0000      0.0000      0.0000
        61        -0.0000      0.0000      0.0000      0.0000      0.0000
        62         0.0000      0.0000     -0.0000      0.0000      0.0000
        63         0.0000      0.0000     -0.0000      0.0000      0.0000
        64        -0.0000      0.0000     -0.0000      0.0000      0.0000
        65        -0.0000     -0.0000      0.1726      0.0298      0.0145
        66         0.0000      0.0000      0.0000      0.0000      0.0000
        67         0.0000     -0.0000     -0.0000      0.0000      0.0000
        68         0.0000      0.0000     -0.0000      0.0000      0.0000
        69         0.0000      0.0000     -0.1466      0.0215      0.0101
        70         0.0000      0.0000      0.0000      0.0000      0.0000
        71         0.0000     -0.0000      0.1482      0.0220      0.0099
        72         0.0000      0.0000      0.0000      0.0000      0.0000
        73        -0.0000      0.0000      0.0000      0.0000      0.0000
        74         0.0000      0.0000      0.0000      0.0000      0.0000
        75        -0.0000      0.0000      0.0000      0.0000      0.0000
        76         0.0843      0.5816     -0.0000      0.3454      0.1398
        77         0.5816     -0.0843     -0.0000      0.3454      0.1398
        78        -0.0000      0.0000     -0.7519      0.5653      0.2246
        79        -0.0000      0.0000      0.0000      0.0000      0.0000
        80         0.0000      0.0000      0.0000      0.0000      0.0000
        81        -0.0000     -0.0000     -0.0000      0.0000      0.0000
        82         0.0000      0.0000      0.0000      0.0000      0.0000
        83        -0.0000      0.0000     -0.4197      0.1761      0.0677
        84        -0.0000      0.0000      0.0000      0.0000      0.0000
        85        -0.0000     -0.0000     -0.0000      0.0000      0.0000
        86         0.0000      0.0000     -0.0000      0.0000      0.0000
        87        -0.0000     -0.0000     -0.0000      0.0000      0.0000
        88         0.0000      0.0000      0.1364      0.0186      0.0069
        89         0.3356      1.0744      0.0000      1.2669      0.4528
        90         1.0744     -0.3356      0.0000      1.2669      0.4528
        91        -0.5185     -0.8747      0.0000      1.0339      0.3581
        92        -0.8747      0.5185     -0.0000      1.0339      0.3581
        93        -0.0000      0.0000     -0.0000      0.0000      0.0000
        94         0.0000     -0.0000      0.0000      0.0000      0.0000
        95        -0.0000      0.0000      0.3824      0.1462      0.0491
        96        -0.0000      0.0000     -0.0000      0.0000      0.0000
        97         0.0000     -0.0000     -0.0000      0.0000      0.0000
        98         0.0000      0.0000      0.0000      0.0000      0.0000
        99        -0.0000      0.0000      0.0000      0.0000      0.0000
       100         0.6287     -0.0017      0.0000      0.3953      0.1277
       101         0.0017      0.6287     -0.0000      0.3953      0.1277
       102        -0.0000     -0.0000      0.0000      0.0000      0.0000
       103         0.0000     -0.0000      0.0000      0.0000      0.0000
       104         0.3981     -0.0668      0.0000      0.1630      0.0496
       105         0.0668      0.3981      0.0000      0.1630      0.0496
       106        -0.0000      0.0000     -0.0000      0.0000      0.0000
       107        -0.0000      0.0000     -0.0000      0.0000      0.0000
       108        -0.0000     -0.0000     -0.0000      0.0000      0.0000
       109        -0.0000     -0.0000     -0.0000      0.0000      0.0000
       110         0.0000     -0.0000      0.0000      0.0000      0.0000
       111        -0.0000     -0.0000     -0.0000      0.0000      0.0000
       112         0.0000     -0.0000      0.0000      0.0000      0.0000
       113        -0.0000      0.0000     -0.0000      0.0000      0.0000
       114        -0.0000     -0.0000      0.0000      0.0000      0.0000
       115         0.0000      0.0000      0.0000      0.0000      0.0000
       116         0.0000      0.0000     -0.0000      0.0000      0.0000
       117         0.0000     -0.0000      0.0000      0.0000      0.0000
       118         0.0000      0.0000     -0.0000      0.0000      0.0000
       119        -0.3432     -0.2940      0.0000      0.2042      0.0559
       120         0.2940     -0.3432      0.0000      0.2042      0.0559
       121        -0.0000      0.0000      0.0000      0.0000      0.0000
       122        -0.0000      0.0000      0.0000      0.0000      0.0000
       123        -0.0000      0.0000     -0.1295      0.0168      0.0045
       124        -0.0000      0.0000      0.0000      0.0000      0.0000
       125         0.0000     -0.0000      0.0000      0.0000      0.0000
       126        -0.0000      0.0000     -0.0000      0.0000      0.0000
       127        -0.0000      0.0000      0.0000      0.0000      0.0000
       128        -0.0000     -0.0000     -0.0000      0.0000      0.0000
       129         0.0000     -0.0000     -0.0000      0.0000      0.0000
       130        -0.0000      0.0000     -0.0000      0.0000      0.0000
       131         0.4706      0.0210     -0.0000      0.2219      0.0550
       132        -0.0210      0.4706      0.0000      0.2219      0.0550
       133         0.0000     -0.0000      0.1088      0.0118      0.0029
       134        -0.0000     -0.0000     -0.0000      0.0000      0.0000
       135         0.0000      0.0000     -0.4323      0.1869      0.0413
       136        -0.0000      0.0000      0.0000      0.0000      0.0000
       137         0.0000      0.0000      0.0000      0.0000      0.0000
       138         0.0000      0.0000      0.0000      0.0000      0.0000
       139        -0.0000     -0.0000      0.5525      0.3052      0.0658
       140        -0.0000     -0.0000     -0.0000      0.0000      0.0000
       141        -0.0000     -0.0000      0.0000      0.0000      0.0000
       142        -0.3193     -0.0209     -0.0000      0.1024      0.0207
       143         0.0209     -0.3193      0.0000      0.1024      0.0207
       144         0.0097      0.3165      0.0000      0.1003      0.0199
       145         0.3165     -0.0097     -0.0000      0.1003      0.0199
       146        -0.0000     -0.0000     -0.0000      0.0000      0.0000
       147         0.0000     -0.0000      0.0000      0.0000      0.0000
       148         0.0000     -0.0000      0.0000      0.0000      0.0000
       149        -0.0000     -0.0000      0.0211      0.0004      0.0001
       150        -0.0000      0.0000     -0.0000      0.0000      0.0000
       151        -0.0000     -0.0000     -0.0000      0.0000      0.0000
       152        -0.0000     -0.0000      0.0000      0.0000      0.0000
       153         0.0000     -0.0000      0.1871      0.0350      0.0053
       154         0.0000      0.0000      0.0000      0.0000      0.0000
       155        -0.0000      0.0000      0.2124      0.0451      0.0065
 Ground to excited state transition magnetic dipole moments (Au):
       state          X           Y           Z
         1         0.0000      0.0000     -0.0000
         2         0.0000      0.0000      0.0000
         3         0.0000      0.0000     -0.0000
         4        -0.1904      0.0818      0.0000
         5         0.0818      0.1904     -0.0000
         6         0.0000     -0.0000     -0.0000
         7         0.0000     -0.0000     -0.0000
         8         0.0000      0.0000     -0.0000
         9        -0.2144      1.8696     -0.0000
        10        -1.8696     -0.2144     -0.0000
        11        -0.2011      0.4057      0.0000
        12        -0.4057     -0.2011      0.0000
        13         0.0000      0.0000     -0.0000
        14        -0.0000     -0.0000      0.0000
        15        -0.0000      0.0000     -0.0000
        16         0.0000     -0.0000      0.0000
        17        -0.0000     -0.0000      0.0000
        18        -0.0000     -0.0000      0.0000
        19         0.0000      0.0000     -0.0000
        20         0.0000     -0.0000      0.0000
        21         0.0000     -0.0000      0.0000
        22         0.0000      0.0000     -0.0000
        23        -0.0000      0.0000      0.0000
        24        -0.2779      0.0925     -0.0000
        25         0.0925      0.2779      0.0000
        26         0.0000      0.0000     -0.0000
        27        -0.0000     -0.0000     -0.0000
        28        -0.0000      0.0000      0.0000
        29        -0.0000     -0.0000      0.0000
        30         0.0000      0.0000      0.0000
        31        -0.0000     -0.0000     -0.0000
        32        -0.0000     -0.0000      0.0000
        33        -0.0000      0.0000      0.0000
        34         0.0000      0.0000      0.0000
        35        -0.0000     -0.0000     -0.0000
        36        -0.0000      0.0000      0.0000
        37         0.0000     -0.0000      0.0000
        38        -0.2043      0.1453     -0.0000
        39         0.1453      0.2043      0.0000
        40         0.0000      0.0000     -0.0000
        41         0.0000     -0.0000     -0.0000
        42        -0.0000     -0.0000     -0.0000
        43         0.6075      0.1679      0.0000
        44         0.1679     -0.6075      0.0000
        45        -0.0000     -0.0000      0.0000
        46        -0.0000      0.0000      0.0000
        47         0.1666      0.0170      0.0000
        48         0.0170     -0.1666      0.0000
        49         0.0000     -0.0000     -0.0000
        50         0.0000     -0.0000      0.0000
        51        -0.0000      0.0000     -0.0000
        52        -0.0000      0.0000      0.0000
        53         0.0000      0.0000      0.0000
        54        -0.0000      0.0000      0.0000
        55        -0.0554     -0.2662     -0.0000
        56         0.2662     -0.0554      0.0000
        57        -0.0000     -0.0000     -0.0000
        58        -0.0000     -0.0000      0.0000
        59         0.0000     -0.0000     -0.0000
        60         0.0000      0.0000      0.0000
        61         0.4045      0.4786      0.0000
        62        -0.4786      0.4045     -0.0000
        63         0.0000      0.0000     -0.0000
        64        -0.0000      0.0000     -0.0000
        65        -0.0000      0.0000      0.0000
        66        -0.0000     -0.0000     -0.0000
        67         0.0000      0.0000     -0.0000
        68         0.0000     -0.0000      0.0000
        69        -0.0000     -0.0000      0.0000
        70         0.0000     -0.0000      0.0000
        71         0.0000     -0.0000     -0.0000
        72         0.0539      0.1323     -0.0000
        73        -0.1323      0.0539      0.0000
        74        -0.0000      0.0000      0.0000
        75         0.0000      0.0000     -0.0000
        76         0.0000      0.0000      0.0000
        77        -0.0000     -0.0000     -0.0000
        78        -0.0000     -0.0000     -0.0000
        79        -0.0000     -0.0000      0.0000
        80         0.0000      0.0000      0.0000
        81        -1.5436      0.0152     -0.0000
        82         0.0152      1.5436      0.0000
        83         0.0000      0.0000      0.0000
        84         0.0000     -0.0000      0.0000
        85        -0.0000      0.0000     -0.0000
        86        -0.0000     -0.0000     -0.0000
        87         0.0000      0.0000     -0.0000
        88        -0.0000      0.0000     -0.0000
        89        -0.0000     -0.0000      0.0000
        90        -0.0000      0.0000     -0.0000
        91        -0.0000      0.0000     -0.0000
        92        -0.0000     -0.0000      0.0000
        93        -0.0000     -0.0000      0.0000
        94         0.0000      0.0000     -0.0000
        95        -0.0000      0.0000     -0.0000
        96        -0.1358      1.2120     -0.0000
        97        -1.2120     -0.1358     -0.0000
        98        -0.0000     -0.0000      0.0000
        99        -0.0000      0.0000     -0.0000
       100        -0.0000     -0.0000     -0.0000
       101        -0.0000     -0.0000      0.0000
       102        -0.0000     -0.0000     -0.0000
       103        -0.0000      0.0000     -0.0000
       104         0.0000      0.0000     -0.0000
       105        -0.0000     -0.0000      0.0000
       106         0.4443      1.4233      0.0000
       107         1.4233     -0.4443      0.0000
       108        -0.0000     -0.0000      0.0000
       109         0.0000     -0.0000     -0.0000
       110         0.0000      0.0000     -0.0000
       111        -0.0000      0.0000      0.0000
       112         0.0000      0.0000      0.0000
       113        -0.1730      0.1863     -0.0000
       114        -0.1863     -0.1730     -0.0000
       115         0.0000     -0.0000     -0.0000
       116         0.0000     -0.0000     -0.0000
       117         0.0000     -0.0000     -0.0000
       118        -0.0000      0.0000      0.0000
       119        -0.0000      0.0000     -0.0000
       120         0.0000     -0.0000     -0.0000
       121        -0.0000      0.0000      0.0000
       122        -0.0000      0.0000      0.0000
       123         0.0000      0.0000      0.0000
       124        -0.1781      0.1478     -0.0000
       125         0.1478      0.1781      0.0000
       126        -0.0014      0.0092     -0.0000
       127        -0.0092     -0.0014     -0.0000
       128        -0.0000     -0.0000     -0.0000
       129        -0.0000      0.0000     -0.0000
       130        -0.0000     -0.0000     -0.0000
       131         0.0000      0.0000      0.0000
       132         0.0000      0.0000      0.0000
       133        -0.0000     -0.0000     -0.0000
       134        -0.0000      0.0000     -0.0000
       135        -0.0000      0.0000      0.0000
       136        -0.0000      0.0000      0.0000
       137        -0.0000      0.0000      0.0000
       138         0.0000     -0.0000      0.0000
       139         0.0000      0.0000     -0.0000
       140         0.1957      0.2289      0.0000
       141        -0.2289      0.1957     -0.0000
       142        -0.0000     -0.0000      0.0000
       143         0.0000     -0.0000      0.0000
       144        -0.0000      0.0000      0.0000
       145         0.0000     -0.0000     -0.0000
       146        -0.0125      0.0038      0.0000
       147         0.0038      0.0125     -0.0000
       148        -0.0000     -0.0000      0.0000
       149         0.0000     -0.0000      0.0000
       150         0.0000     -0.0000     -0.0000
       151         0.3687     -0.0575      0.0000
       152        -0.0575     -0.3687     -0.0000
       153         0.0000      0.0000      0.0000
       154        -0.0000     -0.0000      0.0000
       155        -0.0000     -0.0000     -0.0000
 Ground to excited state transition velocity quadrupole moments (Au):
       state          XX          YY          ZZ          XY          XZ          YZ
         1        -0.0000     -0.0000     -0.0000      0.0000      0.0000     -0.0000
         2         0.0000      0.0000     -0.0000      0.0000      0.0000     -0.0000
         3        -0.0000      0.0000     -0.0000     -0.0000      0.0000      0.0000
         4        -0.0000     -0.0000     -0.0000      0.0000      0.0714      0.1662
         5         0.0000     -0.0000     -0.0000      0.0000      0.1662     -0.0714
         6         0.0000     -0.0000      0.0000      0.0000     -0.0000     -0.0000
         7         0.0000      0.0000     -0.0000      0.0000     -0.0000     -0.0000
         8         0.0000      0.0000      0.0000      0.0000      0.0000     -0.0000
         9        -0.0000     -0.0000     -0.0000      0.0000      0.4474      0.0513
        10         0.0000     -0.0000      0.0000     -0.0000     -0.0513      0.4474
        11        -0.0000     -0.0000     -0.0000      0.0000      0.7798      0.3866
        12        -0.0000     -0.0000      0.0000      0.0000     -0.3866      0.7798
        13        -0.0000     -0.0000      0.0000     -0.0000      0.0000     -0.0000
        14        -0.0000     -0.0000      0.0000     -0.0000     -0.0000      0.0000
        15        -0.0000     -0.0000      0.0000     -0.0000      0.0000      0.0000
        16         0.0000      0.0000     -0.0000     -0.0000      0.0000      0.0000
        17         0.0000      0.0000     -0.0000     -0.0000     -0.0000      0.0000
        18        -0.1772     -0.1772      3.9097     -0.0000     -0.0000      0.0000
        19        -0.0801     -0.0801      1.9210     -0.0000      0.0000     -0.0000
        20        -0.0000      0.0000      0.0000      0.0000     -0.0000     -0.0000
        21        -0.8416      0.8416     -0.0000      0.0000     -0.0000     -0.0000
        22        -0.0000      0.0000      0.0000     -0.8416      0.0000     -0.0000
        23         0.0000     -0.0000      0.0000      0.0000      0.0000      0.0000
        24         0.0000      0.0000     -0.0000      0.0000      0.3859      1.1598
        25         0.0000      0.0000     -0.0000      0.0000      1.1598     -0.3859
        26        -0.6738     -0.6738      0.0315      0.0000      0.0000     -0.0000
        27        -0.0000     -0.0000      0.0000     -0.0000     -0.0000      0.0000
        28         1.3588      1.3588      0.9161      0.0000      0.0000     -0.0000
        29        -0.0000     -0.0000     -0.0000     -0.0000     -0.0000      0.0000
        30        -0.0000     -0.0000     -0.0000     -0.0000      0.0000      0.0000
        31        -0.0000     -0.0000     -0.0000     -0.0000     -0.0000      0.0000
        32        -0.0000     -0.0000     -0.0000     -0.0000     -0.0000      0.0000
        33        -0.0000     -0.0000      0.0000      0.0000      0.0000      0.0000
        34         0.1655      0.1655     -2.2744      0.0000      0.0000     -0.0000
        35        -0.5011     -0.5011      0.1028     -0.0000     -0.0000      0.0000
        36        -0.0000     -0.0000      0.0000     -0.0000     -0.0000      0.0000
        37        -0.0000     -0.0000      0.0000      0.0000      0.0000     -0.0000
        38        -0.0000     -0.0000     -0.0000      0.0000      0.3212      0.4517
        39        -0.0000     -0.0000      0.0000      0.0000      0.4517     -0.3212
        40        -0.0000     -0.0000      0.0000     -0.0000      0.0000     -0.0000
        41         0.0000      0.0000     -0.0000     -0.0000     -0.0000     -0.0000
        42        -0.0000     -0.0000      0.0000      0.0000     -0.0000     -0.0000
        43        -0.0000     -0.0000      0.0000     -0.0000      0.3035     -1.0981
        44        -0.0000     -0.0000      0.0000     -0.0000     -1.0981     -0.3035
        45        -0.0000     -0.0000     -0.0000      0.0000     -0.0000      0.0000
        46        -1.1705     -1.1705      0.6025     -0.0000      0.0000      0.0000
        47        -0.0000     -0.0000     -0.0000     -0.0000     -0.0549      0.5367
        48        -0.0000     -0.0000     -0.0000      0.0000      0.5367      0.0549
        49        -0.0000      0.0000      0.0000      0.0000     -0.0000     -0.0000
        50         0.0000      0.0000      0.0000     -0.0000     -0.0000     -0.0000
        51        -0.0000     -0.0000     -0.0000      0.0000      0.0000     -0.0000
        52         0.8650      0.8650      1.9122     -0.0000     -0.0000      0.0000
        53        -0.0000     -0.0000     -0.0000     -0.0000      0.0000     -0.0000
        54         0.0000      0.0000      0.0000     -0.0000      0.0000     -0.0000
        55         0.0000      0.0000     -0.0000      0.0000     -0.0551      0.0115
        56         0.0000      0.0000      0.0000      0.0000     -0.0115     -0.0551
        57        -0.0000     -0.0000     -0.0000      0.0000     -0.0000      0.0000
        58         0.0000      0.0000      0.0000      0.0000     -0.0000      0.0000
        59        -0.0000     -0.0000     -0.0000      0.0000     -0.0000     -0.0000
        60         1.3937      1.3937      2.0223      0.0000      0.0000     -0.0000
        61        -0.0000     -0.0000     -0.0000      0.0000      0.5071     -0.4285
        62        -0.0000     -0.0000     -0.0000     -0.0000      0.4285      0.5071
        63         0.5192      0.5192      1.0439      0.0000      0.0000     -0.0000
        64         0.9708      0.9708     -1.7558      0.0000      0.0000      0.0000
        65         0.0000      0.0000      0.0000     -0.0000      0.0000      0.0000
        66         0.0000     -0.0000      0.0000     -0.0000      0.0000      0.0000
        67         0.0000     -0.0000      0.0000     -0.2050      0.0000      0.0000
        68         0.2050     -0.2050      0.0000      0.0000     -0.0000      0.0000
        69        -0.0000     -0.0000     -0.0000     -0.0000     -0.0000      0.0000
        70        -0.1101     -0.1101     -3.2607      0.0000      0.0000     -0.0000
        71        -0.0000     -0.0000      0.0000     -0.0000      0.0000     -0.0000
        72         0.0000      0.0000     -0.0000      0.0000     -0.2294      0.0934
        73         0.0000      0.0000     -0.0000     -0.0000     -0.0934     -0.2294
        74        -0.4310     -0.4310      2.2501      0.0000     -0.0000     -0.0000
        75        -0.4077     -0.4077     -0.2710     -0.0000      0.0000     -0.0000
        76        -0.0000     -0.0000     -0.0000     -0.0000      0.0000     -0.0000
        77        -0.0000     -0.0000      0.0000     -0.0000     -0.0000      0.0000
        78        -0.0000     -0.0000      0.0000      0.0000     -0.0000      0.0000
        79        -0.0000     -0.0000      0.0000     -0.0000     -0.0000      0.0000
        80         0.0000     -0.0000     -0.0000     -0.0000      0.0000     -0.0000
        81        -0.0000     -0.0000      0.0000     -0.0000      0.0220      2.2312
        82         0.0000      0.0000      0.0000      0.0000      2.2312     -0.0220
        83        -0.0000      0.0000      0.0000      0.0000      0.0000     -0.0000
        84        -0.0000     -0.0000      0.0000      0.0000     -0.0000     -0.0000
        85         0.0000      0.0000     -0.0000      0.0000      0.0000      0.0000
        86         0.0000     -0.0000      0.0000     -0.0000     -0.0000      0.0000
        87        -0.4415     -0.4415      1.2006     -0.0000      0.0000     -0.0000
        88         0.0000     -0.0000      0.0000      0.0000      0.0000      0.0000
        89         0.0000     -0.0000      0.0000      0.0000     -0.0000      0.0000
        90        -0.0000      0.0000      0.0000     -0.0000      0.0000      0.0000
        91         0.0000     -0.0000     -0.0000     -0.0000      0.0000      0.0000
        92         0.0000     -0.0000      0.0000     -0.0000     -0.0000      0.0000
        93        -0.0202      0.0202     -0.0000      0.0000     -0.0000      0.0000
        94        -0.0000      0.0000      0.0000     -0.0202      0.0000     -0.0000
        95         0.0000      0.0000      0.0000     -0.0000      0.0000      0.0000
        96         0.0000     -0.0000      0.0000      0.0000      1.9689      0.2206
        97         0.0000     -0.0000     -0.0000     -0.0000     -0.2206      1.9689
        98         0.0000     -0.0000      0.0000      0.0000     -0.0000      0.0000
        99        -0.0000      0.0000     -0.0000     -0.0000      0.0000      0.0000
       100        -0.0000     -0.0000     -0.0000      0.0000     -0.0000      0.0000
       101        -0.0000      0.0000      0.0000     -0.0000     -0.0000      0.0000
       102        -0.0000     -0.0000      0.0000      0.0000     -0.0000      0.0000
       103        -0.0000      0.0000     -0.0000     -0.0000      0.0000      0.0000
       104        -0.0000      0.0000     -0.0000     -0.0000      0.0000     -0.0000
       105         0.0000      0.0000      0.0000     -0.0000     -0.0000      0.0000
       106        -0.0000      0.0000     -0.0000     -0.0000      2.2197     -0.6930
       107         0.0000     -0.0000     -0.0000     -0.0000     -0.6930     -2.2197
       108        -0.0000      0.0000     -0.0000     -0.4742     -0.0000      0.0000
       109        -0.4741      0.4741     -0.0000      0.0000     -0.0000     -0.0000
       110        -0.0000      0.0000      0.0000      0.0000      0.0000     -0.0000
       111         0.8723     -0.8723      0.0000      0.0000      0.0000      0.0000
       112        -0.0000      0.0000     -0.0000      0.8723      0.0000     -0.0000
       113        -0.0000      0.0000     -0.0000      0.0000      0.1319      0.1225
       114        -0.0000     -0.0000     -0.0000     -0.0000     -0.1225      0.1319
       115        -0.3598     -0.3598     -0.6138     -0.0000     -0.0000     -0.0000
       116        -0.0000      0.0000      0.0000      0.0000     -0.0000     -0.0000
       117        -0.0000     -0.0000     -0.0000      0.0000     -0.0000     -0.0000
       118        -0.0754     -0.0754     -0.1729     -0.0000      0.0000     -0.0000
       119        -0.0000     -0.0000     -0.0000     -0.0000      0.0000      0.0000
       120         0.0000     -0.0000     -0.0000      0.0000     -0.0000     -0.0000
       121        -0.0000      0.0000     -0.0000      0.6428      0.0000      0.0000
       122         0.6428     -0.6428     -0.0000      0.0000     -0.0000      0.0000
       123         0.0000     -0.0000      0.0000     -0.0000     -0.0000     -0.0000
       124        -0.0000      0.0000      0.0000      0.0000      0.3960      0.4771
       125         0.0000     -0.0000      0.0000      0.0000      0.4771     -0.3960
       126         0.0000     -0.0000     -0.0000     -0.0000      0.1678      0.0255
       127        -0.0000      0.0000     -0.0000     -0.0000     -0.0255      0.1678
       128        -0.0000      0.0000      0.0000     -0.0000     -0.0000     -0.0000
       129        -0.0000     -0.0000     -0.0000     -0.0000      0.0000      0.0000
       130         0.1449      0.1449      0.7732     -0.0000     -0.0000      0.0000
       131         0.0000      0.0000      0.0000      0.0000      0.0000     -0.0000
       132        -0.0000      0.0000     -0.0000      0.0000      0.0000     -0.0000
       133         0.0000     -0.0000     -0.0000      0.0000      0.0000      0.0000
       134        -0.0226     -0.0226      0.0441     -0.0000      0.0000      0.0000
       135         0.0000      0.0000      0.0000      0.0000      0.0000      0.0000
       136        -0.0000      0.0000     -0.0000     -0.0000      0.0000      0.0000
       137         0.0000      0.0000     -0.0000      0.0000      0.0000      0.0000
       138         0.0000     -0.0000     -0.0000      0.0000     -0.0000      0.0000
       139        -0.0000     -0.0000      0.0000     -0.0000      0.0000     -0.0000
       140         0.0000     -0.0000      0.0000      0.0000      0.3113     -0.2661
       141        -0.0000      0.0000     -0.0000      0.0000      0.2661      0.3113
       142         0.0000     -0.0000      0.0000     -0.0000     -0.0000      0.0000
       143        -0.0000      0.0000     -0.0000      0.0000     -0.0000     -0.0000
       144         0.0000     -0.0000     -0.0000      0.0000      0.0000      0.0000
       145        -0.0000      0.0000     -0.0000      0.0000     -0.0000     -0.0000
       146         0.0000      0.0000      0.0000      0.0000     -0.0689     -0.2276
       147         0.0000      0.0000      0.0000      0.0000     -0.2276      0.0689
       148         0.0107      0.0107      1.0035      0.0000      0.0000      0.0000
       149         0.0000      0.0000      0.0000      0.0000      0.0000     -0.0000
       150        -0.2803     -0.2803     -1.0545     -0.0000     -0.0000     -0.0000
       151        -0.0000     -0.0000      0.0000      0.0000     -0.0705     -0.4524
       152         0.0000      0.0000      0.0000     -0.0000     -0.4524      0.0705
       153         0.0000      0.0000     -0.0000     -0.0000      0.0000     -0.0000
       154        -0.2064     -0.2064      0.7202      0.0000      0.0000      0.0000
       155         0.0000      0.0000     -0.0000      0.0000     -0.0000      0.0000
 <0|del|b> * <b|rxdel|0> + <0|del|b> * <b|delr+rdel|0>
 Rotatory Strengths (R) in cgs (10**-40 erg-esu-cm/Gauss)
       state          XX          YY          ZZ    R(velocity)    E-M Angle
         1         0.0000      0.0000      0.0000      0.0000       90.00
         2        -0.0000      0.0000     -0.0000     -0.0000       90.00
         3         0.0000      0.0000     -0.0000     -0.0000       90.00
         4        -0.0000     -0.0000     -0.0000     -0.0000       90.00
         5         0.0000     -0.0000     -0.0000     -0.0000       90.00
         6         0.0000     -0.0000      0.0000      0.0000       90.00
         7        -0.0000      0.0000      0.0000      0.0000       90.00
         8         0.0000     -0.0000     -0.0000     -0.0000       90.00
         9        -0.0000      0.0000     -0.0000     -0.0000       90.00
        10        -0.0000     -0.0000     -0.0000     -0.0000       90.00
        11         0.0000      0.0000     -0.0000     -0.0000       90.00
        12        -0.0000     -0.0000      0.0000      0.0000       90.00
        13         0.0000      0.0000     -0.0000     -0.0000       90.00
        14         0.0000     -0.0000      0.0000      0.0000       90.00
        15        -0.0000      0.0000      0.0000     -0.0000       90.00
        16        -0.0000      0.0000      0.0000      0.0000       90.00
        17         0.0000     -0.0000     -0.0000     -0.0000       90.00
        18        -0.0000     -0.0000     -0.0000     -0.0000       90.00
        19        -0.0000      0.0000      0.0000      0.0000       90.00
        20         0.0000     -0.0000      0.0000      0.0000       90.00
        21        -0.0000      0.0000     -0.0000     -0.0000       90.00
        22         0.0000     -0.0000      0.0000      0.0000       90.00
        23        -0.0000     -0.0000      0.0000      0.0000       90.00
        24        -0.0000     -0.0000      0.0000      0.0000       90.00
        25         0.0000      0.0000     -0.0000     -0.0000       90.00
        26         0.0000      0.0000     -0.0000     -0.0000       90.00
        27         0.0000     -0.0000      0.0000      0.0000       90.00
        28        -0.0000      0.0000      0.0000      0.0000       90.00
        29         0.0000     -0.0000     -0.0000     -0.0000       90.00
        30         0.0000     -0.0000     -0.0000      0.0000       90.00
        31         0.0000     -0.0000      0.0000      0.0000       90.00
        32        -0.0000      0.0000      0.0000      0.0000       90.00
        33         0.0000      0.0000     -0.0000      0.0000       90.00
        34         0.0000      0.0000     -0.0000     -0.0000       90.00
        35        -0.0000     -0.0000      0.0000      0.0000       90.00
        36         0.0000      0.0000     -0.0000     -0.0000       90.00
        37        -0.0000      0.0000      0.0000     -0.0000       90.00
        38         0.0000      0.0000     -0.0000     -0.0000       90.00
        39        -0.0000     -0.0000      0.0000      0.0000       90.00
        40         0.0000      0.0000     -0.0000     -0.0000       90.00
[...]
     12   0.000000D+00  0.000000D+00  0.000000D+00  0.000000D+00  0.000000D+00
     13   0.000000D+00  0.000000D+00  0.000000D+00  0.000000D+00  0.000000D+00
     14   0.000000D+00  0.000000D+00  0.000000D+00  0.000000D+00  0.000000D+00
     15   0.219608D-01  0.223118D+01  0.000000D+00  0.000000D+00  0.000000D+00
     16   0.223118D+01 -0.219608D-01  0.000000D+00  0.000000D+00  0.000000D+00
                86            87            88            89            90 
      1  -0.754643D+02 -0.754463D+02 -0.754363D+02 -0.753737D+02 -0.753737D+02
      2   0.000000D+00  0.000000D+00  0.000000D+00 -0.289274D+00 -0.926026D+00
      3   0.000000D+00  0.000000D+00  0.000000D+00 -0.926026D+00  0.289274D+00
      4   0.000000D+00  0.000000D+00 -0.134936D+00  0.000000D+00  0.000000D+00
      5   0.000000D+00  0.000000D+00  0.000000D+00  0.335614D+00  0.107437D+01
      6   0.000000D+00  0.000000D+00  0.000000D+00  0.107437D+01 -0.335614D+00
      7   0.000000D+00  0.000000D+00  0.136427D+00  0.000000D+00  0.000000D+00
      8   0.000000D+00  0.000000D+00  0.000000D+00  0.000000D+00  0.000000D+00
      9   0.000000D+00  0.000000D+00  0.000000D+00  0.000000D+00  0.000000D+00
     10   0.000000D+00  0.000000D+00  0.000000D+00  0.000000D+00  0.000000D+00
     11   0.000000D+00 -0.441521D+00  0.000000D+00  0.000000D+00  0.000000D+00
     12   0.000000D+00 -0.441521D+00  0.000000D+00  0.000000D+00  0.000000D+00
     13   0.000000D+00  0.120061D+01  0.000000D+00  0.000000D+00  0.000000D+00
     14   0.000000D+00  0.000000D+00  0.000000D+00  0.000000D+00  0.000000D+00
     15   0.000000D+00  0.000000D+00  0.000000D+00  0.000000D+00  0.000000D+00
     16   0.000000D+00  0.000000D+00  0.000000D+00  0.000000D+00  0.000000D+00
                91            92            93            94            95 
      1  -0.753143D+02 -0.753143D+02 -0.752899D+02 -0.752899D+02 -0.752525D+02
      2   0.419965D+00  0.708483D+00  0.000000D+00  0.000000D+00  0.000000D+00
      3   0.708483D+00 -0.419965D+00  0.000000D+00  0.000000D+00  0.000000D+00
      4   0.000000D+00  0.000000D+00  0.000000D+00  0.000000D+00 -0.168828D+00
      5  -0.518485D+00 -0.874686D+00  0.000000D+00  0.000000D+00  0.000000D+00
      6  -0.874686D+00  0.518485D+00  0.000000D+00  0.000000D+00  0.000000D+00
      7   0.000000D+00  0.000000D+00  0.000000D+00  0.000000D+00  0.382399D+00
      8   0.000000D+00  0.000000D+00  0.000000D+00  0.000000D+00  0.000000D+00
      9   0.000000D+00  0.000000D+00  0.000000D+00  0.000000D+00  0.000000D+00
     10   0.000000D+00  0.000000D+00  0.000000D+00  0.000000D+00  0.000000D+00
     11   0.000000D+00  0.000000D+00 -0.202269D-01  0.000000D+00  0.000000D+00
     12   0.000000D+00  0.000000D+00  0.202269D-01  0.000000D+00  0.000000D+00
     13   0.000000D+00  0.000000D+00  0.000000D+00  0.000000D+00  0.000000D+00
     14   0.000000D+00  0.000000D+00  0.000000D+00 -0.202220D-01  0.000000D+00
     15   0.000000D+00  0.000000D+00  0.000000D+00  0.000000D+00  0.000000D+00
     16   0.000000D+00  0.000000D+00  0.000000D+00  0.000000D+00  0.000000D+00
                96            97            98            99           100 
      1  -0.752502D+02 -0.752502D+02 -0.752064D+02 -0.752064D+02 -0.751750D+02
      2   0.000000D+00  0.000000D+00  0.000000D+00  0.000000D+00 -0.392539D+00
      3   0.000000D+00  0.000000D+00  0.000000D+00  0.000000D+00  0.106682D-02
      4   0.000000D+00  0.000000D+00  0.000000D+00  0.000000D+00  0.000000D+00
      5   0.000000D+00  0.000000D+00  0.000000D+00  0.000000D+00  0.628704D+00
      6   0.000000D+00  0.000000D+00  0.000000D+00  0.000000D+00 -0.170866D-02
      7   0.000000D+00  0.000000D+00  0.000000D+00  0.000000D+00  0.000000D+00
      8  -0.135778D+00 -0.121201D+01  0.000000D+00  0.000000D+00  0.000000D+00
      9   0.121201D+01 -0.135778D+00  0.000000D+00  0.000000D+00  0.000000D+00
     10   0.000000D+00  0.000000D+00  0.000000D+00  0.000000D+00  0.000000D+00
     11   0.000000D+00  0.000000D+00  0.000000D+00  0.000000D+00  0.000000D+00
     12   0.000000D+00  0.000000D+00  0.000000D+00  0.000000D+00  0.000000D+00
     13   0.000000D+00  0.000000D+00  0.000000D+00  0.000000D+00  0.000000D+00
     14   0.000000D+00  0.000000D+00  0.000000D+00  0.000000D+00  0.000000D+00
     15   0.196886D+01 -0.220567D+00  0.000000D+00  0.000000D+00  0.000000D+00
     16   0.220567D+00  0.196886D+01  0.000000D+00  0.000000D+00  0.000000D+00
               101           102           103           104           105 
      1  -0.751750D+02 -0.751199D+02 -0.751199D+02 -0.750483D+02 -0.750483D+02
      2  -0.106682D-02  0.000000D+00  0.000000D+00 -0.216767D+00 -0.363487D-01
      3  -0.392539D+00  0.000000D+00  0.000000D+00  0.363487D-01 -0.216767D+00
      4   0.000000D+00  0.000000D+00  0.000000D+00  0.000000D+00  0.000000D+00
      5   0.170866D-02  0.000000D+00  0.000000D+00  0.398125D+00  0.667597D-01
      6   0.628704D+00  0.000000D+00  0.000000D+00 -0.667597D-01  0.398125D+00
      7   0.000000D+00  0.000000D+00  0.000000D+00  0.000000D+00  0.000000D+00
      8   0.000000D+00 -0.939291D-05  0.000000D+00  0.000000D+00  0.000000D+00
      9   0.000000D+00  0.000000D+00  0.939291D-05  0.000000D+00  0.000000D+00
     10   0.000000D+00  0.000000D+00  0.000000D+00  0.000000D+00  0.000000D+00
     11   0.000000D+00  0.000000D+00  0.000000D+00  0.000000D+00  0.000000D+00
     12   0.000000D+00  0.000000D+00  0.000000D+00  0.000000D+00  0.000000D+00
     13   0.000000D+00  0.000000D+00  0.000000D+00  0.000000D+00  0.000000D+00
     14   0.000000D+00  0.000000D+00  0.000000D+00  0.000000D+00  0.000000D+00
     15   0.000000D+00 -0.105182D-05  0.157875D-04  0.000000D+00  0.000000D+00
     16   0.000000D+00  0.157875D-04  0.105182D-05  0.000000D+00  0.000000D+00
               106           107           108           109           110 
      1  -0.750373D+02 -0.750373D+02 -0.750372D+02 -0.750372D+02 -0.750316D+02
      2   0.000000D+00  0.000000D+00  0.000000D+00  0.000000D+00  0.000000D+00
      3   0.000000D+00  0.000000D+00  0.000000D+00  0.000000D+00  0.000000D+00
      4   0.000000D+00  0.000000D+00  0.000000D+00  0.000000D+00  0.000000D+00
      5   0.000000D+00  0.000000D+00  0.000000D+00  0.000000D+00  0.000000D+00
      6   0.000000D+00  0.000000D+00  0.000000D+00  0.000000D+00  0.000000D+00
      7   0.000000D+00  0.000000D+00  0.000000D+00  0.000000D+00  0.000000D+00
      8   0.444347D+00  0.142334D+01  0.000000D+00  0.000000D+00  0.000000D+00
      9   0.142334D+01 -0.444347D+00  0.000000D+00  0.000000D+00  0.000000D+00
     10   0.000000D+00  0.000000D+00  0.000000D+00  0.000000D+00  0.000000D+00
     11   0.000000D+00  0.000000D+00  0.000000D+00 -0.474133D+00  0.000000D+00
     12   0.000000D+00  0.000000D+00  0.000000D+00  0.474133D+00  0.000000D+00
     13   0.000000D+00  0.000000D+00  0.000000D+00  0.000000D+00  0.000000D+00
     14   0.000000D+00  0.000000D+00 -0.474174D+00  0.000000D+00  0.000000D+00
     15   0.221972D+01 -0.692964D+00  0.000000D+00  0.000000D+00  0.000000D+00
     16  -0.692964D+00 -0.221972D+01  0.000000D+00  0.000000D+00  0.000000D+00
               111           112           113           114           115 
      1  -0.750170D+02 -0.750170D+02 -0.750009D+02 -0.750009D+02 -0.749871D+02
      2   0.000000D+00  0.000000D+00  0.000000D+00  0.000000D+00  0.000000D+00
      3   0.000000D+00  0.000000D+00  0.000000D+00  0.000000D+00  0.000000D+00
      4   0.000000D+00  0.000000D+00  0.000000D+00  0.000000D+00  0.000000D+00
      5   0.000000D+00  0.000000D+00  0.000000D+00  0.000000D+00  0.000000D+00
      6   0.000000D+00  0.000000D+00  0.000000D+00  0.000000D+00  0.000000D+00
      7   0.000000D+00  0.000000D+00  0.000000D+00  0.000000D+00  0.000000D+00
      8   0.000000D+00  0.000000D+00 -0.173041D+00 -0.186273D+00  0.000000D+00
      9   0.000000D+00  0.000000D+00  0.186273D+00 -0.173041D+00  0.000000D+00
     10   0.000000D+00  0.000000D+00  0.000000D+00  0.000000D+00  0.000000D+00
     11   0.872277D+00  0.000000D+00  0.000000D+00  0.000000D+00 -0.359842D+00
     12  -0.872277D+00  0.000000D+00  0.000000D+00  0.000000D+00 -0.359842D+00
     13   0.000000D+00  0.000000D+00  0.000000D+00  0.000000D+00 -0.613774D+00
     14   0.000000D+00  0.872257D+00  0.000000D+00  0.000000D+00  0.000000D+00
     15   0.000000D+00  0.000000D+00  0.131872D+00 -0.122505D+00  0.000000D+00
     16   0.000000D+00  0.000000D+00  0.122505D+00  0.131872D+00  0.000000D+00
               116           117           118           119           120 
      1  -0.748906D+02 -0.748906D+02 -0.748049D+02 -0.748045D+02 -0.748045D+02
      2   0.000000D+00  0.000000D+00  0.000000D+00  0.160135D+00 -0.137202D+00
      3   0.000000D+00  0.000000D+00  0.000000D+00  0.137202D+00  0.160135D+00
      4   0.000000D+00  0.000000D+00  0.000000D+00  0.000000D+00  0.000000D+00
      5   0.000000D+00  0.000000D+00  0.000000D+00 -0.343198D+00  0.294048D+00
      6   0.000000D+00  0.000000D+00  0.000000D+00 -0.294048D+00 -0.343198D+00
      7   0.000000D+00  0.000000D+00  0.000000D+00  0.000000D+00  0.000000D+00
      8   0.000000D+00  0.000000D+00  0.000000D+00  0.000000D+00  0.000000D+00
      9   0.000000D+00  0.000000D+00  0.000000D+00  0.000000D+00  0.000000D+00
     10   0.000000D+00  0.000000D+00  0.000000D+00  0.000000D+00  0.000000D+00
     11   0.000000D+00  0.000000D+00 -0.753840D-01  0.000000D+00  0.000000D+00
     12   0.000000D+00  0.000000D+00 -0.753840D-01  0.000000D+00  0.000000D+00
     13   0.000000D+00  0.000000D+00 -0.172853D+00  0.000000D+00  0.000000D+00
     14   0.000000D+00  0.000000D+00  0.000000D+00  0.000000D+00  0.000000D+00
     15   0.000000D+00  0.000000D+00  0.000000D+00  0.000000D+00  0.000000D+00
     16   0.000000D+00  0.000000D+00  0.000000D+00  0.000000D+00  0.000000D+00
               121           122           123           124           125 
      1  -0.748022D+02 -0.748022D+02 -0.747595D+02 -0.747476D+02 -0.747476D+02
      2   0.000000D+00  0.000000D+00  0.000000D+00  0.000000D+00  0.000000D+00
      3   0.000000D+00  0.000000D+00  0.000000D+00  0.000000D+00  0.000000D+00
      4   0.000000D+00  0.000000D+00  0.468032D-01  0.000000D+00  0.000000D+00
      5   0.000000D+00  0.000000D+00  0.000000D+00  0.000000D+00  0.000000D+00
      6   0.000000D+00  0.000000D+00  0.000000D+00  0.000000D+00  0.000000D+00
      7   0.000000D+00  0.000000D+00 -0.129451D+00  0.000000D+00  0.000000D+00
      8   0.000000D+00  0.000000D+00  0.000000D+00 -0.178065D+00  0.147795D+00
      9   0.000000D+00  0.000000D+00  0.000000D+00  0.147795D+00  0.178065D+00
     10   0.000000D+00  0.000000D+00  0.000000D+00  0.000000D+00  0.000000D+00
     11   0.000000D+00  0.642841D+00  0.000000D+00  0.000000D+00  0.000000D+00
     12   0.000000D+00 -0.642841D+00  0.000000D+00  0.000000D+00  0.000000D+00
     13   0.000000D+00  0.000000D+00  0.000000D+00  0.000000D+00  0.000000D+00
     14   0.642839D+00  0.000000D+00  0.000000D+00  0.000000D+00  0.000000D+00
     15   0.000000D+00  0.000000D+00  0.000000D+00  0.395973D+00  0.477071D+00
     16   0.000000D+00  0.000000D+00  0.000000D+00  0.477071D+00 -0.395973D+00
               126           127           128           129           130 
      1  -0.746960D+02 -0.746960D+02 -0.746404D+02 -0.746404D+02 -0.745804D+02
      2   0.000000D+00  0.000000D+00  0.000000D+00  0.000000D+00  0.000000D+00
      3   0.000000D+00  0.000000D+00  0.000000D+00  0.000000D+00  0.000000D+00
      4   0.000000D+00  0.000000D+00  0.000000D+00  0.000000D+00  0.000000D+00
      5   0.000000D+00  0.000000D+00  0.000000D+00  0.000000D+00  0.000000D+00
      6   0.000000D+00  0.000000D+00  0.000000D+00  0.000000D+00  0.000000D+00
      7   0.000000D+00  0.000000D+00  0.000000D+00  0.000000D+00  0.000000D+00
      8  -0.139902D-02 -0.922005D-02  0.000000D+00  0.000000D+00  0.000000D+00
      9   0.922005D-02 -0.139902D-02  0.000000D+00  0.000000D+00  0.000000D+00
     10   0.000000D+00  0.000000D+00  0.000000D+00  0.000000D+00  0.000000D+00
     11   0.000000D+00  0.000000D+00  0.000000D+00  0.000000D+00  0.144906D+00
     12   0.000000D+00  0.000000D+00  0.000000D+00  0.000000D+00  0.144906D+00
     13   0.000000D+00  0.000000D+00  0.000000D+00  0.000000D+00  0.773165D+00
     14   0.000000D+00  0.000000D+00  0.000000D+00  0.000000D+00  0.000000D+00
     15   0.167813D+00 -0.254634D-01  0.000000D+00  0.000000D+00  0.000000D+00
     16   0.254634D-01  0.167813D+00  0.000000D+00  0.000000D+00  0.000000D+00
               131           132           133           134           135 
      1  -0.745515D+02 -0.745515D+02 -0.744705D+02 -0.744090D+02 -0.742236D+02
      2  -0.227980D+00  0.101820D-01  0.000000D+00  0.000000D+00  0.000000D+00
      3  -0.101820D-01 -0.227980D+00  0.000000D+00  0.000000D+00  0.000000D+00
      4   0.000000D+00  0.000000D+00 -0.516915D-01  0.000000D+00  0.151631D+00
      5   0.470607D+00 -0.210183D-01  0.000000D+00  0.000000D+00  0.000000D+00
      6   0.210183D-01  0.470607D+00  0.000000D+00  0.000000D+00  0.000000D+00
      7   0.000000D+00  0.000000D+00  0.108842D+00  0.000000D+00 -0.432272D+00
      8   0.000000D+00  0.000000D+00  0.000000D+00  0.000000D+00  0.000000D+00
      9   0.000000D+00  0.000000D+00  0.000000D+00  0.000000D+00  0.000000D+00
     10   0.000000D+00  0.000000D+00  0.000000D+00  0.000000D+00  0.000000D+00
     11   0.000000D+00  0.000000D+00  0.000000D+00 -0.225855D-01  0.000000D+00
     12   0.000000D+00  0.000000D+00  0.000000D+00 -0.225855D-01  0.000000D+00
     13   0.000000D+00  0.000000D+00  0.000000D+00  0.441460D-01  0.000000D+00
     14   0.000000D+00  0.000000D+00  0.000000D+00  0.000000D+00  0.000000D+00
     15   0.000000D+00  0.000000D+00  0.000000D+00  0.000000D+00  0.000000D+00
     16   0.000000D+00  0.000000D+00  0.000000D+00  0.000000D+00  0.000000D+00
               136           137           138           139           140 
      1  -0.741876D+02 -0.741876D+02 -0.741768D+02 -0.741473D+02 -0.739569D+02
      2   0.000000D+00  0.000000D+00  0.000000D+00  0.000000D+00  0.000000D+00
      3   0.000000D+00  0.000000D+00  0.000000D+00  0.000000D+00  0.000000D+00
      4   0.000000D+00  0.000000D+00  0.000000D+00 -0.156445D+00  0.000000D+00
      5   0.000000D+00  0.000000D+00  0.000000D+00  0.000000D+00  0.000000D+00
      6   0.000000D+00  0.000000D+00  0.000000D+00  0.000000D+00  0.000000D+00
      7   0.000000D+00  0.000000D+00  0.000000D+00  0.552456D+00  0.000000D+00
      8   0.000000D+00  0.000000D+00  0.000000D+00  0.000000D+00  0.195717D+00
      9   0.000000D+00  0.000000D+00  0.000000D+00  0.000000D+00  0.228912D+00
     10   0.000000D+00  0.000000D+00  0.000000D+00  0.000000D+00  0.000000D+00
     11   0.000000D+00  0.000000D+00  0.000000D+00  0.000000D+00  0.000000D+00
     12   0.000000D+00  0.000000D+00  0.000000D+00  0.000000D+00  0.000000D+00
     13   0.000000D+00  0.000000D+00  0.000000D+00  0.000000D+00  0.000000D+00
     14   0.000000D+00  0.000000D+00  0.000000D+00  0.000000D+00  0.000000D+00
     15   0.000000D+00  0.000000D+00  0.000000D+00  0.000000D+00  0.311267D+00
     16   0.000000D+00  0.000000D+00  0.000000D+00  0.000000D+00 -0.266129D+00
               141           142           143           144           145 
      1  -0.739569D+02 -0.739348D+02 -0.739348D+02 -0.738839D+02 -0.738839D+02
      2   0.000000D+00  0.844102D-01 -0.552432D-02 -0.317393D-02 -0.104045D+00
      3   0.000000D+00  0.552432D-02  0.844102D-01 -0.104045D+00  0.317393D-02
      4   0.000000D+00  0.000000D+00  0.000000D+00  0.000000D+00  0.000000D+00
      5   0.000000D+00 -0.319317D+00  0.208980D-01  0.965571D-02  0.316526D+00
      6   0.000000D+00 -0.208980D-01 -0.319317D+00  0.316526D+00 -0.965571D-02
      7   0.000000D+00  0.000000D+00  0.000000D+00  0.000000D+00  0.000000D+00
      8  -0.228912D+00  0.000000D+00  0.000000D+00  0.000000D+00  0.000000D+00
      9   0.195717D+00  0.000000D+00  0.000000D+00  0.000000D+00  0.000000D+00
     10   0.000000D+00  0.000000D+00  0.000000D+00  0.000000D+00  0.000000D+00
     11   0.000000D+00  0.000000D+00  0.000000D+00  0.000000D+00  0.000000D+00
     12   0.000000D+00  0.000000D+00  0.000000D+00  0.000000D+00  0.000000D+00
     13   0.000000D+00  0.000000D+00  0.000000D+00  0.000000D+00  0.000000D+00
     14   0.000000D+00  0.000000D+00  0.000000D+00  0.000000D+00  0.000000D+00
     15   0.266129D+00  0.000000D+00  0.000000D+00  0.000000D+00  0.000000D+00
     16   0.311267D+00  0.000000D+00  0.000000D+00  0.000000D+00  0.000000D+00
               146           147           148           149           150 
      1  -0.737196D+02 -0.737196D+02 -0.737037D+02 -0.736440D+02 -0.734522D+02
      2   0.000000D+00  0.000000D+00  0.000000D+00  0.000000D+00  0.000000D+00
      3   0.000000D+00  0.000000D+00  0.000000D+00  0.000000D+00  0.000000D+00
      4   0.000000D+00  0.000000D+00  0.000000D+00  0.259703D-03  0.000000D+00
      5   0.000000D+00  0.000000D+00  0.000000D+00  0.000000D+00  0.000000D+00
      6   0.000000D+00  0.000000D+00  0.000000D+00  0.000000D+00  0.000000D+00
      7   0.000000D+00  0.000000D+00  0.000000D+00  0.210672D-01  0.000000D+00
      8  -0.124729D-01  0.377816D-02  0.000000D+00  0.000000D+00  0.000000D+00
      9   0.377816D-02  0.124729D-01  0.000000D+00  0.000000D+00  0.000000D+00
     10   0.000000D+00  0.000000D+00  0.000000D+00  0.000000D+00  0.000000D+00
     11   0.000000D+00  0.000000D+00  0.106990D-01  0.000000D+00 -0.280336D+00
     12   0.000000D+00  0.000000D+00  0.106990D-01  0.000000D+00 -0.280336D+00
     13   0.000000D+00  0.000000D+00  0.100352D+01  0.000000D+00 -0.105451D+01
     14   0.000000D+00  0.000000D+00  0.000000D+00  0.000000D+00  0.000000D+00
     15  -0.689402D-01 -0.227594D+00  0.000000D+00  0.000000D+00  0.000000D+00
     16  -0.227594D+00  0.689402D-01  0.000000D+00  0.000000D+00  0.000000D+00
               151           152           153           154           155 
      1  -0.730780D+02 -0.730780D+02 -0.728348D+02 -0.727795D+02 -0.725757D+02
      2   0.000000D+00  0.000000D+00  0.000000D+00  0.000000D+00  0.000000D+00
      3   0.000000D+00  0.000000D+00  0.000000D+00  0.000000D+00  0.000000D+00
      4   0.000000D+00  0.000000D+00 -0.517157D-01  0.000000D+00 -0.524314D-01
      5   0.000000D+00  0.000000D+00  0.000000D+00  0.000000D+00  0.000000D+00
      6   0.000000D+00  0.000000D+00  0.000000D+00  0.000000D+00  0.000000D+00
      7   0.000000D+00  0.000000D+00  0.187137D+00  0.000000D+00  0.212445D+00
      8   0.368655D+00 -0.574508D-01  0.000000D+00  0.000000D+00  0.000000D+00
      9  -0.574508D-01 -0.368655D+00  0.000000D+00  0.000000D+00  0.000000D+00
     10   0.000000D+00  0.000000D+00  0.000000D+00  0.000000D+00  0.000000D+00
     11   0.000000D+00  0.000000D+00  0.000000D+00 -0.206353D+00  0.000000D+00
     12   0.000000D+00  0.000000D+00  0.000000D+00 -0.206353D+00  0.000000D+00
     13   0.000000D+00  0.000000D+00  0.000000D+00  0.720197D+00  0.000000D+00
     14   0.000000D+00  0.000000D+00  0.000000D+00  0.000000D+00  0.000000D+00
     15  -0.705048D-01 -0.452421D+00  0.000000D+00  0.000000D+00  0.000000D+00
     16  -0.452421D+00  0.705048D-01  0.000000D+00  0.000000D+00  0.000000D+00
 Unable to Open any file for archive entry.
 1\1\GINC-HEL13\SP\RwB97XD TD-FC\def2SVP\C2H2\PRAKRITI\14-Aug-2021\0\\#
 P TD(Nstates=10000) wB97XD/def2SVP SCF(maxcycles=100) Int(Grid=ultrafi
 ne)\\xGDB7_00001_tier4.com\\0,1\C,0,0.,0.,0.603394\C,0,0.,0.,-0.603394
 \H,0,0.,0.,1.677978\H,0,0.,0.,-1.677978\\Version=EM64L-G16RevC.01\Stat
 e=1-SGG\HF=-77.2389997\RMSD=8.675e-09\PG=D*H [C*(H1C1.C1H1)]\\@
 The archive entry for this job was punched.


 THERE IS NO CURE FOR BIRTH AND DEATH SAVE TO ENJOY THE INTERVAL.

                               -- GEORGE SANTAYANA
 Job cpu time:       0 days  0 hours  0 minutes 18.2 seconds.
 Elapsed time:       0 days  0 hours  0 minutes  2.6 seconds.
 File lengths (MBytes):  RWF=     33 Int=      0 D2E=      0 Chk=      7 Scr=      1
 Normal termination of Gaussian 16 at Sat Aug 14 07:22:51 2021.
