 Entering Gaussian System, Link 0=g16
 Input=xGDB7_000012_TDDFT.com
 Output=xGDB7_000012_TDDFT.log
 Initial command:
 /home/prakriti/g16/l1.exe "/scratch/prakriti/PBS_7434522.helios/Gau-60454.inp" -scrdir="/scratch/prakriti/PBS_7434522.helios/"
 Entering Link 1 = /home/prakriti/g16/l1.exe PID=     60455.
  
 Copyright (c) 1988-2019, Gaussian, Inc.  All Rights Reserved.
  
 This is part of the Gaussian(R) 16 program.  It is based on
 the Gaussian(R) 09 system (copyright 2009, Gaussian, Inc.),
 the Gaussian(R) 03 system (copyright 2003, Gaussian, Inc.),
 the Gaussian(R) 98 system (copyright 1998, Gaussian, Inc.),
 the Gaussian(R) 94 system (copyright 1995, Gaussian, Inc.),
 the Gaussian 92(TM) system (copyright 1992, Gaussian, Inc.),
 the Gaussian 90(TM) system (copyright 1990, Gaussian, Inc.),
 the Gaussian 88(TM) system (copyright 1988, Gaussian, Inc.),
 the Gaussian 86(TM) system (copyright 1986, Carnegie Mellon
 University), and the Gaussian 82(TM) system (copyright 1983,
 Carnegie Mellon University). Gaussian is a federally registered
 trademark of Gaussian, Inc.
  
 This software contains proprietary and confidential information,
 including trade secrets, belonging to Gaussian, Inc.
  
 This software is provided under written license and may be
 used, copied, transmitted, or stored only in accord with that
 written license.
  
 The following legend is applicable only to US Government
 contracts under FAR:
  
                    RESTRICTED RIGHTS LEGEND
  
 Use, reproduction and disclosure by the US Government is
 subject to restrictions as set forth in subparagraphs (a)
 and (c) of the Commercial Computer Software - Restricted
 Rights clause in FAR 52.227-19.
  
 Gaussian, Inc.
 340 Quinnipiac St., Bldg. 40, Wallingford CT 06492
  
  
 ---------------------------------------------------------------
 Warning -- This program may not be used in any manner that
 competes with the business of Gaussian, Inc. or will provide
 assistance to any competitor of Gaussian, Inc.  The licensee
 of this program is prohibited from giving any competitor of
 Gaussian, Inc. access to this program.  By using this program,
 the user acknowledges that Gaussian, Inc. is engaged in the
 business of creating and licensing software in the field of
 computational chemistry and represents and warrants to the
 licensee that it is not a competitor of Gaussian, Inc. and that
 it will not use this program in any manner prohibited above.
 ---------------------------------------------------------------
  

 Cite this work as:
 Gaussian 16, Revision C.01,
 M. J. Frisch, G. W. Trucks, H. B. Schlegel, G. E. Scuseria, 
 M. A. Robb, J. R. Cheeseman, G. Scalmani, V. Barone, 
 G. A. Petersson, H. Nakatsuji, X. Li, M. Caricato, A. V. Marenich, 
 J. Bloino, B. G. Janesko, R. Gomperts, B. Mennucci, H. P. Hratchian, 
 J. V. Ortiz, A. F. Izmaylov, J. L. Sonnenberg, D. Williams-Young, 
 F. Ding, F. Lipparini, F. Egidi, J. Goings, B. Peng, A. Petrone, 
 T. Henderson, D. Ranasinghe, V. G. Zakrzewski, J. Gao, N. Rega, 
 G. Zheng, W. Liang, M. Hada, M. Ehara, K. Toyota, R. Fukuda, 
 J. Hasegawa, M. Ishida, T. Nakajima, Y. Honda, O. Kitao, H. Nakai, 
 T. Vreven, K. Throssell, J. A. Montgomery, Jr., J. E. Peralta, 
 F. Ogliaro, M. J. Bearpark, J. J. Heyd, E. N. Brothers, K. N. Kudin, 
 V. N. Staroverov, T. A. Keith, R. Kobayashi, J. Normand, 
 K. Raghavachari, A. P. Rendell, J. C. Burant, S. S. Iyengar, 
 J. Tomasi, M. Cossi, J. M. Millam, M. Klene, C. Adamo, R. Cammi, 
 J. W. Ochterski, R. L. Martin, K. Morokuma, O. Farkas, 
 J. B. Foresman, and D. J. Fox, Gaussian, Inc., Wallingford CT, 2019.
 
 ******************************************
 Gaussian 16:  EM64L-G16RevC.01  3-Jul-2019
                14-Aug-2021 
 ******************************************
 %mem=8gb
 %nproc=8
 Will use up to    8 processors via shared memory.
 ----------------------------------------------------------------------
 #P TD(Nstates=10000) wB97XD/def2SVP SCF(maxcycles=100) Int(Grid=ultraf
 ine)
 ----------------------------------------------------------------------
 1/38=1,172=1/1;
 2/12=2,17=6,18=5,40=1/2;
 3/5=43,7=101,11=9,25=1,30=1,74=-58,75=-5/1,2,3,8;
 4//1;
 5/5=2,7=100,38=5/2;
 8/6=1,10=1,108=10000/1;
 9/41=10000,42=1,70=2/14;
 6/7=2,8=2,9=2,10=2/1;
 99/5=1,9=1/99;
 Leave Link    1 at Sat Aug 14 23:27:26 2021, MaxMem=  1073741824 cpu:               0.3 elap:               0.0
 (Enter /home/prakriti/g16/l101.exe)
 ---------------------
 xGDB7_00001_tier4.com
 ---------------------
 Symbolic Z-matrix:
 Charge =  0 Multiplicity = 1
 8                     0.        0.        0.59559 
 8                     0.        0.       -0.59559 
 
 ITRead=  0  0
 MicOpt= -1 -1
 NAtoms=      2 NQM=        2 NQMF=       0 NMMI=      0 NMMIF=      0
                NMic=       0 NMicF=      0.
                    Isotopes and Nuclear Properties:
 (Nuclear quadrupole moments (NQMom) in fm**2, nuclear magnetic moments (NMagM)
  in nuclear magnetons)

  Atom         1           2
 IAtWgt=          16          16
 AtmWgt=  15.9949146  15.9949146
 NucSpn=           0           0
 AtZEff=  -0.0000000  -0.0000000
 NQMom=    0.0000000   0.0000000
 NMagM=    0.0000000   0.0000000
 AtZNuc=   8.0000000   8.0000000
 Leave Link  101 at Sat Aug 14 23:27:26 2021, MaxMem=  1073741824 cpu:               0.6 elap:               0.1
 (Enter /home/prakriti/g16/l202.exe)
                          Input orientation:                          
 ---------------------------------------------------------------------
 Center     Atomic      Atomic             Coordinates (Angstroms)
 Number     Number       Type             X           Y           Z
 ---------------------------------------------------------------------
      1          8           0        0.000000    0.000000    0.595593
      2          8           0        0.000000    0.000000   -0.595593
 ---------------------------------------------------------------------
 Stoichiometry    O2
 Framework group  D*H[C*(O.O)]
 Deg. of freedom     1
 Full point group                 D*H     NOp   8
 Largest Abelian subgroup         D2H     NOp   8
 Largest concise Abelian subgroup C2      NOp   2
                         Standard orientation:                         
 ---------------------------------------------------------------------
 Center     Atomic      Atomic             Coordinates (Angstroms)
 Number     Number       Type             X           Y           Z
 ---------------------------------------------------------------------
      1          8           0        0.000000    0.000000    0.595593
      2          8           0        0.000000    0.000000   -0.595593
 ---------------------------------------------------------------------
 Rotational constants (GHZ):           0.0000000          44.5354769          44.5354769
 Leave Link  202 at Sat Aug 14 23:27:26 2021, MaxMem=  1073741824 cpu:               0.1 elap:               0.0
 (Enter /home/prakriti/g16/l301.exe)
 Standard basis: def2SVP (5D, 7F)
 Ernie: Thresh=  0.10000D-02 Tol=  0.10000D-05 Strict=F.
 There are     8 symmetry adapted cartesian basis functions of AG  symmetry.
 There are     1 symmetry adapted cartesian basis functions of B1G symmetry.
 There are     3 symmetry adapted cartesian basis functions of B2G symmetry.
 There are     3 symmetry adapted cartesian basis functions of B3G symmetry.
 There are     1 symmetry adapted cartesian basis functions of AU  symmetry.
 There are     8 symmetry adapted cartesian basis functions of B1U symmetry.
 There are     3 symmetry adapted cartesian basis functions of B2U symmetry.
 There are     3 symmetry adapted cartesian basis functions of B3U symmetry.
 There are     7 symmetry adapted basis functions of AG  symmetry.
 There are     1 symmetry adapted basis functions of B1G symmetry.
 There are     3 symmetry adapted basis functions of B2G symmetry.
 There are     3 symmetry adapted basis functions of B3G symmetry.
 There are     1 symmetry adapted basis functions of AU  symmetry.
 There are     7 symmetry adapted basis functions of B1U symmetry.
 There are     3 symmetry adapted basis functions of B2U symmetry.
 There are     3 symmetry adapted basis functions of B3U symmetry.
    28 basis functions,    50 primitive gaussians,    30 cartesian basis functions
     8 alpha electrons        8 beta electrons
       nuclear repulsion energy        28.4316147931 Hartrees.
 IExCor= 4639 DFT=T Ex+Corr=wB97XD ExCW=0 ScaHFX=  1.000000
 ScaDFX=  1.000000  1.000000  1.000000  1.000000 ScalE2=  1.000000  1.000000
 IRadAn=      5 IRanWt=     -1 IRanGd=            0 ICorTp=0 IEmpDi=121
 HFx  wShort=  0.000000 wLong=  0.200000 cFull=  0.222036 cShort=  0.000000 cLong=  0.777964
 DFx  wShort=  0.000000 wLong=  0.200000 cFull=  0.000000 cShort=  0.000000 cLong=  1.000000
 NAtoms=    2 NActive=    2 NUniq=    1 SFac= 4.00D+00 NAtFMM=   60 NAOKFM=F Big=F
 Integral buffers will be    131072 words long.
 Raffenetti 1 integral format.
 Two-electron integral symmetry is turned on.
 R6Disp:  Grimme-D2 Dispersion energy=       -0.0000009083 Hartrees.
 Nuclear repulsion after empirical dispersion term =       28.4316138848 Hartrees.
 Leave Link  301 at Sat Aug 14 23:27:26 2021, MaxMem=  1073741824 cpu:               0.4 elap:               0.1
 (Enter /home/prakriti/g16/l302.exe)
 NPDir=0 NMtPBC=     1 NCelOv=     1 NCel=       1 NClECP=     1 NCelD=      1
         NCelK=      1 NCelE2=     1 NClLst=     1 CellRange=     0.0.
 One-electron integrals computed using PRISM.
 One-electron integral symmetry used in STVInt
   8 Symmetry operations used in ECPInt.
 ECPInt:  NShTT=      78 NPrTT=     326 LenC2=      79 LenP2D=     305.
 LDataN:  DoStor=T MaxTD1= 4 Len=   56
 NBasis=    28 RedAO= T EigKep=  1.41D-02  NBF=     7     1     3     3     1     7     3     3
 NBsUse=    28 1.00D-06 EigRej= -1.00D+00 NBFU=     7     1     3     3     1     7     3     3
 Precomputing XC quadrature grid using
 IXCGrd= 4 IRadAn=           5 IRanWt=          -1 IRanGd=           0 AccXCQ= 0.00D+00.
 Generated NRdTot=       0 NPtTot=           0 NUsed=           0 NTot=          32
 NSgBfM=    30    30    30    30    30 MxSgAt=     2 MxSgA2=     2.
 Leave Link  302 at Sat Aug 14 23:27:26 2021, MaxMem=  1073741824 cpu:               0.9 elap:               0.1
 (Enter /home/prakriti/g16/l303.exe)
 DipDrv:  MaxL=1.
 Leave Link  303 at Sat Aug 14 23:27:26 2021, MaxMem=  1073741824 cpu:               0.2 elap:               0.0
 (Enter /home/prakriti/g16/l308.exe)
 Leave Link  308 at Sat Aug 14 23:27:26 2021, MaxMem=  1073741824 cpu:               0.2 elap:               0.0
 (Enter /home/prakriti/g16/l401.exe)
 ExpMin= 2.55D-01 ExpMax= 2.27D+03 ExpMxC= 3.41D+02 IAcc=3 IRadAn=         5 AccDes= 0.00D+00
 Harris functional with IExCor= 4639 and IRadAn=       5 diagonalized for initial guess.
 HarFok:  IExCor= 4639 AccDes= 0.00D+00 IRadAn=         5 IDoV= 1 UseB2=F ITyADJ=14
 ICtDFT=  3500011 ScaDFX=  1.000000  1.000000  1.000000  1.000000
 FoFCou: FMM=F IPFlag=           0 FMFlag=      100000 FMFlg1=           0
         NFxFlg=           0 DoJE=T BraDBF=F KetDBF=T FulRan=T
         wScrn=  0.000000 ICntrl=       500 IOpCl=  0 I1Cent=   200000004 NGrid=           0
         NMat0=    1 NMatS0=      1 NMatT0=    0 NMatD0=    1 NMtDS0=    0 NMtDT0=    0
 Petite list used in FoFCou.
 Harris En= -145.168517564469    
 JPrj=0 DoOrth=F DoCkMO=F.
 Initial guess orbital symmetries:
       Occupied  (SGU) (SGG) (SGG) (SGU) (SGG) (PIU) (PIU) (PIG)
       Virtual   (PIG) (SGU) (SGG) (SGU) (PIU) (PIU) (SGG) (PIG)
                 (PIG) (SGU) (PIU) (PIU) (DLTG) (DLTG) (DLTU) (DLTU)
                 (SGG) (PIG) (PIG) (SGU)
 Leave Link  401 at Sat Aug 14 23:27:26 2021, MaxMem=  1073741824 cpu:               1.1 elap:               0.2
 (Enter /home/prakriti/g16/l502.exe)
 Keep R1 ints in memory in symmetry-blocked form, NReq=7089624.
 FoFCou: FMM=F IPFlag=           0 FMFlag=           0 FMFlg1=           0
         NFxFlg=           0 DoJE=F BraDBF=F KetDBF=F FulRan=T
         wScrn=  0.000000 ICntrl=       600 IOpCl=  0 I1Cent=           0 NGrid=           0
         NMat0=    1 NMatS0=    406 NMatT0=    0 NMatD0=    1 NMtDS0=    0 NMtDT0=    0
 Petite list used in FoFCou.
 Closed shell SCF:
 Using DIIS extrapolation, IDIIS=  1040.
 NGot=  1073741824 LenX=  1073724923 LenY=  1073723582
 Requested convergence on RMS density matrix=1.00D-08 within 100 cycles.
 Requested convergence on MAX density matrix=1.00D-06.
 Requested convergence on             energy=1.00D-06.
 No special actions if energy rises.
 Integral accuracy reduced to 1.0D-05 until final iterations.

 Cycle   1  Pass 0  IDiag  1:
 E= -150.004722328358    
 DIIS: error= 7.99D-02 at cycle   1 NSaved=   1.
 NSaved= 1 IEnMin= 1 EnMin= -150.004722328358     IErMin= 1 ErrMin= 7.99D-02
 ErrMax= 7.99D-02  0.00D+00 EMaxC= 1.00D-01 BMatC= 1.47D-01 BMatP= 1.47D-01
 IDIUse=3 WtCom= 2.01D-01 WtEn= 7.99D-01
 Coeff-Com:  0.100D+01
 Coeff-En:   0.100D+01
 Coeff:      0.100D+01
 Gap=     0.236 Goal=   None    Shift=    0.000
 GapD=    0.236 DampG=1.000 DampE=0.500 DampFc=0.5000 IDamp=-1.
 Damping current iteration by 5.00D-01
 RMSDP=1.50D-02 MaxDP=1.35D-01              OVMax= 9.73D-02

 Cycle   2  Pass 0  IDiag  1:
 E= -150.054104767508     Delta-E=       -0.049382439150 Rises=F Damp=T
 DIIS: error= 3.03D-02 at cycle   2 NSaved=   2.
 NSaved= 2 IEnMin= 2 EnMin= -150.054104767508     IErMin= 2 ErrMin= 3.03D-02
 ErrMax= 3.03D-02  0.00D+00 EMaxC= 1.00D-01 BMatC= 1.27D-02 BMatP= 1.47D-01
 IDIUse=3 WtCom= 6.97D-01 WtEn= 3.03D-01
 Coeff-Com: -0.360D+00 0.136D+01
 Coeff-En:   0.000D+00 0.100D+01
 Coeff:     -0.251D+00 0.125D+01
 Gap=     0.242 Goal=   None    Shift=    0.000
 RMSDP=2.65D-03 MaxDP=2.48D-02 DE=-4.94D-02 OVMax= 3.46D-02

 Cycle   3  Pass 0  IDiag  1:
 E= -150.092460096568     Delta-E=       -0.038355329060 Rises=F Damp=F
 DIIS: error= 1.82D-03 at cycle   3 NSaved=   3.
 NSaved= 3 IEnMin= 3 EnMin= -150.092460096568     IErMin= 3 ErrMin= 1.82D-03
 ErrMax= 1.82D-03  0.00D+00 EMaxC= 1.00D-01 BMatC= 5.10D-05 BMatP= 1.27D-02
 IDIUse=3 WtCom= 9.82D-01 WtEn= 1.82D-02
 Coeff-Com:  0.454D-01-0.106D+00 0.106D+01
 Coeff-En:   0.000D+00 0.000D+00 0.100D+01
 Coeff:      0.446D-01-0.104D+00 0.106D+01
 Gap=     0.241 Goal=   None    Shift=    0.000
 RMSDP=2.22D-04 MaxDP=1.66D-03 DE=-3.84D-02 OVMax= 1.86D-03

 Cycle   4  Pass 0  IDiag  1:
 E= -150.092502180190     Delta-E=       -0.000042083622 Rises=F Damp=F
 DIIS: error= 8.98D-05 at cycle   4 NSaved=   4.
 NSaved= 4 IEnMin= 4 EnMin= -150.092502180190     IErMin= 4 ErrMin= 8.98D-05
 ErrMax= 8.98D-05  0.00D+00 EMaxC= 1.00D-01 BMatC= 1.19D-07 BMatP= 5.10D-05
 IDIUse=1 WtCom= 1.00D+00 WtEn= 0.00D+00
 Coeff-Com: -0.562D-02 0.124D-01-0.126D+00 0.112D+01
 Coeff:     -0.562D-02 0.124D-01-0.126D+00 0.112D+01
 Gap=     0.241 Goal=   None    Shift=    0.000
 RMSDP=2.20D-05 MaxDP=1.99D-04 DE=-4.21D-05 OVMax= 2.25D-04

 Cycle   5  Pass 0  IDiag  1:
 E= -150.092502362126     Delta-E=       -0.000000181937 Rises=F Damp=F
 DIIS: error= 1.51D-05 at cycle   5 NSaved=   5.
 NSaved= 5 IEnMin= 5 EnMin= -150.092502362126     IErMin= 5 ErrMin= 1.51D-05
 ErrMax= 1.51D-05  0.00D+00 EMaxC= 1.00D-01 BMatC= 4.93D-09 BMatP= 1.19D-07
 IDIUse=1 WtCom= 1.00D+00 WtEn= 0.00D+00
 Coeff-Com: -0.165D-02 0.370D-02-0.399D-01 0.167D+00 0.871D+00
 Coeff:     -0.165D-02 0.370D-02-0.399D-01 0.167D+00 0.871D+00
 Gap=     0.241 Goal=   None    Shift=    0.000
 RMSDP=1.81D-06 MaxDP=1.89D-05 DE=-1.82D-07 OVMax= 1.38D-05

 Initial convergence to 1.0D-05 achieved.  Increase integral accuracy.
 Cycle   6  Pass 1  IDiag  1:
 E= -150.092501472297     Delta-E=        0.000000889830 Rises=F Damp=F
 DIIS: error= 2.58D-06 at cycle   1 NSaved=   1.
 NSaved= 1 IEnMin= 1 EnMin= -150.092501472297     IErMin= 1 ErrMin= 2.58D-06
 ErrMax= 2.58D-06  0.00D+00 EMaxC= 1.00D-01 BMatC= 8.03D-11 BMatP= 8.03D-11
 IDIUse=1 WtCom= 1.00D+00 WtEn= 0.00D+00
 Coeff-Com:  0.100D+01
 Coeff:      0.100D+01
 Gap=     0.241 Goal=   None    Shift=    0.000
 RMSDP=1.81D-06 MaxDP=1.89D-05 DE= 8.90D-07 OVMax= 3.32D-06

 Cycle   7  Pass 1  IDiag  1:
 E= -150.092501472401     Delta-E=       -0.000000000104 Rises=F Damp=F
 DIIS: error= 5.93D-07 at cycle   2 NSaved=   2.
 NSaved= 2 IEnMin= 2 EnMin= -150.092501472401     IErMin= 2 ErrMin= 5.93D-07
 ErrMax= 5.93D-07  0.00D+00 EMaxC= 1.00D-01 BMatC= 2.28D-12 BMatP= 8.03D-11
 IDIUse=1 WtCom= 1.00D+00 WtEn= 0.00D+00
 Coeff-Com: -0.143D+00 0.114D+01
 Coeff:     -0.143D+00 0.114D+01
 Gap=     0.241 Goal=   None    Shift=    0.000
 RMSDP=9.50D-08 MaxDP=7.03D-07 DE=-1.04D-10 OVMax= 8.78D-07

 Cycle   8  Pass 1  IDiag  1:
 E= -150.092501472404     Delta-E=       -0.000000000003 Rises=F Damp=F
 DIIS: error= 1.14D-07 at cycle   3 NSaved=   3.
 NSaved= 3 IEnMin= 3 EnMin= -150.092501472404     IErMin= 3 ErrMin= 1.14D-07
 ErrMax= 1.14D-07  0.00D+00 EMaxC= 1.00D-01 BMatC= 2.63D-13 BMatP= 2.28D-12
 IDIUse=1 WtCom= 1.00D+00 WtEn= 0.00D+00
 Coeff-Com: -0.606D-01 0.370D+00 0.690D+00
 Coeff:     -0.606D-01 0.370D+00 0.690D+00
 Gap=     0.241 Goal=   None    Shift=    0.000
 RMSDP=1.72D-08 MaxDP=1.31D-07 DE=-2.84D-12 OVMax= 1.23D-07

 Cycle   9  Pass 1  IDiag  1:
 E= -150.092501472404     Delta-E=       -0.000000000000 Rises=F Damp=F
 DIIS: error= 5.83D-09 at cycle   4 NSaved=   4.
 NSaved= 4 IEnMin= 4 EnMin= -150.092501472404     IErMin= 4 ErrMin= 5.83D-09
 ErrMax= 5.83D-09  0.00D+00 EMaxC= 1.00D-01 BMatC= 6.84D-16 BMatP= 2.63D-13
 IDIUse=1 WtCom= 1.00D+00 WtEn= 0.00D+00
 Coeff-Com:  0.365D-02-0.262D-01-0.520D-02 0.103D+01
 Coeff:      0.365D-02-0.262D-01-0.520D-02 0.103D+01
 Gap=     0.241 Goal=   None    Shift=    0.000
 RMSDP=1.07D-09 MaxDP=1.16D-08 DE=-3.69D-13 OVMax= 1.34D-08

 SCF Done:  E(RwB97XD) =  -150.092501472     A.U. after    9 cycles
            NFock=  9  Conv=0.11D-08     -V/T= 2.0043
 KE= 1.494538046782D+02 PE=-4.117781287539D+02 EE= 8.380020871852D+01
 Leave Link  502 at Sat Aug 14 23:27:26 2021, MaxMem=  1073741824 cpu:               1.8 elap:               0.2
 (Enter /home/prakriti/g16/l801.exe)
 DoSCS=F DFT=T ScalE2(SS,OS)=  1.000000  1.000000
 ExpMin= 2.55D-01 ExpMax= 2.27D+03 ExpMxC= 3.41D+02 IAcc=3 IRadAn=         5 AccDes= 0.00D+00
 HarFok:  IExCor=  205 AccDes= 0.00D+00 IRadAn=         5 IDoV=-2 UseB2=F ITyADJ=14
 ICtDFT= 12500011 ScaDFX=  1.000000  1.000000  1.000000  1.000000
 Largest valence mixing into a core orbital is  4.08D-05
 Largest core mixing into a valence orbital is  2.67D-05
 Range of M.O.s used for correlation:     3    28
 NBasis=    28 NAE=     8 NBE=     8 NFC=     2 NFV=     0
 NROrb=     26 NOA=     6 NOB=     6 NVA=    20 NVB=    20
 Leave Link  801 at Sat Aug 14 23:27:27 2021, MaxMem=  1073741824 cpu:               0.3 elap:               0.1
 (Enter /home/prakriti/g16/l914.exe)
 RHF ground state
 Keep R1, R2, and R3 ints in memory in symmetry-blocked form, NReq=25031396.
 FoFCou: FMM=F IPFlag=           0 FMFlag=           0 FMFlg1=           0
         NFxFlg=           0 DoJE=F BraDBF=F KetDBF=F FulRan=T
         wScrn=  0.000000 ICntrl=       600 IOpCl=  0 I1Cent=           0 NGrid=           0
         NMat0=    1 NMatS0=    406 NMatT0=    0 NMatD0=    1 NMtDS0=    0 NMtDT0=    0
 Petite list used in FoFCou.
 MDV=  1073741824 DFT=T DoStab=F Mixed=T DoRPA=T DoScal=F NonHer=T
 Making orbital integer symmetry assigments:
 Orbital symmetries:
       Occupied  (SGU) (SGG) (SGG) (SGU) (SGG) (PIU) (PIU) (PIG)
       Virtual   (PIG) (SGU) (SGG) (PIU) (SGU) (PIU) (SGG) (PIG)
                 (PIG) (SGU) (PIU) (PIU) (?A) (?A) (DLTU) (DLTU)
                 (?A) (PIG) (PIG) (SGU)
   120 initial guesses have been made.
 Convergence on wavefunction:    0.001000000000000
 Davidson Disk Diagonalization:  ConvIn= 1.00D-03 SkipCon=T Conv= 1.00D-03.
 Max sub-space:   720 roots to seek:   240 dimension of matrix:          240
 *** WARNING: Number of orthogonal guesses is          120
 Iteration     1 Dimension   120 NMult     0 NNew    120
 CISAX will form   120 AO SS matrices at one time.
 NMat=   120 NSing=   120 JSym2X=-1.
 New state      3 was old state      4
 New state      4 was old state      3
 New state      7 was old state      8
 New state      8 was old state      7
 New state     11 was old state     12
 New state     12 was old state     11
 New state     15 was old state     16
 New state     16 was old state     15
 New state     19 was old state     20
 New state     20 was old state     19
 New state     24 was old state     26
 New state     25 was old state     28
 New state     26 was old state     25
 New state     27 was old state     24
 New state     28 was old state     30
 New state     29 was old state     34
 New state     30 was old state     29
 New state     32 was old state     33
 New state     33 was old state     32
 New state     34 was old state     35
 New state     35 was old state     36
 New state     36 was old state     39
 New state     37 was old state     38
 New state     38 was old state     40
 New state     39 was old state     41
 New state     40 was old state     42
 New state     41 was old state     44
 New state     42 was old state     43
 New state     43 was old state     45
 New state     44 was old state     46
 New state     45 was old state     48
 New state     46 was old state     47
 New state     47 was old state     49
 New state     48 was old state     27
 New state     49 was old state     50
 New state     50 was old state     51
 New state     51 was old state     37
 New state     55 was old state     56
 New state     56 was old state     55
 New state     65 was old state     69
 New state     67 was old state     65
 New state     68 was old state     67
 New state     69 was old state     70
 New state     70 was old state     68
 New state     71 was old state     74
 New state     72 was old state     75
 New state     73 was old state     71
 New state     74 was old state     77
 New state     75 was old state     78
 New state     77 was old state     79
 New state     78 was old state     80
 New state     79 was old state     81
 New state     80 was old state     72
 New state     81 was old state     73
 New state     82 was old state     83
 New state     83 was old state     82
 New state     84 was old state     87
 New state     85 was old state     86
 New state     86 was old state     88
 New state     87 was old state     89
 New state     88 was old state     84
 New state     89 was old state     85
 New state     90 was old state     91
 New state     91 was old state     90
 New state     98 was old state     99
 New state     99 was old state    101
 New state    101 was old state     98
 New state    104 was old state    106
 New state    105 was old state    104
 New state    106 was old state    105
 New state    114 was old state    115
 New state    115 was old state    114
 New state    117 was old state    118
 New state    118 was old state    117
 Excitation Energies [eV] at current iteration:
 Root      1 :     0.002025919620753
 Root      2 :     6.895801139389954
 Root      3 :     7.707405384064312
 Root      4 :    10.573557424166810
 Root      5 :    11.515820033955370
 Root      6 :    16.376213138907640
 Root      7 :    18.884667169765540
 Root      8 :    18.957067228991610
 Root      9 :    21.922060691772300
 Root     10 :    24.503597027922660
 Root     11 :    26.740678228026570
 Root     12 :    27.020588646376250
 Root     13 :    27.363148798822640
 Root     14 :    28.828839251429760
 Root     15 :    28.854528692686070
 Root     16 :    28.950533646823490
 Root     17 :    30.205364995355640
 Root     18 :    31.749999230563160
 Root     19 :    32.428315867702440
 Root     20 :    32.449764793130120
 Root     21 :    33.278845845261120
 Root     22 :    34.584186019937680
 Root     23 :    34.725943486458260
 Root     24 :    34.825010952307770
 Root     25 :    34.976277050296330
 Root     26 :    35.116857814739500
 Root     27 :    35.254138378239690
 Root     28 :    35.409780500276280
 Root     29 :    36.152871850937100
 Root     30 :    36.463597127860730
 Root     31 :    36.779451565355250
 Root     32 :    36.870157995706630
 Root     33 :    37.140741666533100
 Root     34 :    38.052674806398540
 Root     35 :    38.079879885799310
 Root     36 :    38.188355664359010
 Root     37 :    38.349815561753040
 Root     38 :    38.593257688887070
 Root     39 :    38.985970237371940
 Root     40 :    40.129202226285490
 Root     41 :    41.261819191995460
 Root     42 :    42.089913498076450
 Root     43 :    42.622714883347160
 Root     44 :    43.696071884418930
 Root     45 :    44.320941562064920
 Root     46 :    44.407488352441090
 Root     47 :    44.962921891086550
 Root     48 :    45.094302244712020
 Root     49 :    45.461850478425580
 Root     50 :    45.833683976587960
 Root     51 :    49.269031603826870
 Root     52 :    52.115182762541980
 Root     53 :    55.152191381478640
 Root     54 :    55.631899109645050
 Root     55 :    56.179128471148090
 Root     56 :    56.350688158691970
 Root     57 :    58.858225704497020
 Root     58 :    59.243080937604350
 Root     59 :    59.546631212961530
 Root     60 :    60.155451612531340
 Root     61 :    63.550642058478190
 Root     62 :    67.307231357776980
 Root     63 :    67.772087326715820
 Root     64 :    68.236728189568780
 Root     65 :    68.729367775404640
 Root     66 :    69.216321351620250
 Root     67 :    69.270014107154810
 Root     68 :    69.285159693403130
 Root     69 :    70.121013256540520
 Root     70 :    72.558690412553290
 Root     71 :    75.347368551450590
 Root     72 :    75.355715509253980
 Root     73 :    76.018264761664800
 Root     74 :    76.147717328520020
 Root     75 :    76.179602560609690
 Root     76 :    76.892125876551720
 Root     77 :    77.214981265734890
 Root     78 :    77.249995273486180
 Root     79 :    80.935726849135430
 Root     80 :    81.945430025068970
 Root     81 :    81.977428463679670
 Root     82 :    83.295131843176450
 Root     83 :    83.299043264638580
 Root     84 :    84.186661654007080
 Root     85 :    84.188573783952660
 Root     86 :    85.068400922034480
 Root     87 :    85.109858711012380
 Root     88 :    86.982746625418320
 Root     89 :    87.635876316946580
 Root     90 :    88.676363173661340
 Root     91 :    88.986058231675840
 Root     92 :    90.318807663623800
 Root     93 :    91.166943147382840
 Root     94 :    91.979194235496680
 Root     95 :    92.364046387635090
 Root     96 :    92.380512763404910
 Root     97 :    93.935118099302360
 Root     98 :    96.160782456158530
 Root     99 :    97.230217201803510
 Root    100 :    97.301599125674190
 Root    101 :    97.636698869988620
 Root    102 :   101.484910208952300
 Root    103 :   101.759765602998400
 Root    104 :   102.495576902322400
 Root    105 :   103.325704647290800
 Root    106 :   104.053196850350500
 Root    107 :   104.444830522676600
 Root    108 :   105.593144239029200
 Root    109 :   105.624271977911400
 Root    110 :   108.232768983247600
 Root    111 :   109.523072443610600
 Root    112 :   110.633672333959500
 Root    113 :   110.668195355582200
 Root    114 :   115.603179601846700
 Root    115 :   115.719967692418200
 Root    116 :   117.392807005291800
 Root    117 :   122.849809708317200
 Root    118 :   123.208082495189100
 Root    119 :   123.832789962684600
 Root    120 :   136.949835664509700
 Convergence achieved for final wavefunctions.
 ***********************************************************************
 Excited states from <AA,BB:AA,BB> singles matrix:
 ***********************************************************************
 
 1PDM for each excited state written to RWF  633
 Ground to excited state transition densities written to RWF  633
 Ground to excited state transition electric dipole moments (Au):
       state          X           Y           Z        Dip. S.      Osc.
         1         0.0000      0.0000     -0.0000      0.0000      0.0000
         2         0.0000     -0.0000      0.0000      0.0000      0.0000
         3        -0.0000      0.0000      0.0000      0.0000      0.0000
         4         0.0000      0.0000     -0.8036      0.6458      0.1673
         5         0.0000     -0.1312     -0.0000      0.0172      0.0049
         6        -0.6657     -0.0000      0.0000      0.4431      0.1778
         7         0.0000      0.0000      0.0000      0.0000      0.0000
         8        -0.0000     -0.0000      0.0000      0.0000      0.0000
         9         0.0000     -0.0000      1.5029      2.2586      1.2130
        10         0.0000     -0.0000     -0.0000      0.0000      0.0000
        11         0.0000     -0.0000     -0.0000      0.0000      0.0000
        12        -0.0000      0.0000      0.0000      0.0000      0.0000
        13        -0.0000     -0.3824     -0.0000      0.1463      0.0980
        14        -0.0000      0.0000     -0.3381      0.1143      0.0807
        15         0.0000      0.0000     -0.0000      0.0000      0.0000
        16         0.0000      0.0000      0.0000      0.0000      0.0000
        17         0.0000     -0.0000     -0.0000      0.0000      0.0000
        18         0.0000      0.0000      0.0000      0.0000      0.0000
        19         0.6705     -0.0000      0.0000      0.4496      0.3572
        20         0.0000      0.6257     -0.0000      0.3915      0.3112
        21         0.0000      0.0000      0.0000      0.0000      0.0000
        22        -0.0000     -0.0000      0.0000      0.0000      0.0000
        23        -0.0000     -0.0000     -0.0000      0.0000      0.0000
        24         0.3372      0.0000     -0.0000      0.1137      0.0970
        25        -0.0000      0.0000     -0.0000      0.0000      0.0000
        26        -0.0000     -0.0000     -0.0000      0.0000      0.0000
        27        -0.0000     -0.0000     -0.0000      0.0000      0.0000
        28        -0.0000      0.3124      0.0000      0.0976      0.0847
        29         0.0000     -0.0000      0.0000      0.0000      0.0000
        30         0.0000      0.0000     -0.1363      0.0186      0.0166
        31        -0.0000      0.5177      0.0000      0.2680      0.2415
        32         0.2526     -0.0000      0.0000      0.0638      0.0576
        33         0.0000     -0.2926     -0.0000      0.0856      0.0779
        34        -0.0000     -0.0000      0.0000      0.0000      0.0000
        35        -0.0000     -0.0000     -0.0888      0.0079      0.0074
        36         0.0000      0.0000     -0.0000      0.0000      0.0000
        37         0.0000     -0.0000      0.0000      0.0000      0.0000
        38        -0.0000      0.0000     -0.0000      0.0000      0.0000
        39         0.0000     -0.0000     -0.4702      0.2211      0.2112
        40         0.0000     -0.0000      0.2855      0.0815      0.0801
        41        -0.0000     -0.0000     -0.0000      0.0000      0.0000
        42         0.0000     -0.0000      0.0000      0.0000      0.0000
        43        -0.0000     -0.0000     -0.0000      0.0000      0.0000
        44         0.0000     -0.0000     -0.5229      0.2734      0.2927
        45        -0.0000     -0.0000     -0.0000      0.0000      0.0000
        46         0.0000      0.0000      0.0000      0.0000      0.0000
        47        -0.0000      0.0000     -0.1662      0.0276      0.0304
        48        -0.0000      0.0000      0.0000      0.0000      0.0000
        49        -0.4478      0.0000      0.0000      0.2006      0.2234
        50        -0.0000     -0.4549     -0.0000      0.2070      0.2324
        51         0.0000      0.0000      0.1611      0.0260      0.0313
        52        -0.0000      0.0000      0.0000      0.0000      0.0000
        53        -0.0000      0.0000     -0.0000      0.0000      0.0000
        54         0.2909     -0.0000      0.0000      0.0846      0.1153
        55         0.0000      0.3074      0.0000      0.0945      0.1300
        56         0.0000      0.0000     -0.1806      0.0326      0.0450
        57         0.0000      0.0000     -0.0000      0.0000      0.0000
        58        -0.0000      0.0000      0.0000      0.0000      0.0000
        59         0.0000      0.0000      0.0000      0.0000      0.0000
        60        -0.0000     -0.0000      0.0000      0.0000      0.0000
        61         0.0000     -0.0000     -0.8847      0.7826      1.2185
        62         0.0000      0.0000      0.2989      0.0893      0.1473
        63        -0.0000     -0.0000     -0.0000      0.0000      0.0000
        64         0.0000     -0.0000      0.0000      0.0000      0.0000
        65         0.0000     -0.0000     -0.0000      0.0000      0.0000
        66        -0.0000      0.0000     -0.0000      0.0000      0.0000
        67         0.0000     -0.0000     -0.0000      0.0000      0.0000
        68        -0.2596      0.0000      0.0000      0.0674      0.1144
        69        -0.0000     -0.2338      0.0000      0.0547      0.0939
        70         0.0000     -0.0000     -0.0000      0.0000      0.0000
        71        -0.0000      0.0376      0.0000      0.0014      0.0026
        72         0.0391      0.0000     -0.0000      0.0015      0.0028
        73         0.0000     -0.0000     -0.0000      0.0000      0.0000
        74        -0.0000     -0.0000     -0.0000      0.0000      0.0000
        75         0.0000     -0.0000      0.0000      0.0000      0.0000
        76        -0.0000      0.0000     -0.0000      0.0000      0.0000
        77         0.0957     -0.0000     -0.0000      0.0092      0.0173
        78        -0.0000     -0.1009      0.0000      0.0102      0.0193
        79        -0.0000     -0.0000      0.0000      0.0000      0.0000
        80        -1.0653     -0.0000     -0.0000      1.1348      2.2783
        81        -0.0000      1.0245      0.0000      1.0496      2.1080
        82         0.0000     -0.0000      0.0066      0.0000      0.0001
        83         0.0000     -0.0000     -0.0000      0.0000      0.0000
        84         0.0000      0.0000      0.0000      0.0000      0.0000
        85         0.0000     -0.0000     -0.0000      0.0000      0.0000
        86        -0.0000     -0.0000     -0.0000      0.0000      0.0000
        87         0.0000      0.0000      0.0007      0.0000      0.0000
        88         0.0000     -0.0000      0.0000      0.0000      0.0000
        89        -0.0000      0.0000      0.0000      0.0000      0.0000
        90         0.2596     -0.0000      0.0000      0.0674      0.1464
        91         0.0000      0.3529     -0.0000      0.1245      0.2714
        92         0.0000      0.0000      0.0000      0.0000      0.0000
        93         0.5432     -0.0000      0.0000      0.2951      0.6590
        94         0.0000      0.5355      0.0000      0.2867      0.6461
        95         0.0000      0.0000     -0.0000      0.0000      0.0000
        96         0.0000     -0.0000     -0.0000      0.0000      0.0000
        97         0.0000      0.0000     -0.0000      0.0000      0.0000
        98        -0.0000      0.0000      0.0189      0.0004      0.0008
        99         0.0000      0.0000      0.0000      0.0000      0.0000
       100         0.0000     -0.0000      0.0000      0.0000      0.0000
       101        -0.0000      0.0000     -0.0000      0.0000      0.0000
       102        -0.0000      0.0000     -0.0000      0.0000      0.0000
       103         0.0000      0.0000     -0.0873      0.0076      0.0190
       104         0.0000      0.0000      0.0000      0.0000      0.0000
       105        -0.0000     -0.0000      0.0000      0.0000      0.0000
       106        -0.0000     -0.0000     -0.3177      0.1009      0.2573
       107         0.0000      0.0000     -0.0000      0.0000      0.0000
       108         0.0000      0.0000     -0.0000      0.0000      0.0000
       109        -0.0000      0.0000     -0.0030      0.0000      0.0000
       110         0.0000      0.2162      0.0000      0.0467      0.1240
       111        -0.1101     -0.0000      0.0000      0.0121      0.0325
       112        -0.0000     -0.0000     -0.0000      0.0000      0.0000
       113         0.0000     -0.1429      0.0000      0.0204      0.0553
       114         0.0000     -0.0000     -0.0000      0.0000      0.0000
       115        -0.0000      0.0000     -0.0000      0.0000      0.0000
       116        -0.0000      0.0000     -0.2747      0.0754      0.2170
       117         0.0000      0.0000      0.0000      0.0000      0.0000
       118         0.0000     -0.0000     -0.0000      0.0000      0.0000
       119        -0.0000     -0.0000     -0.0000      0.0000      0.0000
       120         0.0000     -0.0000     -0.0201      0.0004      0.0014
 Ground to excited state transition velocity dipole moments (Au):
       state          X           Y           Z        Dip. S.      Osc.
         1        -0.0000     -0.0000     -0.0000      0.0000      0.0000
         2        -0.0000      0.0000     -0.0000      0.0000      0.0000
         3         0.0000     -0.0000      0.0000      0.0000      0.0000
         4        -0.0000     -0.0000      0.2807      0.0788      0.1352
         5         0.0000      0.0428      0.0000      0.0018      0.0029
         6         0.4477      0.0000     -0.0000      0.2004      0.2220
         7        -0.0000      0.0000     -0.0000      0.0000      0.0000
         8         0.0000      0.0000     -0.0000      0.0000      0.0000
         9        -0.0000      0.0000     -1.1861      1.4067      1.1641
        10        -0.0000     -0.0000      0.0000      0.0000      0.0000
        11        -0.0000      0.0000      0.0000      0.0000      0.0000
        12         0.0000     -0.0000     -0.0000      0.0000      0.0000
        13        -0.0000      0.3133      0.0000      0.0982      0.0651
        14         0.0000     -0.0000      0.4029      0.1623      0.1021
        15        -0.0000     -0.0000      0.0000      0.0000      0.0000
        16        -0.0000     -0.0000     -0.0000      0.0000      0.0000
        17        -0.0000      0.0000      0.0000      0.0000      0.0000
        18        -0.0000     -0.0000     -0.0000      0.0000      0.0000
        19        -0.6624      0.0000     -0.0000      0.4388      0.2455
        20        -0.0000     -0.6440      0.0000      0.4148      0.2319
        21        -0.0000     -0.0000     -0.0000      0.0000      0.0000
        22         0.0000     -0.0000     -0.0000      0.0000      0.0000
        23         0.0000      0.0000      0.0000      0.0000      0.0000
        24        -0.4392     -0.0000     -0.0000      0.1929      0.1005
        25         0.0000     -0.0000      0.0000      0.0000      0.0000
        26         0.0000      0.0000      0.0000      0.0000      0.0000
        27         0.0000      0.0000      0.0000      0.0000      0.0000
        28         0.0000     -0.4063     -0.0000      0.1651      0.0846
        29        -0.0000      0.0000     -0.0000      0.0000      0.0000
        30         0.0000     -0.0000      0.2229      0.0497      0.0247
        31        -0.0000     -0.6547     -0.0000      0.4287      0.2114
        32        -0.3406      0.0000     -0.0000      0.1160      0.0571
        33        -0.0000      0.3632      0.0000      0.1319      0.0644
        34         0.0000      0.0000     -0.0000      0.0000      0.0000
        35         0.0000     -0.0000      0.0903      0.0082      0.0039
        36        -0.0000     -0.0000      0.0000      0.0000      0.0000
        37        -0.0000      0.0000     -0.0000      0.0000      0.0000
        38         0.0000     -0.0000      0.0000      0.0000      0.0000
        39        -0.0000      0.0000      0.5381      0.2896      0.1348
        40        -0.0000      0.0000     -0.3621      0.1311      0.0593
        41         0.0000      0.0000      0.0000      0.0000      0.0000
        42        -0.0000      0.0000     -0.0000      0.0000      0.0000
        43         0.0000      0.0000      0.0000      0.0000      0.0000
        44        -0.0000      0.0000      0.8716      0.7597      0.3154
        45         0.0000      0.0000      0.0000      0.0000      0.0000
        46        -0.0000     -0.0000     -0.0000      0.0000      0.0000
        47         0.0000     -0.0000      0.3537      0.1251      0.0505
        48         0.0000     -0.0000     -0.0000      0.0000      0.0000
        49         0.7862     -0.0000     -0.0000      0.6182      0.2467
        50         0.0000      0.7946      0.0000      0.6314      0.2499
        51        -0.0000     -0.0000     -0.1528      0.0234      0.0086
        52         0.0000     -0.0000      0.0000      0.0000      0.0000
        53         0.0000     -0.0000      0.0000      0.0000      0.0000
        54        -0.6211      0.0000     -0.0000      0.3857      0.1258
        55        -0.0000     -0.6393     -0.0000      0.4088      0.1320
        56        -0.0000     -0.0000      0.4161      0.1731      0.0557
        57        -0.0000     -0.0000      0.0000      0.0000      0.0000
        58         0.0000     -0.0000     -0.0000      0.0000      0.0000
        59        -0.0000     -0.0000     -0.0000      0.0000      0.0000
        60         0.0000      0.0000     -0.0000      0.0000      0.0000
        61        -0.0000     -0.0000      1.4690      2.1581      0.6160
        62        -0.0000     -0.0000     -0.6611      0.4371      0.1178
        63         0.0000      0.0000      0.0000      0.0000      0.0000
        64        -0.0000      0.0000     -0.0000      0.0000      0.0000
        65        -0.0000      0.0000      0.0000      0.0000      0.0000
        66         0.0000     -0.0000      0.0000      0.0000      0.0000
        67        -0.0000      0.0000      0.0000      0.0000      0.0000
        68         0.6062     -0.0000     -0.0000      0.3675      0.0962
        69         0.0000      0.5575     -0.0000      0.3108      0.0804
        70        -0.0000      0.0000      0.0000      0.0000      0.0000
        71         0.0000     -0.1056     -0.0000      0.0111      0.0027
        72        -0.1115     -0.0000      0.0000      0.0124      0.0030
        73        -0.0000      0.0000     -0.0000      0.0000      0.0000
        74         0.0000      0.0000      0.0000      0.0000      0.0000
        75        -0.0000      0.0000     -0.0000      0.0000      0.0000
        76         0.0000      0.0000      0.0000      0.0000      0.0000
        77        -0.1114      0.0000      0.0000      0.0124      0.0029
        78         0.0000      0.1158     -0.0000      0.0134      0.0031
        79        -0.0000      0.0000     -0.0000      0.0000      0.0000
        80         2.2499      0.0000      0.0000      5.0621      1.1206
        81         0.0000     -2.0949     -0.0000      4.3886      0.9712
        82        -0.0000      0.0000     -0.0055      0.0000      0.0000
        83        -0.0000      0.0000     -0.0000      0.0000      0.0000
        84        -0.0000     -0.0000     -0.0000      0.0000      0.0000
        85        -0.0000      0.0000      0.0000      0.0000      0.0000
        86         0.0000      0.0000      0.0000      0.0000      0.0000
        87        -0.0000     -0.0000      0.0037      0.0000      0.0000
        88        -0.0000      0.0000     -0.0000      0.0000      0.0000
        89         0.0000     -0.0000     -0.0000      0.0000      0.0000
        90        -0.6593      0.0000     -0.0000      0.4347      0.0889
        91        -0.0000     -0.8524     -0.0000      0.7266      0.1481
        92        -0.0000     -0.0000     -0.0000      0.0000      0.0000
        93        -1.4062      0.0000     -0.0000      1.9774      0.3935
        94        -0.0000     -1.3583      0.0000      1.8451      0.3639
        95        -0.0000     -0.0000      0.0000      0.0000      0.0000
        96        -0.0000      0.0000     -0.0000      0.0000      0.0000
        97        -0.0000      0.0000     -0.0000      0.0000      0.0000
        98         0.0000     -0.0000     -0.0951      0.0090      0.0017
        99        -0.0000     -0.0000     -0.0000      0.0000      0.0000
       100        -0.0000      0.0000     -0.0000      0.0000      0.0000
       101         0.0000     -0.0000      0.0000      0.0000      0.0000
       102         0.0000     -0.0000      0.0000      0.0000      0.0000
       103        -0.0000     -0.0000      0.3027      0.0916      0.0163
       104        -0.0000     -0.0000     -0.0000      0.0000      0.0000
       105         0.0000      0.0000     -0.0000      0.0000      0.0000
       106         0.0000      0.0000      1.1532      1.3299      0.2319
       107         0.0000     -0.0000      0.0000      0.0000      0.0000
       108        -0.0000     -0.0000      0.0000      0.0000      0.0000
       109         0.0000     -0.0000      0.0051      0.0000      0.0000
       110        -0.0000     -0.7784      0.0000      0.6059      0.1016
       111         0.3581     -0.0000     -0.0000      0.1282      0.0212
       112         0.0000      0.0000     -0.0000      0.0000      0.0000
       113        -0.0000      0.4726     -0.0000      0.2234      0.0366
       114        -0.0000      0.0000      0.0000      0.0000      0.0000
       115         0.0000      0.0000      0.0000      0.0000      0.0000
       116         0.0000     -0.0000      1.1849      1.4040      0.2170
       117         0.0000     -0.0000     -0.0000      0.0000      0.0000
       118        -0.0000      0.0000      0.0000      0.0000      0.0000
       119        -0.0000      0.0000      0.0000      0.0000      0.0000
       120        -0.0000      0.0000     -0.0443      0.0020      0.0003
 Ground to excited state transition magnetic dipole moments (Au):
       state          X           Y           Z
         1        -0.0000     -0.0000      0.0594
         2        -0.0000      0.0000      0.0000
         3        -0.0000      1.6871      0.0000
         4        -0.0000     -0.0000     -0.0000
         5         0.0000      0.0000      0.0000
         6         0.0000      0.0000     -0.0000
         7         0.0000      0.8090     -0.0000
         8        -0.7590      0.0000      0.0000
         9         0.0000      0.0000      0.0000
        10         1.2212     -0.0000      0.0000
        11         0.0000     -0.0000     -0.0000
        12         0.0000     -0.0000      0.0000
        13        -0.0000     -0.0000      0.0000
        14        -0.0000     -0.0000     -0.0000
        15         0.5408      0.0000      0.0000
        16         0.0000     -0.0370     -0.0000
        17         0.0000      0.0000      0.0000
        18        -0.0000      0.0000     -0.0000
        19        -0.0000     -0.0000     -0.0000
        20         0.0000     -0.0000     -0.0000
        21        -0.0000      0.0000      0.0000
        22         0.0000      0.0000     -0.0000
        23        -0.0000      0.0000     -0.0000
        24        -0.0000      0.0000     -0.0000
        25        -0.0000     -0.0000     -0.0000
        26        -0.0000      0.3630     -0.0000
        27        -0.3859     -0.0000     -0.0000
        28        -0.0000      0.0000     -0.0000
        29        -0.0000      0.0000      0.0000
        30        -0.0000     -0.0000     -0.0000
        31        -0.0000     -0.0000     -0.0000
        32         0.0000     -0.0000     -0.0000
        33        -0.0000     -0.0000      0.0000
        34         0.0000      0.0000     -0.0000
        35         0.0000      0.0000      0.0000
        36         0.0000      0.7040      0.0000
        37         0.0000     -0.0000      0.0000
        38        -0.6854      0.0000     -0.0000
        39        -0.0000      0.0000     -0.0000
        40         0.0000     -0.0000     -0.0000
        41         0.0000      0.0000      0.0000
        42        -0.0000     -0.7442      0.0000
        43         0.7440     -0.0000      0.0000
        44         0.0000     -0.0000     -0.0000
        45        -0.0000      0.4776     -0.0000
        46        -0.4823     -0.0000      0.0000
        47         0.0000     -0.0000     -0.0000
        48         0.0000     -0.0000     -0.0000
        49        -0.0000     -0.0000      0.0000
        50         0.0000      0.0000      0.0000
        51         0.0000      0.0000     -0.0000
        52         0.0000      0.0000     -0.0000
        53         0.0000     -0.0000      0.0000
        54         0.0000      0.0000     -0.0000
        55         0.0000     -0.0000     -0.0000
        56        -0.0000     -0.0000     -0.0000
        57         0.0000      0.0000      0.0000
        58        -0.0000      0.6507     -0.0000
        59        -0.6675     -0.0000     -0.0000
        60        -0.0000     -0.0000     -0.0000
        61        -0.0000     -0.0000     -0.0000
        62         0.0000     -0.0000      0.0000
        63         0.0000     -0.0000     -0.0000
        64         0.0000      0.0000      0.0000
        65         0.0000     -0.0000     -0.0000
        66         1.3832     -0.0000      0.0000
        67         0.0000      1.4882     -0.0000
        68        -0.0000      0.0000      0.0000
        69         0.0000     -0.0000      0.0000
        70         0.0000     -0.0000      0.0000
        71         0.0000     -0.0000     -0.0000
        72        -0.0000     -0.0000      0.0000
        73        -0.0000      0.3607      0.0000
        74         0.0000     -0.0000      0.0000
        75        -0.0000     -0.0000      0.0000
        76        -0.2399     -0.0000     -0.0000
        77        -0.0000      0.0000      0.0000
        78        -0.0000      0.0000      0.0000
        79         0.3688      0.0000     -0.0000
        80        -0.0000      0.0000      0.0000
        81        -0.0000      0.0000     -0.0000
        82         0.0000      0.0000      0.0000
        83         0.0000     -0.0000      0.0000
        84         0.0000      0.0847      0.0000
        85        -0.0885      0.0000     -0.0000
        86        -0.0000     -0.0000     -0.0000
        87        -0.0000     -0.0000      0.0000
        88         0.0000      1.7561     -0.0000
        89         1.8360     -0.0000      0.0000
        90         0.0000     -0.0000     -0.0000
        91        -0.0000      0.0000     -0.0000
        92        -0.0000      0.0000     -0.0000
        93        -0.0000     -0.0000     -0.0000
        94        -0.0000      0.0000     -0.0000
        95         0.0000      0.0000      0.0000
        96         0.0000      0.0000     -0.0000
        97        -0.0000      0.0000      0.0000
        98         0.0000     -0.0000     -0.0000
        99         0.0000      0.0000      0.0000
       100         0.0000      0.0000      0.0000
       101        -0.0000     -0.0000     -0.0000
       102         0.0000      0.0000      0.0000
       103         0.0000      0.0000      0.0000
       104         0.0000      0.0000      0.0000
       105        -0.0000      1.2810      0.0000
       106         0.0000      0.0000      0.0000
       107        -1.2873     -0.0000     -0.0000
       108        -0.0000      0.0000      0.0000
       109         0.0000     -0.0000      0.0000
       110         0.0000      0.0000     -0.0000
       111         0.0000      0.0000      0.0000
       112         0.0000     -0.0000      0.0000
       113        -0.0000      0.0000      0.0000
       114        -0.0000     -0.6188      0.0000
       115         0.6726     -0.0000      0.0000
       116        -0.0000      0.0000     -0.0000
       117        -0.0000     -0.4166     -0.0000
       118        -0.0000      0.0000      0.0000
       119         0.4063     -0.0000      0.0000
       120        -0.0000     -0.0000      0.0000
 Ground to excited state transition velocity quadrupole moments (Au):
       state          XX          YY          ZZ          XY          XZ          YZ
         1        -0.0000      0.0000     -0.0000      0.0002     -0.0000      0.0000
         2         0.0000      0.0000     -0.0000      0.0000      0.0000      0.0000
         3        -0.0000      0.0000     -0.0000     -0.0000      0.2654      0.0000
         4        -0.0000     -0.0000      0.0000      0.0000     -0.0000      0.0000
         5         0.0000      0.0000      0.0000      0.0000      0.0000     -0.0000
         6         0.0000      0.0000      0.0000     -0.0000      0.0000      0.0000
         7         0.0000      0.0000     -0.0000      0.0000     -0.0341     -0.0000
         8         0.0000      0.0000     -0.0000      0.0000     -0.0000      0.0174
         9         0.0000      0.0000      0.0000      0.0000      0.0000     -0.0000
        10         0.0000      0.0000      0.0000     -0.0000     -0.0000     -0.5707
        11         0.0000      0.0000      0.0000     -0.0000      0.0000      0.0000
        12         0.1328      0.2617     -1.9509      0.0000     -0.0000     -0.0000
        13        -0.0000     -0.0000      0.0000     -0.0000      0.0000      0.0000
        14        -0.0000      0.0000     -0.0000     -0.0000     -0.0000     -0.0000
        15        -0.0000      0.0000      0.0000     -0.0000     -0.0000      0.5849
        16         0.0000      0.0000      0.0000     -0.0000      0.8319      0.0000
        17         0.0000      0.0000     -0.0000      0.5926      0.0000      0.0000
        18        -0.2968      0.9158      0.4402     -0.0000      0.0000     -0.0000
        19        -0.0000     -0.0000     -0.0000     -0.0000     -0.0000      0.0000
        20        -0.0000     -0.0000      0.0000     -0.0000     -0.0000     -0.0000
        21        -0.0522     -0.2711     -0.6898      0.0000      0.0000     -0.0000
        22        -0.0000      0.0000      0.0000     -0.4971      0.0000     -0.0000
        23        -0.8209      0.4803      0.1026     -0.0000      0.0000      0.0000
        24        -0.0000      0.0000      0.0000     -0.0000      0.0000      0.0000
        25         0.0000     -0.0000     -0.0000     -0.4932      0.0000      0.0000
        26         0.0000     -0.0000     -0.0000     -0.0000      0.5911      0.0000
        27         0.0000     -0.0000     -0.0000      0.0000     -0.0000      0.4926
        28         0.0000     -0.0000     -0.0000     -0.0000      0.0000      0.0000
        29        -0.5653     -0.7853      2.1335      0.0000      0.0000      0.0000
        30         0.0000     -0.0000      0.0000      0.0000     -0.0000     -0.0000
        31        -0.0000     -0.0000      0.0000      0.0000     -0.0000      0.0000
        32         0.0000      0.0000      0.0000     -0.0000     -0.0000     -0.0000
        33         0.0000      0.0000     -0.0000     -0.0000     -0.0000      0.0000
        34        -0.0000     -0.0000      0.0000     -0.0000      0.0000     -0.0000
        35         0.0000     -0.0000      0.0000      0.0000      0.0000      0.0000
        36        -0.0000     -0.0000     -0.0000      0.0000      1.3647     -0.0000
        37        -0.0000     -0.0000      0.0000      0.0000     -0.0000     -0.0000
        38         0.0000     -0.0000     -0.0000      0.0000      0.0000      1.3625
        39         0.0000     -0.0000      0.0000     -0.0000      0.0000      0.0000
        40         0.0000     -0.0000     -0.0000     -0.0000     -0.0000     -0.0000
        41        -0.6135     -0.8704     -1.2004     -0.0000      0.0000     -0.0000
        42        -0.0000     -0.0000     -0.0000      0.0000     -0.6024      0.0000
        43         0.0000      0.0000      0.0000     -0.0000     -0.0000     -0.6283
        44         0.0000      0.0000      0.0000     -0.0000     -0.0000     -0.0000
        45         0.0000      0.0000      0.0000     -0.0000      0.9186      0.0000
        46         0.0000      0.0000      0.0000     -0.0000     -0.0000      0.9755
        47        -0.0000     -0.0000     -0.0000     -0.0000      0.0000     -0.0000
        48         1.0866      1.3670      3.7708     -0.0000      0.0000     -0.0000
        49        -0.0000     -0.0000     -0.0000     -0.0000     -0.0000      0.0000
        50         0.0000      0.0000      0.0000      0.0000     -0.0000      0.0000
        51        -0.0000     -0.0000     -0.0000     -0.0000      0.0000     -0.0000
        52         0.7369      0.7818     -0.4028     -0.0000      0.0000     -0.0000
        53        -1.8053     -1.9556     -1.2675      0.0000     -0.0000     -0.0000
        54        -0.0000     -0.0000     -0.0000     -0.0000      0.0000     -0.0000
        55         0.0000      0.0000      0.0000     -0.0000     -0.0000     -0.0000
        56         0.0000      0.0000      0.0000     -0.0000     -0.0000      0.0000
        57        -1.3628     -1.4530      0.8432      0.0000      0.0000     -0.0000
        58         0.0000      0.0000     -0.0000     -0.0000      0.8666      0.0000
        59        -0.0000     -0.0000      0.0000      0.0000     -0.0000      0.8873
        60        -0.0000     -0.0000      0.0000      0.0000     -0.0000      0.0000
        61         0.0000      0.0000     -0.0000     -0.0000     -0.0000      0.0000
        62        -0.0000     -0.0000      0.0000      0.0000     -0.0000      0.0000
        63         0.0000      0.0000      0.0000      0.0299     -0.0000     -0.0000
        64         0.1054      0.0051      0.2936     -0.0000      0.0000     -0.0000
        65         0.0000     -0.0000     -0.0000      0.0426      0.0000     -0.0000
        66        -0.0000     -0.0000     -0.0000      0.0000     -0.0000     -0.8194
        67        -0.0000      0.0000     -0.0000      0.0000      0.9481     -0.0000
        68         0.0000      0.0000      0.0000      0.0000      0.0000      0.0000
        69         0.0000     -0.0000     -0.0000      0.0000     -0.0000     -0.0000
        70         0.3355      0.3814      3.2158      0.0000     -0.0000     -0.0000
        71         0.0000      0.0000      0.0000      0.0000     -0.0000     -0.0000
        72        -0.0000     -0.0000     -0.0000      0.0000     -0.0000      0.0000
        73         0.0000     -0.0000     -0.0000      0.0000      1.4358      0.0000
        74        -0.0000      0.0000      0.0000      0.3043     -0.0000      0.0000
        75         0.3098     -0.3063     -0.1787      0.0000     -0.0000      0.0000
        76        -0.0000      0.0000      0.0000     -0.0000     -0.0000      1.2885
        77        -0.0000      0.0000      0.0000      0.0000      0.0000      0.0000
        78        -0.0000      0.0000     -0.0000     -0.0000      0.0000      0.0000
        79        -0.0000      0.0000     -0.0000     -0.0000      0.0000     -0.5262
        80         0.0000     -0.0000      0.0000      0.0000      0.0000      0.0000
        81         0.0000     -0.0000      0.0000      0.0000      0.0000      0.0000
        82        -0.0000      0.0000      0.0000      0.0000      0.0000     -0.0000
        83        -0.0000      0.0000     -0.0000     -0.0000     -0.0000     -0.0000
        84        -0.0000      0.0000     -0.0000      0.0000      0.0804     -0.0000
        85         0.0000      0.0000     -0.0000      0.0000      0.0000      0.0863
        86         0.0000     -0.0000      0.0000     -0.0000     -0.0000      0.0000
        87        -0.0000     -0.0000      0.0000      0.0000     -0.0000      0.0000
        88        -0.0000     -0.0000      0.0000     -0.0000      2.2366     -0.0000
        89         0.0000     -0.0000     -0.0000     -0.0000     -0.0000     -2.3548
        90         0.0000      0.0000     -0.0000     -0.0000     -0.0000     -0.0000
        91         0.0000      0.0000     -0.0000      0.0000      0.0000      0.0000
        92        -0.2027     -0.0800      2.3392     -0.0000      0.0000      0.0000
        93        -0.0000     -0.0000      0.0000     -0.0000     -0.0000      0.0000
        94         0.0000     -0.0000      0.0000     -0.0000      0.0000      0.0000
        95         0.0000     -0.0000      0.0000      0.9616      0.0000     -0.0000
        96         0.9766     -0.9587      0.0197     -0.0000      0.0000     -0.0000
        97         0.0000     -0.0000     -0.0000     -0.1758      0.0000      0.0000
        98         0.0000     -0.0000      0.0000     -0.0000     -0.0000     -0.0000
        99         1.0417     -0.6480     -2.0109      0.0000      0.0000     -0.0000
       100        -0.0000      0.0000      0.0000      1.0552      0.0000      0.0000
       101         0.2735     -1.0055      4.0035     -0.0000     -0.0000     -0.0000
       102         0.0000      0.0000     -0.0000     -0.0000      0.0000     -0.0000
       103         0.0000      0.0000     -0.0000      0.0000      0.0000     -0.0000
       104        -0.0000      0.0000     -0.0000      0.0000      0.0000     -0.0000
       105        -0.0000      0.0000     -0.0000      0.0000      2.1248      0.0000
       106        -0.0000      0.0000     -0.0000     -0.0000      0.0000     -0.0000
       107         0.0000     -0.0000     -0.0000      0.0000     -0.0000      2.1449
       108        -0.0000      0.0000      0.0000     -0.0000      0.0000      0.0000
       109        -0.0000      0.0000      0.0000      0.0000     -0.0000     -0.0000
       110         0.0000     -0.0000      0.0000     -0.0000      0.0000     -0.0000
       111         0.0000      0.0000      0.0000      0.0000      0.0000     -0.0000
       112        -0.0807     -0.1341     -1.6223      0.0000     -0.0000     -0.0000
       113         0.0000      0.0000      0.0000      0.0000      0.0000      0.0000
       114         0.0000      0.0000     -0.0000      0.0000     -0.9130      0.0000
       115         0.0000      0.0000     -0.0000      0.0000     -0.0000     -0.9743
       116         0.0000      0.0000     -0.0000     -0.0000      0.0000      0.0000
       117        -0.0000     -0.0000      0.0000     -0.0000     -0.2647      0.0000
       118        -0.2712     -0.3179      2.0503      0.0000      0.0000      0.0000
       119        -0.0000     -0.0000      0.0000     -0.0000     -0.0000     -0.2639
       120        -0.0000      0.0000     -0.0000      0.0000     -0.0000     -0.0000
 <0|del|b> * <b|rxdel|0> + <0|del|b> * <b|delr+rdel|0>
 Rotatory Strengths (R) in cgs (10**-40 erg-esu-cm/Gauss)
       state          XX          YY          ZZ    R(velocity)    E-M Angle
         1        -0.0007     -0.0007      0.0000     -0.0005       90.00
         2        -0.0000      0.0000      0.0000      0.0000       90.00
         3        -0.0000      0.0000     -0.0000     -0.0000       90.00
         4         0.0000     -0.0000      0.0000     -0.0000       90.00
         5         0.0000     -0.0000      0.0000      0.0000       90.00
         6         0.0000      0.0000      0.0000      0.0000       90.00
         7         0.0000     -0.0000      0.0000      0.0000       90.00
         8         0.0000     -0.0000     -0.0000     -0.0000       90.00
         9        -0.0000      0.0000      0.0000     -0.0000       90.00
        10         0.0000     -0.0000     -0.0000     -0.0000       90.00
        11        -0.0000     -0.0000     -0.0000     -0.0000       90.00
        12         0.0000      0.0000      0.0000      0.0000       90.00
        13        -0.0000      0.0000     -0.0000     -0.0000       90.00
        14        -0.0000      0.0000      0.0000     -0.0000       90.00
        15        -0.0000     -0.0000      0.0000     -0.0000       90.00
        16         0.0000     -0.0000     -0.0000      0.0000       90.00
        17         0.0000     -0.0000      0.0000      0.0000       90.00
        18        -0.0000      0.0000     -0.0000      0.0000       90.00
        19         0.0000     -0.0000      0.0000      0.0000       90.00
        20        -0.0000      0.0000      0.0000      0.0000       90.00
        21         0.0000      0.0000     -0.0000      0.0000       90.00
        22         0.0000     -0.0000      0.0000      0.0000       90.00
        23        -0.0000     -0.0000     -0.0000     -0.0000       90.00
        24         0.0000     -0.0000      0.0000      0.0000       90.00
        25        -0.0000      0.0000     -0.0000     -0.0000       90.00
        26        -0.0000      0.0000      0.0000      0.0000       90.00
        27         0.0000      0.0000     -0.0000     -0.0000       90.00
        28         0.0000      0.0000     -0.0000     -0.0000       90.00
        29        -0.0000     -0.0000      0.0000      0.0000       90.00
        30         0.0000     -0.0000      0.0000     -0.0000       90.00
        31        -0.0000     -0.0000      0.0000      0.0000       90.00
        32         0.0000      0.0000     -0.0000     -0.0000       90.00
        33        -0.0000     -0.0000     -0.0000     -0.0000       90.00
        34        -0.0000     -0.0000      0.0000      0.0000       90.00
        35         0.0000     -0.0000     -0.0000      0.0000       90.00
        36         0.0000      0.0000     -0.0000     -0.0000       90.00
        37         0.0000      0.0000     -0.0000     -0.0000       90.00
        38         0.0000      0.0000     -0.0000     -0.0000       90.00
        39        -0.0000      0.0000      0.0000     -0.0000       90.00
        40         0.0000     -0.0000     -0.0000      0.0000       90.00
        41        -0.0000     -0.0000      0.0000      0.0000       90.00
        42        -0.0000      0.0000     -0.0000     -0.0000       90.00
        43        -0.0000      0.0000      0.0000      0.0000       90.00
        44        -0.0000      0.0000     -0.0000     -0.0000       90.00
        45        -0.0000      0.0000      0.0000      0.0000       90.00
        46        -0.0000     -0.0000      0.0000      0.0000       90.00
        47        -0.0000      0.0000      0.0000     -0.0000       90.00
        48         0.0000     -0.0000      0.0000      0.0000       90.00
        49        -0.0000      0.0000     -0.0000     -0.0000       90.00
        50         0.0000      0.0000      0.0000      0.0000       90.00
        51         0.0000     -0.0000     -0.0000      0.0000       90.00
        52         0.0000     -0.0000     -0.0000     -0.0000       90.00
        53        -0.0000     -0.0000      0.0000      0.0000       90.00
        54        -0.0000      0.0000     -0.0000     -0.0000       90.00
        55        -0.0000      0.0000      0.0000      0.0000       90.00
        56        -0.0000      0.0000      0.0000     -0.0000       90.00
        57         0.0000      0.0000     -0.0000     -0.0000       90.00
        58         0.0000      0.0000     -0.0000     -0.0000       90.00
        59        -0.0000     -0.0000      0.0000      0.0000       90.00
        60         0.0000      0.0000     -0.0000     -0.0000       90.00
        61        -0.0000      0.0000      0.0000     -0.0000       90.00
        62        -0.0000      0.0000     -0.0000     -0.0000       90.00
        63         0.0000     -0.0000     -0.0000     -0.0000       90.00
        64         0.0000     -0.0000     -0.0000     -0.0000       90.00
        65         0.0000     -0.0000     -0.0000     -0.0000       90.00
        66         0.0000      0.0000      0.0000      0.0000       90.00
        67         0.0000     -0.0000      0.0000      0.0000       90.00
        68        -0.0000     -0.0000     -0.0000     -0.0000       90.00
        69        -0.0000      0.0000     -0.0000     -0.0000       90.00
        70        -0.0000      0.0000     -0.0000     -0.0000       90.00
        71        -0.0000     -0.0000      0.0000      0.0000       90.00
        72        -0.0000     -0.0000      0.0000      0.0000       90.00
        73        -0.0000      0.0000      0.0000      0.0000       90.00
        74         0.0000     -0.0000     -0.0000      0.0000       90.00
        75         0.0000     -0.0000     -0.0000     -0.0000       90.00
        76        -0.0000      0.0000     -0.0000     -0.0000       90.00
        77        -0.0000     -0.0000      0.0000      0.0000       90.00
        78        -0.0000      0.0000      0.0000      0.0000       90.00
        79        -0.0000      0.0000     -0.0000     -0.0000       90.00
        80        -0.0000      0.0000     -0.0000     -0.0000       90.00
        81         0.0000      0.0000     -0.0000     -0.0000       90.00
        82        -0.0000      0.0000      0.0000     -0.0000       90.00
        83         0.0000      0.0000     -0.0000     -0.0000       90.00
        84        -0.0000     -0.0000     -0.0000     -0.0000       90.00
        85         0.0000      0.0000      0.0000      0.0000       90.00
        86         0.0000      0.0000     -0.0000     -0.0000       90.00
        87         0.0000     -0.0000      0.0000      0.0000       90.00
        88        -0.0000      0.0000      0.0000      0.0000       90.00
        89        -0.0000     -0.0000      0.0000      0.0000       90.00
        90         0.0000      0.0000     -0.0000     -0.0000       90.00
        91         0.0000     -0.0000     -0.0000     -0.0000       90.00
        92         0.0000      0.0000     -0.0000     -0.0000       90.00
        93         0.0000      0.0000      0.0000      0.0000       90.00
        94         0.0000     -0.0000     -0.0000     -0.0000       90.00
        95         0.0000     -0.0000     -0.0000      0.0000       90.00
        96        -0.0000     -0.0000      0.0000      0.0000       90.00
        97         0.0000     -0.0000      0.0000     -0.0000       90.00
        98         0.0000     -0.0000      0.0000      0.0000       90.00
        99        -0.0000      0.0000     -0.0000     -0.0000       90.00
       100        -0.0000      0.0000      0.0000     -0.0000       90.00
       101        -0.0000      0.0000      0.0000      0.0000       90.00
       102         0.0000     -0.0000     -0.0000     -0.0000       90.00
       103         0.0000     -0.0000     -0.0000      0.0000       90.00
       104         0.0000      0.0000     -0.0000     -0.0000       90.00
       105        -0.0000      0.0000      0.0000      0.0000       90.00
       106        -0.0000      0.0000      0.0000      0.0000       90.00
       107        -0.0000      0.0000     -0.0000     -0.0000       90.00
       108        -0.0000      0.0000      0.0000      0.0000       90.00
       109         0.0000     -0.0000      0.0000      0.0000       90.00
       110         0.0000      0.0000     -0.0000     -0.0000       90.00
       111        -0.0000     -0.0000      0.0000      0.0000       90.00
       112        -0.0000     -0.0000     -0.0000     -0.0000       90.00
       113        -0.0000     -0.0000      0.0000      0.0000       90.00
       114         0.0000     -0.0000     -0.0000     -0.0000       90.00
       115         0.0000     -0.0000      0.0000      0.0000       90.00
       116        -0.0000      0.0000     -0.0000     -0.0000       90.00
       117         0.0000     -0.0000      0.0000      0.0000       90.00
       118         0.0000     -0.0000      0.0000      0.0000       90.00
       119        -0.0000     -0.0000     -0.0000     -0.0000       90.00
       120        -0.0000      0.0000     -0.0000     -0.0000       90.00
 1/2[<0|r|b>*<b|rxdel|0> + (<0|rxdel|b>*<b|r|0>)*]
 Rotatory Strengths (R) in cgs (10**-40 erg-esu-cm/Gauss)
       state          XX          YY          ZZ     R(length)
         1         0.0000      0.0000      0.0000      0.0000
         2         0.0000      0.0000     -0.0000      0.0000
         3        -0.0000     -0.0000     -0.0000     -0.0000
         4         0.0000      0.0000     -0.0000     -0.0000
         5        -0.0000      0.0000      0.0000      0.0000
         6         0.0000      0.0000      0.0000      0.0000
         7        -0.0000     -0.0000      0.0000     -0.0000
         8        -0.0000      0.0000     -0.0000     -0.0000
         9        -0.0000      0.0000     -0.0000     -0.0000
        10        -0.0000     -0.0000      0.0000     -0.0000
        11        -0.0000     -0.0000     -0.0000     -0.0000
        12         0.0000      0.0000     -0.0000      0.0000
        13        -0.0000     -0.0000      0.0000     -0.0000
        14        -0.0000      0.0000     -0.0000     -0.0000
        15        -0.0000     -0.0000      0.0000     -0.0000
        16        -0.0000      0.0000      0.0000      0.0000
        17        -0.0000      0.0000      0.0000      0.0000
        18         0.0000     -0.0000      0.0000      0.0000
        19         0.0000     -0.0000      0.0000      0.0000
        20        -0.0000      0.0000     -0.0000      0.0000
        21         0.0000     -0.0000     -0.0000      0.0000
        22         0.0000      0.0000      0.0000      0.0000
        23        -0.0000      0.0000     -0.0000     -0.0000
        24         0.0000     -0.0000     -0.0000      0.0000
        25        -0.0000      0.0000     -0.0000     -0.0000
        26        -0.0000      0.0000     -0.0000      0.0000
        27        -0.0000     -0.0000     -0.0000     -0.0000
        28        -0.0000     -0.0000      0.0000     -0.0000
        29         0.0000      0.0000     -0.0000      0.0000
        30         0.0000      0.0000     -0.0000     -0.0000
        31        -0.0000      0.0000      0.0000      0.0000
        32        -0.0000     -0.0000      0.0000     -0.0000
        33         0.0000     -0.0000      0.0000     -0.0000
        34         0.0000      0.0000      0.0000      0.0000
        35         0.0000      0.0000      0.0000      0.0000
        36        -0.0000     -0.0000      0.0000     -0.0000
        37        -0.0000     -0.0000     -0.0000     -0.0000
        38        -0.0000     -0.0000     -0.0000     -0.0000
        39         0.0000      0.0000     -0.0000     -0.0000
        40        -0.0000     -0.0000      0.0000      0.0000
        41         0.0000      0.0000      0.0000      0.0000
        42         0.0000     -0.0000     -0.0000     -0.0000
        43         0.0000     -0.0000      0.0000      0.0000
        44        -0.0000     -0.0000     -0.0000     -0.0000
        45        -0.0000      0.0000     -0.0000      0.0000
        46         0.0000      0.0000     -0.0000      0.0000
        47         0.0000      0.0000     -0.0000     -0.0000
        48         0.0000      0.0000      0.0000      0.0000
        49        -0.0000      0.0000     -0.0000     -0.0000
        50         0.0000      0.0000      0.0000      0.0000
        51        -0.0000     -0.0000      0.0000      0.0000
        52         0.0000     -0.0000      0.0000     -0.0000
        53         0.0000      0.0000      0.0000      0.0000
        54        -0.0000      0.0000      0.0000     -0.0000
        55        -0.0000      0.0000      0.0000      0.0000
        56         0.0000      0.0000     -0.0000     -0.0000
        57        -0.0000     -0.0000      0.0000     -0.0000
        58        -0.0000     -0.0000      0.0000     -0.0000
        59         0.0000      0.0000      0.0000      0.0000
        60        -0.0000     -0.0000      0.0000     -0.0000
        61         0.0000     -0.0000     -0.0000     -0.0000
        62        -0.0000      0.0000     -0.0000     -0.0000
        63         0.0000     -0.0000     -0.0000     -0.0000
        64        -0.0000      0.0000     -0.0000     -0.0000
        65        -0.0000     -0.0000     -0.0000     -0.0000
        66         0.0000      0.0000      0.0000      0.0000
        67        -0.0000      0.0000     -0.0000      0.0000
        68        -0.0000     -0.0000     -0.0000     -0.0000
        69         0.0000     -0.0000     -0.0000     -0.0000
        70        -0.0000     -0.0000      0.0000     -0.0000
        71         0.0000      0.0000      0.0000      0.0000
        72         0.0000      0.0000      0.0000      0.0000
        73         0.0000      0.0000      0.0000      0.0000
        74         0.0000     -0.0000      0.0000      0.0000
        75         0.0000     -0.0000     -0.0000     -0.0000
        76        -0.0000      0.0000     -0.0000     -0.0000
        77         0.0000      0.0000      0.0000      0.0000
        78        -0.0000      0.0000     -0.0000      0.0000
        79         0.0000      0.0000      0.0000      0.0000
        80        -0.0000      0.0000      0.0000     -0.0000
        81        -0.0000     -0.0000      0.0000     -0.0000
        82        -0.0000      0.0000     -0.0000     -0.0000
        83        -0.0000     -0.0000      0.0000     -0.0000
        84        -0.0000     -0.0000     -0.0000     -0.0000
        85         0.0000      0.0000     -0.0000      0.0000
        86        -0.0000     -0.0000     -0.0000     -0.0000
        87         0.0000      0.0000     -0.0000     -0.0000
        88        -0.0000      0.0000      0.0000      0.0000
        89         0.0000      0.0000     -0.0000      0.0000
        90        -0.0000     -0.0000      0.0000     -0.0000
        91         0.0000     -0.0000     -0.0000     -0.0000
        92         0.0000     -0.0000      0.0000     -0.0000
        93         0.0000     -0.0000      0.0000      0.0000
        94         0.0000     -0.0000      0.0000     -0.0000
        95        -0.0000     -0.0000      0.0000      0.0000
        96        -0.0000      0.0000     -0.0000      0.0000
        97         0.0000     -0.0000      0.0000      0.0000
        98         0.0000      0.0000      0.0000      0.0000
        99        -0.0000     -0.0000     -0.0000     -0.0000
       100        -0.0000      0.0000     -0.0000     -0.0000
       101        -0.0000      0.0000     -0.0000      0.0000
       102         0.0000     -0.0000      0.0000     -0.0000
       103        -0.0000     -0.0000      0.0000      0.0000
       104        -0.0000     -0.0000     -0.0000     -0.0000
       105        -0.0000      0.0000     -0.0000      0.0000
       106         0.0000      0.0000      0.0000      0.0000
       107         0.0000      0.0000     -0.0000      0.0000
       108         0.0000     -0.0000      0.0000      0.0000
       109         0.0000      0.0000      0.0000      0.0000
       110        -0.0000     -0.0000      0.0000     -0.0000
       111         0.0000      0.0000     -0.0000      0.0000
       112         0.0000     -0.0000      0.0000     -0.0000
       113         0.0000      0.0000     -0.0000      0.0000
       114         0.0000     -0.0000      0.0000     -0.0000
       115         0.0000      0.0000      0.0000      0.0000
       116        -0.0000     -0.0000     -0.0000     -0.0000
       117         0.0000      0.0000      0.0000      0.0000
       118         0.0000      0.0000      0.0000      0.0000
       119         0.0000     -0.0000      0.0000      0.0000
       120         0.0000     -0.0000      0.0000      0.0000
  1/2[<0|del|b>*<b|r|0> + (<0|r|b>*<b|del|0>)*] (Au)
       state          X           Y           Z        Dip. S.   Osc.(frdel)
         1        -0.0000     -0.0000      0.0000     -0.0000     -0.0000
         2        -0.0000     -0.0000     -0.0000      0.0000      0.0000
         3        -0.0000     -0.0000      0.0000      0.0000      0.0000
         4        -0.0000     -0.0000     -0.2256      0.2256      0.1504
         5         0.0000     -0.0056     -0.0000      0.0056      0.0037
         6        -0.2980     -0.0000     -0.0000      0.2980      0.1987
         7        -0.0000      0.0000     -0.0000      0.0000      0.0000
         8        -0.0000     -0.0000     -0.0000      0.0000      0.0000
         9        -0.0000     -0.0000     -1.7825      1.7825      1.1883
        10        -0.0000      0.0000     -0.0000     -0.0000     -0.0000
        11        -0.0000     -0.0000     -0.0000      0.0000      0.0000
[...]
     11   0.000000D+00  0.000000D+00  0.108657D+01  0.000000D+00  0.000000D+00
     12   0.000000D+00  0.000000D+00  0.136699D+01  0.000000D+00  0.000000D+00
     13   0.000000D+00  0.000000D+00  0.377082D+01  0.000000D+00  0.000000D+00
     14   0.000000D+00  0.000000D+00  0.000000D+00  0.000000D+00  0.000000D+00
     15   0.000000D+00  0.000000D+00  0.000000D+00  0.000000D+00  0.000000D+00
     16   0.975475D+00  0.000000D+00  0.000000D+00  0.000000D+00  0.000000D+00
                51            52            53            54            55 
      1  -0.148282D+03 -0.148177D+03 -0.148066D+03 -0.148048D+03 -0.148028D+03
      2   0.000000D+00  0.000000D+00  0.000000D+00  0.290890D+00  0.000000D+00
      3   0.000000D+00  0.000000D+00  0.000000D+00  0.000000D+00  0.307365D+00
      4   0.161119D+00  0.000000D+00  0.000000D+00  0.000000D+00  0.000000D+00
      5   0.000000D+00  0.000000D+00  0.000000D+00 -0.621078D+00  0.000000D+00
      6   0.000000D+00  0.000000D+00  0.000000D+00  0.000000D+00 -0.639349D+00
      7  -0.152833D+00  0.000000D+00  0.000000D+00  0.000000D+00  0.000000D+00
      8   0.000000D+00  0.000000D+00  0.000000D+00  0.000000D+00  0.000000D+00
      9   0.000000D+00  0.000000D+00  0.000000D+00  0.000000D+00  0.000000D+00
     10   0.000000D+00  0.000000D+00  0.000000D+00  0.000000D+00  0.000000D+00
     11   0.000000D+00  0.736929D+00 -0.180526D+01  0.000000D+00  0.000000D+00
     12   0.000000D+00  0.781783D+00 -0.195562D+01  0.000000D+00  0.000000D+00
     13   0.000000D+00 -0.402760D+00 -0.126747D+01  0.000000D+00  0.000000D+00
     14   0.000000D+00  0.000000D+00  0.000000D+00  0.000000D+00  0.000000D+00
     15   0.000000D+00  0.000000D+00  0.000000D+00  0.000000D+00  0.000000D+00
     16   0.000000D+00  0.000000D+00  0.000000D+00  0.000000D+00  0.000000D+00
                56            57            58            59            60 
      1  -0.148022D+03 -0.147930D+03 -0.147915D+03 -0.147904D+03 -0.147882D+03
      2   0.000000D+00  0.000000D+00  0.000000D+00  0.000000D+00  0.000000D+00
      3   0.000000D+00  0.000000D+00  0.000000D+00  0.000000D+00  0.000000D+00
      4  -0.180562D+00  0.000000D+00  0.000000D+00  0.000000D+00  0.000000D+00
      5   0.000000D+00  0.000000D+00  0.000000D+00  0.000000D+00  0.000000D+00
      6   0.000000D+00  0.000000D+00  0.000000D+00  0.000000D+00  0.000000D+00
      7   0.416070D+00  0.000000D+00  0.000000D+00  0.000000D+00  0.000000D+00
      8   0.000000D+00  0.000000D+00  0.000000D+00 -0.667528D+00  0.000000D+00
      9   0.000000D+00  0.000000D+00  0.650711D+00  0.000000D+00  0.000000D+00
     10   0.000000D+00  0.000000D+00  0.000000D+00  0.000000D+00  0.000000D+00
     11   0.000000D+00 -0.136278D+01  0.000000D+00  0.000000D+00  0.000000D+00
     12   0.000000D+00 -0.145303D+01  0.000000D+00  0.000000D+00  0.000000D+00
     13   0.000000D+00  0.843222D+00  0.000000D+00  0.000000D+00  0.000000D+00
     14   0.000000D+00  0.000000D+00  0.000000D+00  0.000000D+00  0.000000D+00
     15   0.000000D+00  0.000000D+00  0.866611D+00  0.000000D+00  0.000000D+00
     16   0.000000D+00  0.000000D+00  0.000000D+00  0.887260D+00  0.000000D+00
                61            62            63            64            65 
      1  -0.147757D+03 -0.147619D+03 -0.147602D+03 -0.147585D+03 -0.147567D+03
      2   0.000000D+00  0.000000D+00  0.000000D+00  0.000000D+00  0.000000D+00
      3   0.000000D+00  0.000000D+00  0.000000D+00  0.000000D+00  0.000000D+00
      4  -0.884652D+00  0.298900D+00  0.000000D+00  0.000000D+00  0.000000D+00
      5   0.000000D+00  0.000000D+00  0.000000D+00  0.000000D+00  0.000000D+00
      6   0.000000D+00  0.000000D+00  0.000000D+00  0.000000D+00  0.000000D+00
      7   0.146905D+01 -0.661112D+00  0.000000D+00  0.000000D+00  0.000000D+00
      8   0.000000D+00  0.000000D+00  0.000000D+00  0.000000D+00  0.000000D+00
      9   0.000000D+00  0.000000D+00  0.000000D+00  0.000000D+00  0.000000D+00
     10   0.000000D+00  0.000000D+00  0.000000D+00  0.000000D+00  0.000000D+00
     11   0.000000D+00  0.000000D+00  0.000000D+00  0.105379D+00  0.000000D+00
     12   0.000000D+00  0.000000D+00  0.000000D+00  0.507135D-02  0.000000D+00
     13   0.000000D+00  0.000000D+00  0.000000D+00  0.293641D+00  0.000000D+00
     14   0.000000D+00  0.000000D+00  0.299403D-01  0.000000D+00  0.425999D-01
     15   0.000000D+00  0.000000D+00  0.000000D+00  0.000000D+00  0.000000D+00
     16   0.000000D+00  0.000000D+00  0.000000D+00  0.000000D+00  0.000000D+00
                66            67            68            69            70 
      1  -0.147549D+03 -0.147547D+03 -0.147546D+03 -0.147516D+03 -0.147426D+03
      2   0.000000D+00  0.000000D+00 -0.259614D+00  0.000000D+00  0.000000D+00
      3   0.000000D+00  0.000000D+00  0.000000D+00 -0.233774D+00  0.000000D+00
      4   0.000000D+00  0.000000D+00  0.000000D+00  0.000000D+00  0.000000D+00
      5   0.000000D+00  0.000000D+00  0.606184D+00  0.000000D+00  0.000000D+00
      6   0.000000D+00  0.000000D+00  0.000000D+00  0.557483D+00  0.000000D+00
      7   0.000000D+00  0.000000D+00  0.000000D+00  0.000000D+00  0.000000D+00
      8   0.138319D+01  0.000000D+00  0.000000D+00  0.000000D+00  0.000000D+00
      9   0.000000D+00  0.148815D+01  0.000000D+00  0.000000D+00  0.000000D+00
     10   0.000000D+00  0.000000D+00  0.000000D+00  0.000000D+00  0.000000D+00
     11   0.000000D+00  0.000000D+00  0.000000D+00  0.000000D+00  0.335482D+00
     12   0.000000D+00  0.000000D+00  0.000000D+00  0.000000D+00  0.381441D+00
     13   0.000000D+00  0.000000D+00  0.000000D+00  0.000000D+00  0.321583D+01
     14   0.000000D+00  0.000000D+00  0.000000D+00  0.000000D+00  0.000000D+00
     15   0.000000D+00  0.948128D+00  0.000000D+00  0.000000D+00  0.000000D+00
     16  -0.819401D+00  0.000000D+00  0.000000D+00  0.000000D+00  0.000000D+00
                71            72            73            74            75 
      1  -0.147324D+03 -0.147323D+03 -0.147299D+03 -0.147294D+03 -0.147293D+03
      2   0.000000D+00  0.391059D-01  0.000000D+00  0.000000D+00  0.000000D+00
      3   0.376238D-01  0.000000D+00  0.000000D+00  0.000000D+00  0.000000D+00
      4   0.000000D+00  0.000000D+00  0.000000D+00  0.000000D+00  0.000000D+00
      5   0.000000D+00 -0.111471D+00  0.000000D+00  0.000000D+00  0.000000D+00
      6  -0.105570D+00  0.000000D+00  0.000000D+00  0.000000D+00  0.000000D+00
      7   0.000000D+00  0.000000D+00  0.000000D+00  0.000000D+00  0.000000D+00
      8   0.000000D+00  0.000000D+00  0.000000D+00  0.000000D+00  0.000000D+00
      9   0.000000D+00  0.000000D+00  0.360694D+00  0.000000D+00  0.000000D+00
     10   0.000000D+00  0.000000D+00  0.000000D+00  0.000000D+00  0.000000D+00
     11   0.000000D+00  0.000000D+00  0.000000D+00  0.000000D+00  0.309764D+00
     12   0.000000D+00  0.000000D+00  0.000000D+00  0.000000D+00 -0.306255D+00
     13   0.000000D+00  0.000000D+00  0.000000D+00  0.000000D+00 -0.178707D+00
     14   0.000000D+00  0.000000D+00  0.000000D+00  0.304294D+00  0.000000D+00
     15   0.000000D+00  0.000000D+00  0.143580D+01  0.000000D+00  0.000000D+00
     16   0.000000D+00  0.000000D+00  0.000000D+00  0.000000D+00  0.000000D+00
                76            77            78            79            80 
      1  -0.147267D+03 -0.147255D+03 -0.147254D+03 -0.147118D+03 -0.147081D+03
      2   0.000000D+00  0.956833D-01  0.000000D+00  0.000000D+00 -0.106529D+01
      3   0.000000D+00  0.000000D+00 -0.100946D+00  0.000000D+00  0.000000D+00
      4   0.000000D+00  0.000000D+00  0.000000D+00  0.000000D+00  0.000000D+00
      5   0.000000D+00 -0.111383D+00  0.000000D+00  0.000000D+00  0.224990D+01
      6   0.000000D+00  0.000000D+00  0.115774D+00  0.000000D+00  0.000000D+00
      7   0.000000D+00  0.000000D+00  0.000000D+00  0.000000D+00  0.000000D+00
      8  -0.239908D+00  0.000000D+00  0.000000D+00  0.368848D+00  0.000000D+00
      9   0.000000D+00  0.000000D+00  0.000000D+00  0.000000D+00  0.000000D+00
     10   0.000000D+00  0.000000D+00  0.000000D+00  0.000000D+00  0.000000D+00
     11   0.000000D+00  0.000000D+00  0.000000D+00  0.000000D+00  0.000000D+00
     12   0.000000D+00  0.000000D+00  0.000000D+00  0.000000D+00  0.000000D+00
     13   0.000000D+00  0.000000D+00  0.000000D+00  0.000000D+00  0.000000D+00
     14   0.000000D+00  0.000000D+00  0.000000D+00  0.000000D+00  0.000000D+00
     15   0.000000D+00  0.000000D+00  0.000000D+00  0.000000D+00  0.000000D+00
     16   0.128847D+01  0.000000D+00  0.000000D+00 -0.526235D+00  0.000000D+00
                81            82            83            84            85 
      1  -0.147080D+03 -0.147031D+03 -0.147031D+03 -0.146999D+03 -0.146999D+03
      2   0.000000D+00  0.000000D+00  0.000000D+00  0.000000D+00  0.000000D+00
      3   0.102449D+01  0.000000D+00  0.000000D+00  0.000000D+00  0.000000D+00
      4   0.000000D+00  0.661318D-02  0.000000D+00  0.000000D+00  0.000000D+00
      5   0.000000D+00  0.000000D+00  0.000000D+00  0.000000D+00  0.000000D+00
      6  -0.209489D+01  0.000000D+00  0.000000D+00  0.000000D+00  0.000000D+00
      7   0.000000D+00 -0.546447D-02  0.000000D+00  0.000000D+00  0.000000D+00
      8   0.000000D+00  0.000000D+00  0.000000D+00  0.000000D+00 -0.885290D-01
      9   0.000000D+00  0.000000D+00  0.000000D+00  0.846619D-01  0.000000D+00
     10   0.000000D+00  0.000000D+00  0.000000D+00  0.000000D+00  0.000000D+00
     11   0.000000D+00  0.000000D+00  0.000000D+00  0.000000D+00  0.000000D+00
     12   0.000000D+00  0.000000D+00  0.000000D+00  0.000000D+00  0.000000D+00
     13   0.000000D+00  0.000000D+00  0.000000D+00  0.000000D+00  0.000000D+00
     14   0.000000D+00  0.000000D+00  0.000000D+00  0.000000D+00  0.000000D+00
     15   0.000000D+00  0.000000D+00  0.000000D+00  0.803757D-01  0.000000D+00
     16   0.000000D+00  0.000000D+00  0.000000D+00  0.000000D+00  0.862747D-01
                86            87            88            89            90 
      1  -0.146966D+03 -0.146965D+03 -0.146896D+03 -0.146872D+03 -0.146834D+03
      2   0.000000D+00  0.000000D+00  0.000000D+00  0.000000D+00  0.259625D+00
      3   0.000000D+00  0.000000D+00  0.000000D+00  0.000000D+00  0.000000D+00
      4   0.000000D+00  0.747551D-03  0.000000D+00  0.000000D+00  0.000000D+00
      5   0.000000D+00  0.000000D+00  0.000000D+00  0.000000D+00 -0.659284D+00
      6   0.000000D+00  0.000000D+00  0.000000D+00  0.000000D+00  0.000000D+00
      7   0.000000D+00  0.374006D-02  0.000000D+00  0.000000D+00  0.000000D+00
      8   0.000000D+00  0.000000D+00  0.000000D+00  0.183601D+01  0.000000D+00
      9   0.000000D+00  0.000000D+00  0.175608D+01  0.000000D+00  0.000000D+00
     10   0.000000D+00  0.000000D+00  0.000000D+00  0.000000D+00  0.000000D+00
     11   0.000000D+00  0.000000D+00  0.000000D+00  0.000000D+00  0.000000D+00
     12   0.000000D+00  0.000000D+00  0.000000D+00  0.000000D+00  0.000000D+00
     13   0.000000D+00  0.000000D+00  0.000000D+00  0.000000D+00  0.000000D+00
     14   0.000000D+00  0.000000D+00  0.000000D+00  0.000000D+00  0.000000D+00
     15   0.000000D+00  0.000000D+00  0.223659D+01  0.000000D+00  0.000000D+00
     16   0.000000D+00  0.000000D+00  0.000000D+00 -0.235477D+01  0.000000D+00
                91            92            93            94            95 
      1  -0.146822D+03 -0.146773D+03 -0.146742D+03 -0.146712D+03 -0.146698D+03
      2   0.000000D+00  0.000000D+00  0.543191D+00  0.000000D+00  0.000000D+00
      3   0.352858D+00  0.000000D+00  0.000000D+00  0.535455D+00  0.000000D+00
      4   0.000000D+00  0.000000D+00  0.000000D+00  0.000000D+00  0.000000D+00
      5   0.000000D+00  0.000000D+00 -0.140620D+01  0.000000D+00  0.000000D+00
      6  -0.852400D+00  0.000000D+00  0.000000D+00 -0.135835D+01  0.000000D+00
      7   0.000000D+00  0.000000D+00  0.000000D+00  0.000000D+00  0.000000D+00
      8   0.000000D+00  0.000000D+00  0.000000D+00  0.000000D+00  0.000000D+00
      9   0.000000D+00  0.000000D+00  0.000000D+00  0.000000D+00  0.000000D+00
     10   0.000000D+00  0.000000D+00  0.000000D+00  0.000000D+00  0.000000D+00
     11   0.000000D+00 -0.202694D+00  0.000000D+00  0.000000D+00  0.000000D+00
     12   0.000000D+00 -0.799833D-01  0.000000D+00  0.000000D+00  0.000000D+00
     13   0.000000D+00  0.233920D+01  0.000000D+00  0.000000D+00  0.000000D+00
     14   0.000000D+00  0.000000D+00  0.000000D+00  0.000000D+00  0.961581D+00
     15   0.000000D+00  0.000000D+00  0.000000D+00  0.000000D+00  0.000000D+00
     16   0.000000D+00  0.000000D+00  0.000000D+00  0.000000D+00  0.000000D+00
                96            97            98            99           100 
      1  -0.146698D+03 -0.146640D+03 -0.146559D+03 -0.146519D+03 -0.146517D+03
      2   0.000000D+00  0.000000D+00  0.000000D+00  0.000000D+00  0.000000D+00
      3   0.000000D+00  0.000000D+00  0.000000D+00  0.000000D+00  0.000000D+00
      4   0.000000D+00  0.000000D+00  0.189207D-01  0.000000D+00  0.000000D+00
      5   0.000000D+00  0.000000D+00  0.000000D+00  0.000000D+00  0.000000D+00
      6   0.000000D+00  0.000000D+00  0.000000D+00  0.000000D+00  0.000000D+00
      7   0.000000D+00  0.000000D+00 -0.950913D-01  0.000000D+00  0.000000D+00
      8   0.000000D+00  0.000000D+00  0.000000D+00  0.000000D+00  0.000000D+00
      9   0.000000D+00  0.000000D+00  0.000000D+00  0.000000D+00  0.000000D+00
     10   0.000000D+00  0.000000D+00  0.000000D+00  0.000000D+00  0.000000D+00
     11   0.976609D+00  0.000000D+00  0.000000D+00  0.104167D+01  0.000000D+00
     12  -0.958722D+00  0.000000D+00  0.000000D+00 -0.648005D+00  0.000000D+00
     13   0.197490D-01  0.000000D+00  0.000000D+00 -0.201093D+01  0.000000D+00
     14   0.000000D+00 -0.175762D+00  0.000000D+00  0.000000D+00  0.105518D+01
     15   0.000000D+00  0.000000D+00  0.000000D+00  0.000000D+00  0.000000D+00
     16   0.000000D+00  0.000000D+00  0.000000D+00  0.000000D+00  0.000000D+00
               101           102           103           104           105 
      1  -0.146504D+03 -0.146363D+03 -0.146353D+03 -0.146326D+03 -0.146295D+03
      2   0.000000D+00  0.000000D+00  0.000000D+00  0.000000D+00  0.000000D+00
      3   0.000000D+00  0.000000D+00  0.000000D+00  0.000000D+00  0.000000D+00
      4   0.000000D+00  0.000000D+00 -0.873220D-01  0.000000D+00  0.000000D+00
      5   0.000000D+00  0.000000D+00  0.000000D+00  0.000000D+00  0.000000D+00
      6   0.000000D+00  0.000000D+00  0.000000D+00  0.000000D+00  0.000000D+00
      7   0.000000D+00  0.000000D+00  0.302679D+00  0.000000D+00  0.000000D+00
      8   0.000000D+00  0.000000D+00  0.000000D+00  0.000000D+00  0.000000D+00
      9   0.000000D+00  0.000000D+00  0.000000D+00  0.000000D+00  0.128103D+01
     10   0.000000D+00  0.000000D+00  0.000000D+00  0.000000D+00  0.000000D+00
     11   0.273541D+00  0.000000D+00  0.000000D+00  0.000000D+00  0.000000D+00
     12  -0.100552D+01  0.000000D+00  0.000000D+00  0.000000D+00  0.000000D+00
     13   0.400346D+01  0.000000D+00  0.000000D+00  0.000000D+00  0.000000D+00
     14   0.000000D+00  0.000000D+00  0.000000D+00  0.000000D+00  0.000000D+00
     15   0.000000D+00  0.000000D+00  0.000000D+00  0.000000D+00  0.212480D+01
     16   0.000000D+00  0.000000D+00  0.000000D+00  0.000000D+00  0.000000D+00
               106           107           108           109           110 
      1  -0.146269D+03 -0.146254D+03 -0.146212D+03 -0.146211D+03 -0.146115D+03
      2   0.000000D+00  0.000000D+00  0.000000D+00  0.000000D+00  0.000000D+00
      3   0.000000D+00  0.000000D+00  0.000000D+00  0.000000D+00  0.216210D+00
      4  -0.317726D+00  0.000000D+00  0.000000D+00 -0.301416D-02  0.000000D+00
      5   0.000000D+00  0.000000D+00  0.000000D+00  0.000000D+00  0.000000D+00
      6   0.000000D+00  0.000000D+00  0.000000D+00  0.000000D+00 -0.778392D+00
      7   0.115323D+01  0.000000D+00  0.000000D+00  0.508477D-02  0.000000D+00
      8   0.000000D+00 -0.128726D+01  0.000000D+00  0.000000D+00  0.000000D+00
      9   0.000000D+00  0.000000D+00  0.000000D+00  0.000000D+00  0.000000D+00
     10   0.000000D+00  0.000000D+00  0.000000D+00  0.000000D+00  0.000000D+00
     11   0.000000D+00  0.000000D+00  0.000000D+00  0.000000D+00  0.000000D+00
     12   0.000000D+00  0.000000D+00  0.000000D+00  0.000000D+00  0.000000D+00
     13   0.000000D+00  0.000000D+00  0.000000D+00  0.000000D+00  0.000000D+00
     14   0.000000D+00  0.000000D+00  0.000000D+00  0.000000D+00  0.000000D+00
     15   0.000000D+00  0.000000D+00  0.000000D+00  0.000000D+00  0.000000D+00
     16   0.000000D+00  0.214489D+01  0.000000D+00  0.000000D+00  0.000000D+00
               111           112           113           114           115 
      1  -0.146068D+03 -0.146027D+03 -0.146026D+03 -0.145844D+03 -0.145840D+03
      2  -0.110102D+00  0.000000D+00  0.000000D+00  0.000000D+00  0.000000D+00
      3   0.000000D+00  0.000000D+00 -0.142861D+00  0.000000D+00  0.000000D+00
      4   0.000000D+00  0.000000D+00  0.000000D+00  0.000000D+00  0.000000D+00
      5   0.358061D+00  0.000000D+00  0.000000D+00  0.000000D+00  0.000000D+00
      6   0.000000D+00  0.000000D+00  0.472623D+00  0.000000D+00  0.000000D+00
      7   0.000000D+00  0.000000D+00  0.000000D+00  0.000000D+00  0.000000D+00
      8   0.000000D+00  0.000000D+00  0.000000D+00  0.000000D+00  0.672554D+00
      9   0.000000D+00  0.000000D+00  0.000000D+00 -0.618754D+00  0.000000D+00
     10   0.000000D+00  0.000000D+00  0.000000D+00  0.000000D+00  0.000000D+00
     11   0.000000D+00 -0.807262D-01  0.000000D+00  0.000000D+00  0.000000D+00
     12   0.000000D+00 -0.134074D+00  0.000000D+00  0.000000D+00  0.000000D+00
     13   0.000000D+00 -0.162231D+01  0.000000D+00  0.000000D+00  0.000000D+00
     14   0.000000D+00  0.000000D+00  0.000000D+00  0.000000D+00  0.000000D+00
     15   0.000000D+00  0.000000D+00  0.000000D+00 -0.912977D+00  0.000000D+00
     16   0.000000D+00  0.000000D+00  0.000000D+00  0.000000D+00 -0.974264D+00
               116           117           118           119           120 
      1  -0.145778D+03 -0.145578D+03 -0.145565D+03 -0.145542D+03 -0.145060D+03
      2   0.000000D+00  0.000000D+00  0.000000D+00  0.000000D+00  0.000000D+00
      3   0.000000D+00  0.000000D+00  0.000000D+00  0.000000D+00  0.000000D+00
      4  -0.274655D+00  0.000000D+00  0.000000D+00  0.000000D+00 -0.201176D-01
      5   0.000000D+00  0.000000D+00  0.000000D+00  0.000000D+00  0.000000D+00
      6   0.000000D+00  0.000000D+00  0.000000D+00  0.000000D+00  0.000000D+00
      7   0.118489D+01  0.000000D+00  0.000000D+00  0.000000D+00 -0.442899D-01
      8   0.000000D+00  0.000000D+00  0.000000D+00  0.406308D+00  0.000000D+00
      9   0.000000D+00 -0.416574D+00  0.000000D+00  0.000000D+00  0.000000D+00
     10   0.000000D+00  0.000000D+00  0.000000D+00  0.000000D+00  0.000000D+00
     11   0.000000D+00  0.000000D+00 -0.271214D+00  0.000000D+00  0.000000D+00
     12   0.000000D+00  0.000000D+00 -0.317867D+00  0.000000D+00  0.000000D+00
     13   0.000000D+00  0.000000D+00  0.205025D+01  0.000000D+00  0.000000D+00
     14   0.000000D+00  0.000000D+00  0.000000D+00  0.000000D+00  0.000000D+00
     15   0.000000D+00 -0.264719D+00  0.000000D+00  0.000000D+00  0.000000D+00
     16   0.000000D+00  0.000000D+00  0.000000D+00 -0.263890D+00  0.000000D+00
 Unable to Open any file for archive entry.
 1\1\GINC-HEL11\SP\RwB97XD TD-FC\def2SVP\O2\PRAKRITI\14-Aug-2021\0\\#P 
 TD(Nstates=10000) wB97XD/def2SVP SCF(maxcycles=100) Int(Grid=ultrafine
 )\\xGDB7_00001_tier4.com\\0,1\O,0,0.,0.,0.595593\O,0,0.,0.,-0.595593\\
 Version=EM64L-G16RevC.01\HF=-150.0925015\RMSD=1.073e-09\PG=D*H [C*(O1.
 O1)]\\@
 The archive entry for this job was punched.


 Change starts when someone sees the next step.
                            -- William Drayton
 Job cpu time:       0 days  0 hours  0 minutes 10.5 seconds.
 Elapsed time:       0 days  0 hours  0 minutes  1.6 seconds.
 File lengths (MBytes):  RWF=     21 Int=      0 D2E=      0 Chk=      4 Scr=      1
 Normal termination of Gaussian 16 at Sat Aug 14 23:27:27 2021.
