 Entering Gaussian System, Link 0=g16
 Input=xGDB7_000014_TDDFT.com
 Output=xGDB7_000014_TDDFT.log
 Initial command:
 /home/prakriti/g16/l1.exe "/scratch/prakriti/PBS_7434524.helios/Gau-180449.inp" -scrdir="/scratch/prakriti/PBS_7434524.helios/"
 Entering Link 1 = /home/prakriti/g16/l1.exe PID=    180450.
  
 Copyright (c) 1988-2019, Gaussian, Inc.  All Rights Reserved.
  
 This is part of the Gaussian(R) 16 program.  It is based on
 the Gaussian(R) 09 system (copyright 2009, Gaussian, Inc.),
 the Gaussian(R) 03 system (copyright 2003, Gaussian, Inc.),
 the Gaussian(R) 98 system (copyright 1998, Gaussian, Inc.),
 the Gaussian(R) 94 system (copyright 1995, Gaussian, Inc.),
 the Gaussian 92(TM) system (copyright 1992, Gaussian, Inc.),
 the Gaussian 90(TM) system (copyright 1990, Gaussian, Inc.),
 the Gaussian 88(TM) system (copyright 1988, Gaussian, Inc.),
 the Gaussian 86(TM) system (copyright 1986, Carnegie Mellon
 University), and the Gaussian 82(TM) system (copyright 1983,
 Carnegie Mellon University). Gaussian is a federally registered
 trademark of Gaussian, Inc.
  
 This software contains proprietary and confidential information,
 including trade secrets, belonging to Gaussian, Inc.
  
 This software is provided under written license and may be
 used, copied, transmitted, or stored only in accord with that
 written license.
  
 The following legend is applicable only to US Government
 contracts under FAR:
  
                    RESTRICTED RIGHTS LEGEND
  
 Use, reproduction and disclosure by the US Government is
 subject to restrictions as set forth in subparagraphs (a)
 and (c) of the Commercial Computer Software - Restricted
 Rights clause in FAR 52.227-19.
  
 Gaussian, Inc.
 340 Quinnipiac St., Bldg. 40, Wallingford CT 06492
  
  
 ---------------------------------------------------------------
 Warning -- This program may not be used in any manner that
 competes with the business of Gaussian, Inc. or will provide
 assistance to any competitor of Gaussian, Inc.  The licensee
 of this program is prohibited from giving any competitor of
 Gaussian, Inc. access to this program.  By using this program,
 the user acknowledges that Gaussian, Inc. is engaged in the
 business of creating and licensing software in the field of
 computational chemistry and represents and warrants to the
 licensee that it is not a competitor of Gaussian, Inc. and that
 it will not use this program in any manner prohibited above.
 ---------------------------------------------------------------
  

 Cite this work as:
 Gaussian 16, Revision C.01,
 M. J. Frisch, G. W. Trucks, H. B. Schlegel, G. E. Scuseria, 
 M. A. Robb, J. R. Cheeseman, G. Scalmani, V. Barone, 
 G. A. Petersson, H. Nakatsuji, X. Li, M. Caricato, A. V. Marenich, 
 J. Bloino, B. G. Janesko, R. Gomperts, B. Mennucci, H. P. Hratchian, 
 J. V. Ortiz, A. F. Izmaylov, J. L. Sonnenberg, D. Williams-Young, 
 F. Ding, F. Lipparini, F. Egidi, J. Goings, B. Peng, A. Petrone, 
 T. Henderson, D. Ranasinghe, V. G. Zakrzewski, J. Gao, N. Rega, 
 G. Zheng, W. Liang, M. Hada, M. Ehara, K. Toyota, R. Fukuda, 
 J. Hasegawa, M. Ishida, T. Nakajima, Y. Honda, O. Kitao, H. Nakai, 
 T. Vreven, K. Throssell, J. A. Montgomery, Jr., J. E. Peralta, 
 F. Ogliaro, M. J. Bearpark, J. J. Heyd, E. N. Brothers, K. N. Kudin, 
 V. N. Staroverov, T. A. Keith, R. Kobayashi, J. Normand, 
 K. Raghavachari, A. P. Rendell, J. C. Burant, S. S. Iyengar, 
 J. Tomasi, M. Cossi, J. M. Millam, M. Klene, C. Adamo, R. Cammi, 
 J. W. Ochterski, R. L. Martin, K. Morokuma, O. Farkas, 
 J. B. Foresman, and D. J. Fox, Gaussian, Inc., Wallingford CT, 2019.
 
 ******************************************
 Gaussian 16:  EM64L-G16RevC.01  3-Jul-2019
                14-Aug-2021 
 ******************************************
 %mem=8gb
 %nproc=8
 Will use up to    8 processors via shared memory.
 ----------------------------------------------------------------------
 #P TD(Nstates=10000) wB97XD/def2SVP SCF(maxcycles=100) Int(Grid=ultraf
 ine)
 ----------------------------------------------------------------------
 1/38=1,172=1/1;
 2/12=2,17=6,18=5,40=1/2;
 3/5=43,7=101,11=9,25=1,30=1,74=-58,75=-5/1,2,3,8;
 4//1;
 5/5=2,7=100,38=5/2;
 8/6=1,10=1,108=10000/1;
 9/41=10000,42=1,70=2/14;
 6/7=2,8=2,9=2,10=2/1;
 99/5=1,9=1/99;
 Leave Link    1 at Sat Aug 14 23:29:49 2021, MaxMem=  1073741824 cpu:               0.3 elap:               0.0
 (Enter /home/prakriti/g16/l101.exe)
 ---------------------
 xGDB7_00001_tier4.com
 ---------------------
 Symbolic Z-matrix:
 Charge =  0 Multiplicity = 1
 6                     0.        1.27293  -0.25814 
 6                     0.        0.        0.5824 
 6                     0.       -1.27293  -0.25814 
 1                     0.        2.17527   0.37172 
 1                    -0.888     1.31951  -0.90889 
 1                     0.888     1.31951  -0.90889 
 1                    -0.87988   0.        1.2477 
 1                     0.87988   0.        1.2477 
 1                    -0.888    -1.31951  -0.90889 
 1                     0.       -2.17527   0.37172 
 1                     0.888    -1.31951  -0.90889 
 
 ITRead=  0  0  0  0  0  0  0  0  0  0  0
 MicOpt= -1 -1 -1 -1 -1 -1 -1 -1 -1 -1 -1
 NAtoms=     11 NQM=       11 NQMF=       0 NMMI=      0 NMMIF=      0
                NMic=       0 NMicF=      0.
                    Isotopes and Nuclear Properties:
 (Nuclear quadrupole moments (NQMom) in fm**2, nuclear magnetic moments (NMagM)
  in nuclear magnetons)

  Atom         1           2           3           4           5           6           7           8           9          10
 IAtWgt=          12          12          12           1           1           1           1           1           1           1
 AtmWgt=  12.0000000  12.0000000  12.0000000   1.0078250   1.0078250   1.0078250   1.0078250   1.0078250   1.0078250   1.0078250
 NucSpn=           0           0           0           1           1           1           1           1           1           1
 AtZEff=  -0.0000000  -0.0000000  -0.0000000  -0.0000000  -0.0000000  -0.0000000  -0.0000000  -0.0000000  -0.0000000  -0.0000000
 NQMom=    0.0000000   0.0000000   0.0000000   0.0000000   0.0000000   0.0000000   0.0000000   0.0000000   0.0000000   0.0000000
 NMagM=    0.0000000   0.0000000   0.0000000   2.7928460   2.7928460   2.7928460   2.7928460   2.7928460   2.7928460   2.7928460
 AtZNuc=   6.0000000   6.0000000   6.0000000   1.0000000   1.0000000   1.0000000   1.0000000   1.0000000   1.0000000   1.0000000

  Atom        11
 IAtWgt=           1
 AtmWgt=   1.0078250
 NucSpn=           1
 AtZEff=  -0.0000000
 NQMom=    0.0000000
 NMagM=    2.7928460
 AtZNuc=   1.0000000
 Leave Link  101 at Sat Aug 14 23:29:49 2021, MaxMem=  1073741824 cpu:               0.6 elap:               0.1
 (Enter /home/prakriti/g16/l202.exe)
                          Input orientation:                          
 ---------------------------------------------------------------------
 Center     Atomic      Atomic             Coordinates (Angstroms)
 Number     Number       Type             X           Y           Z
 ---------------------------------------------------------------------
      1          6           0        0.000000    1.272934   -0.258139
      2          6           0        0.000000    0.000000    0.582399
      3          6           0        0.000000   -1.272934   -0.258139
      4          1           0        0.000000    2.175267    0.371719
      5          1           0       -0.887995    1.319511   -0.908891
      6          1           0        0.887995    1.319511   -0.908891
      7          1           0       -0.879879    0.000000    1.247700
      8          1           0        0.879879    0.000000    1.247700
      9          1           0       -0.887995   -1.319511   -0.908891
     10          1           0        0.000000   -2.175267    0.371719
     11          1           0        0.887995   -1.319511   -0.908891
 ---------------------------------------------------------------------
                    Distance matrix (angstroms):
                    1          2          3          4          5
     1  C    0.000000
     2  C    1.525407   0.000000
     3  C    2.545868   1.525407   0.000000
     4  H    1.100421   2.185446   3.505255   0.000000
     5  H    1.101900   2.180273   2.816520   1.777868   0.000000
     6  H    1.101900   2.180273   2.816520   1.777868   1.775990
     7  H    2.159189   1.103092   2.159189   2.504659   2.528252
     8  H    2.159189   1.103092   2.159189   2.504659   3.085024
     9  H    2.816520   2.180273   1.101900   3.826483   2.639022
    10  H    3.505255   2.185446   1.100421   4.350534   3.826483
    11  H    2.816520   2.180273   1.101900   3.826483   3.180971
                    6          7          8          9         10
     6  H    0.000000
     7  H    3.085024   0.000000
     8  H    2.528252   1.759758   0.000000
     9  H    3.180971   2.528252   3.085024   0.000000
    10  H    3.826483   2.504659   2.504659   1.777868   0.000000
    11  H    2.639022   3.085024   2.528252   1.775990   1.777868
                   11
    11  H    0.000000
 Stoichiometry    C3H8
 Framework group  C2V[C2(C),SGV(C2H2),SGV'(H2),X(H4)]
 Deg. of freedom     9
 Full point group                 C2V     NOp   4
 Largest Abelian subgroup         C2V     NOp   4
 Largest concise Abelian subgroup C2V     NOp   4
                         Standard orientation:                         
 ---------------------------------------------------------------------
 Center     Atomic      Atomic             Coordinates (Angstroms)
 Number     Number       Type             X           Y           Z
 ---------------------------------------------------------------------
      1          6           0        0.000000    1.272934   -0.258139
      2          6           0       -0.000000   -0.000000    0.582399
      3          6           0       -0.000000   -1.272934   -0.258139
      4          1           0        0.000000    2.175267    0.371719
      5          1           0       -0.887995    1.319511   -0.908891
      6          1           0        0.887995    1.319511   -0.908891
      7          1           0       -0.879879    0.000000    1.247700
      8          1           0        0.879879   -0.000000    1.247700
      9          1           0       -0.887995   -1.319511   -0.908891
     10          1           0       -0.000000   -2.175267    0.371719
     11          1           0        0.887995   -1.319511   -0.908891
 ---------------------------------------------------------------------
 Rotational constants (GHZ):          29.4649151           8.3971573           7.4476183
 Leave Link  202 at Sat Aug 14 23:29:49 2021, MaxMem=  1073741824 cpu:               0.1 elap:               0.0
 (Enter /home/prakriti/g16/l301.exe)
 Standard basis: def2SVP (5D, 7F)
 Ernie: Thresh=  0.10000D-02 Tol=  0.10000D-05 Strict=F.
 There are    32 symmetry adapted cartesian basis functions of A1  symmetry.
 There are    12 symmetry adapted cartesian basis functions of A2  symmetry.
 There are    17 symmetry adapted cartesian basis functions of B1  symmetry.
 There are    24 symmetry adapted cartesian basis functions of B2  symmetry.
 There are    30 symmetry adapted basis functions of A1  symmetry.
 There are    12 symmetry adapted basis functions of A2  symmetry.
 There are    17 symmetry adapted basis functions of B1  symmetry.
 There are    23 symmetry adapted basis functions of B2  symmetry.
    82 basis functions,   131 primitive gaussians,    85 cartesian basis functions
    13 alpha electrons       13 beta electrons
       nuclear repulsion energy        82.3110982187 Hartrees.
 IExCor= 4639 DFT=T Ex+Corr=wB97XD ExCW=0 ScaHFX=  1.000000
 ScaDFX=  1.000000  1.000000  1.000000  1.000000 ScalE2=  1.000000  1.000000
 IRadAn=      5 IRanWt=     -1 IRanGd=            0 ICorTp=0 IEmpDi=121
 HFx  wShort=  0.000000 wLong=  0.200000 cFull=  0.222036 cShort=  0.000000 cLong=  0.777964
 DFx  wShort=  0.000000 wLong=  0.200000 cFull=  0.000000 cShort=  0.000000 cLong=  1.000000
 NAtoms=   11 NActive=   11 NUniq=    5 SFac= 4.00D+00 NAtFMM=   60 NAOKFM=F Big=F
 Integral buffers will be    131072 words long.
 Raffenetti 1 integral format.
 Two-electron integral symmetry is turned on.
 R6Disp:  Grimme-D2 Dispersion energy=       -0.0040002288 Hartrees.
 Nuclear repulsion after empirical dispersion term =       82.3070979899 Hartrees.
 Leave Link  301 at Sat Aug 14 23:29:49 2021, MaxMem=  1073741824 cpu:               0.4 elap:               0.1
 (Enter /home/prakriti/g16/l302.exe)
 NPDir=0 NMtPBC=     1 NCelOv=     1 NCel=       1 NClECP=     1 NCelD=      1
         NCelK=      1 NCelE2=     1 NClLst=     1 CellRange=     0.0.
 One-electron integrals computed using PRISM.
 One-electron integral symmetry used in STVInt
   4 Symmetry operations used in ECPInt.
 ECPInt:  NShTT=     903 NPrTT=    2989 LenC2=     904 LenP2D=    2737.
 LDataN:  DoStor=T MaxTD1= 4 Len=   56
 NBasis=    82 RedAO= T EigKep=  2.99D-03  NBF=    30    12    17    23
 NBsUse=    82 1.00D-06 EigRej= -1.00D+00 NBFU=    30    12    17    23
 Precomputing XC quadrature grid using
 IXCGrd= 4 IRadAn=           5 IRanWt=          -1 IRanGd=           0 AccXCQ= 0.00D+00.
 Generated NRdTot=       0 NPtTot=           0 NUsed=           0 NTot=          32
 NSgBfM=    85    85    85    85    85 MxSgAt=    11 MxSgA2=    11.
 Leave Link  302 at Sat Aug 14 23:29:49 2021, MaxMem=  1073741824 cpu:               1.2 elap:               0.2
 (Enter /home/prakriti/g16/l303.exe)
 DipDrv:  MaxL=1.
 Leave Link  303 at Sat Aug 14 23:29:49 2021, MaxMem=  1073741824 cpu:               0.2 elap:               0.0
 (Enter /home/prakriti/g16/l308.exe)
 Leave Link  308 at Sat Aug 14 23:29:49 2021, MaxMem=  1073741824 cpu:               0.2 elap:               0.0
 (Enter /home/prakriti/g16/l401.exe)
 ExpMin= 1.22D-01 ExpMax= 1.24D+03 ExpMxC= 1.86D+02 IAcc=3 IRadAn=         5 AccDes= 0.00D+00
 Harris functional with IExCor= 4639 and IRadAn=       5 diagonalized for initial guess.
 HarFok:  IExCor= 4639 AccDes= 0.00D+00 IRadAn=         5 IDoV= 1 UseB2=F ITyADJ=14
 ICtDFT=  3500011 ScaDFX=  1.000000  1.000000  1.000000  1.000000
 FoFCou: FMM=F IPFlag=           0 FMFlag=      100000 FMFlg1=           0
         NFxFlg=           0 DoJE=T BraDBF=F KetDBF=T FulRan=T
         wScrn=  0.000000 ICntrl=       500 IOpCl=  0 I1Cent=   200000004 NGrid=           0
         NMat0=    1 NMatS0=      1 NMatT0=    0 NMatD0=    1 NMtDS0=    0 NMtDT0=    0
 Petite list used in FoFCou.
 Harris En= -112.853289856529    
 JPrj=0 DoOrth=F DoCkMO=F.
 Initial guess orbital symmetries:
       Occupied  (B2) (A1) (A1) (A1) (B2) (A1) (B1) (A1) (B2) (A2)
                 (B2) (A1) (B1)
       Virtual   (A1) (B1) (A1) (B2) (A1) (B1) (B2) (A2) (A1) (B2)
                 (A1) (B1) (B2) (A2) (A1) (A1) (B1) (B2) (B2) (A1)
                 (B2) (A1) (A2) (B1) (B2) (B1) (A1) (A1) (A1) (B2)
                 (A2) (A1) (B2) (A2) (B1) (B1) (A2) (A1) (B2) (A1)
                 (B1) (A2) (B1) (A1) (B2) (A2) (B1) (B2) (A1) (B2)
                 (B1) (A1) (A2) (B2) (A1) (A1) (B2) (B1) (A1) (B2)
                 (A2) (A1) (B2) (B1) (B2) (A1) (A2) (A1) (B1)
 The electronic state of the initial guess is 1-A1.
 Leave Link  401 at Sat Aug 14 23:29:50 2021, MaxMem=  1073741824 cpu:               1.7 elap:               0.2
 (Enter /home/prakriti/g16/l502.exe)
 Keep R1 ints in memory in symmetry-blocked form, NReq=19161097.
 FoFCou: FMM=F IPFlag=           0 FMFlag=           0 FMFlg1=           0
         NFxFlg=           0 DoJE=F BraDBF=F KetDBF=F FulRan=T
         wScrn=  0.000000 ICntrl=       600 IOpCl=  0 I1Cent=           0 NGrid=           0
         NMat0=    1 NMatS0=   3403 NMatT0=    0 NMatD0=    1 NMtDS0=    0 NMtDT0=    0
 Petite list used in FoFCou.
 Closed shell SCF:
 Using DIIS extrapolation, IDIIS=  1040.
 NGot=  1073741824 LenX=  1072251623 LenY=  1072243957
 Requested convergence on RMS density matrix=1.00D-08 within 100 cycles.
 Requested convergence on MAX density matrix=1.00D-06.
 Requested convergence on             energy=1.00D-06.
 No special actions if energy rises.
 Integral accuracy reduced to 1.0D-05 until final iterations.

 Cycle   1  Pass 0  IDiag  1:
 E= -118.992115744894    
 DIIS: error= 3.81D-02 at cycle   1 NSaved=   1.
 NSaved= 1 IEnMin= 1 EnMin= -118.992115744894     IErMin= 1 ErrMin= 3.81D-02
 ErrMax= 3.81D-02  0.00D+00 EMaxC= 1.00D-01 BMatC= 5.61D-02 BMatP= 5.61D-02
 IDIUse=3 WtCom= 6.19D-01 WtEn= 3.81D-01
 Coeff-Com:  0.100D+01
 Coeff-En:   0.100D+01
 Coeff:      0.100D+01
 Gap=     0.526 Goal=   None    Shift=    0.000
 GapD=    0.526 DampG=2.000 DampE=0.500 DampFc=1.0000 IDamp=-1.
 RMSDP=2.55D-03 MaxDP=4.40D-02              OVMax= 5.41D-02

 Cycle   2  Pass 0  IDiag  1:
 E= -119.011440582279     Delta-E=       -0.019324837385 Rises=F Damp=F
 DIIS: error= 9.83D-03 at cycle   2 NSaved=   2.
 NSaved= 2 IEnMin= 2 EnMin= -119.011440582279     IErMin= 2 ErrMin= 9.83D-03
 ErrMax= 9.83D-03  0.00D+00 EMaxC= 1.00D-01 BMatC= 9.14D-03 BMatP= 5.61D-02
 IDIUse=3 WtCom= 9.02D-01 WtEn= 9.83D-02
 Coeff-Com:  0.209D+00 0.791D+00
 Coeff-En:   0.277D-01 0.972D+00
 Coeff:      0.191D+00 0.809D+00
 Gap=     0.550 Goal=   None    Shift=    0.000
 RMSDP=1.45D-03 MaxDP=3.29D-02 DE=-1.93D-02 OVMax= 2.94D-02

 Cycle   3  Pass 0  IDiag  1:
 E= -119.018934489266     Delta-E=       -0.007493906987 Rises=F Damp=F
 DIIS: error= 4.65D-03 at cycle   3 NSaved=   3.
 NSaved= 3 IEnMin= 3 EnMin= -119.018934489266     IErMin= 3 ErrMin= 4.65D-03
 ErrMax= 4.65D-03  0.00D+00 EMaxC= 1.00D-01 BMatC= 1.82D-03 BMatP= 9.14D-03
 IDIUse=3 WtCom= 9.53D-01 WtEn= 4.65D-02
 Coeff-Com: -0.103D-02 0.306D+00 0.695D+00
 Coeff-En:   0.000D+00 0.621D-01 0.938D+00
 Coeff:     -0.984D-03 0.295D+00 0.706D+00
 Gap=     0.544 Goal=   None    Shift=    0.000
 RMSDP=4.53D-04 MaxDP=8.20D-03 DE=-7.49D-03 OVMax= 9.35D-03

 Cycle   4  Pass 0  IDiag  1:
 E= -119.020826566978     Delta-E=       -0.001892077712 Rises=F Damp=F
 DIIS: error= 3.68D-04 at cycle   4 NSaved=   4.
 NSaved= 4 IEnMin= 4 EnMin= -119.020826566978     IErMin= 4 ErrMin= 3.68D-04
 ErrMax= 3.68D-04  0.00D+00 EMaxC= 1.00D-01 BMatC= 8.05D-06 BMatP= 1.82D-03
 IDIUse=3 WtCom= 9.96D-01 WtEn= 3.68D-03
 Coeff-Com: -0.103D-02 0.290D-01 0.108D+00 0.864D+00
 Coeff-En:   0.000D+00 0.000D+00 0.000D+00 0.100D+01
 Coeff:     -0.103D-02 0.289D-01 0.108D+00 0.865D+00
 Gap=     0.544 Goal=   None    Shift=    0.000
 RMSDP=4.26D-05 MaxDP=1.19D-03 DE=-1.89D-03 OVMax= 8.18D-04

 Cycle   5  Pass 0  IDiag  1:
 E= -119.020834819079     Delta-E=       -0.000008252101 Rises=F Damp=F
 DIIS: error= 9.96D-05 at cycle   5 NSaved=   5.
 NSaved= 5 IEnMin= 5 EnMin= -119.020834819079     IErMin= 5 ErrMin= 9.96D-05
 ErrMax= 9.96D-05  0.00D+00 EMaxC= 1.00D-01 BMatC= 8.83D-07 BMatP= 8.05D-06
 IDIUse=1 WtCom= 1.00D+00 WtEn= 0.00D+00
 Coeff-Com:  0.238D-05-0.217D-01-0.345D-01 0.250D+00 0.806D+00
 Coeff:      0.238D-05-0.217D-01-0.345D-01 0.250D+00 0.806D+00
 Gap=     0.544 Goal=   None    Shift=    0.000
 RMSDP=1.57D-05 MaxDP=2.59D-04 DE=-8.25D-06 OVMax= 2.48D-04

 Cycle   6  Pass 0  IDiag  1:
 E= -119.020835778900     Delta-E=       -0.000000959820 Rises=F Damp=F
 DIIS: error= 2.09D-05 at cycle   6 NSaved=   6.
 NSaved= 6 IEnMin= 6 EnMin= -119.020835778900     IErMin= 6 ErrMin= 2.09D-05
 ErrMax= 2.09D-05  0.00D+00 EMaxC= 1.00D-01 BMatC= 4.20D-08 BMatP= 8.83D-07
 IDIUse=1 WtCom= 1.00D+00 WtEn= 0.00D+00
 Coeff-Com:  0.718D-04-0.848D-02-0.171D-01 0.121D-01 0.221D+00 0.792D+00
 Coeff:      0.718D-04-0.848D-02-0.171D-01 0.121D-01 0.221D+00 0.792D+00
 Gap=     0.544 Goal=   None    Shift=    0.000
 RMSDP=3.51D-06 MaxDP=8.61D-05 DE=-9.60D-07 OVMax= 6.23D-05

 Initial convergence to 1.0D-05 achieved.  Increase integral accuracy.
 Cycle   7  Pass 1  IDiag  1:
 E= -119.020844445557     Delta-E=       -0.000008666657 Rises=F Damp=F
 DIIS: error= 2.94D-05 at cycle   1 NSaved=   1.
 NSaved= 1 IEnMin= 1 EnMin= -119.020844445557     IErMin= 1 ErrMin= 2.94D-05
 ErrMax= 2.94D-05  0.00D+00 EMaxC= 1.00D-01 BMatC= 4.11D-08 BMatP= 4.11D-08
 IDIUse=1 WtCom= 1.00D+00 WtEn= 0.00D+00
 Coeff-Com:  0.100D+01
 Coeff:      0.100D+01
 Gap=     0.544 Goal=   None    Shift=    0.000
 RMSDP=3.51D-06 MaxDP=8.61D-05 DE=-8.67D-06 OVMax= 3.99D-05

 Cycle   8  Pass 1  IDiag  1:
 E= -119.020844480978     Delta-E=       -0.000000035421 Rises=F Damp=F
 DIIS: error= 3.47D-06 at cycle   2 NSaved=   2.
 NSaved= 2 IEnMin= 2 EnMin= -119.020844480978     IErMin= 2 ErrMin= 3.47D-06
 ErrMax= 3.47D-06  0.00D+00 EMaxC= 1.00D-01 BMatC= 9.89D-10 BMatP= 4.11D-08
 IDIUse=1 WtCom= 1.00D+00 WtEn= 0.00D+00
 Coeff-Com: -0.349D-01 0.103D+01
 Coeff:     -0.349D-01 0.103D+01
 Gap=     0.544 Goal=   None    Shift=    0.000
 RMSDP=8.21D-07 MaxDP=1.73D-05 DE=-3.54D-08 OVMax= 1.17D-05

 Cycle   9  Pass 1  IDiag  1:
 E= -119.020844481728     Delta-E=       -0.000000000750 Rises=F Damp=F
 DIIS: error= 2.17D-06 at cycle   3 NSaved=   3.
 NSaved= 3 IEnMin= 3 EnMin= -119.020844481728     IErMin= 3 ErrMin= 2.17D-06
 ErrMax= 2.17D-06  0.00D+00 EMaxC= 1.00D-01 BMatC= 3.45D-10 BMatP= 9.89D-10
 IDIUse=1 WtCom= 1.00D+00 WtEn= 0.00D+00
 Coeff-Com: -0.374D-01 0.379D+00 0.659D+00
 Coeff:     -0.374D-01 0.379D+00 0.659D+00
 Gap=     0.544 Goal=   None    Shift=    0.000
 RMSDP=2.39D-07 MaxDP=5.78D-06 DE=-7.50D-10 OVMax= 5.12D-06

 Cycle  10  Pass 1  IDiag  1:
 E= -119.020844482076     Delta-E=       -0.000000000348 Rises=F Damp=F
 DIIS: error= 3.38D-07 at cycle   4 NSaved=   4.
 NSaved= 4 IEnMin= 4 EnMin= -119.020844482076     IErMin= 4 ErrMin= 3.38D-07
 ErrMax= 3.38D-07  0.00D+00 EMaxC= 1.00D-01 BMatC= 9.93D-12 BMatP= 3.45D-10
 IDIUse=1 WtCom= 1.00D+00 WtEn= 0.00D+00
 Coeff-Com: -0.685D-02 0.332D-01 0.167D+00 0.807D+00
 Coeff:     -0.685D-02 0.332D-01 0.167D+00 0.807D+00
 Gap=     0.544 Goal=   None    Shift=    0.000
 RMSDP=5.40D-08 MaxDP=9.45D-07 DE=-3.48D-10 OVMax= 8.98D-07

 Cycle  11  Pass 1  IDiag  1:
 E= -119.020844482088     Delta-E=       -0.000000000012 Rises=F Damp=F
 DIIS: error= 4.49D-08 at cycle   5 NSaved=   5.
 NSaved= 5 IEnMin= 5 EnMin= -119.020844482088     IErMin= 5 ErrMin= 4.49D-08
 ErrMax= 4.49D-08  0.00D+00 EMaxC= 1.00D-01 BMatC= 1.43D-13 BMatP= 9.93D-12
 IDIUse=1 WtCom= 1.00D+00 WtEn= 0.00D+00
 Coeff-Com:  0.181D-02-0.177D-01-0.354D-01-0.733D-01 0.112D+01
 Coeff:      0.181D-02-0.177D-01-0.354D-01-0.733D-01 0.112D+01
 Gap=     0.544 Goal=   None    Shift=    0.000
 RMSDP=2.29D-08 MaxDP=3.54D-07 DE=-1.23D-11 OVMax= 3.51D-07

 Cycle  12  Pass 1  IDiag  1:
 E= -119.020844482087     Delta-E=        0.000000000001 Rises=F Damp=F
 DIIS: error= 1.29D-08 at cycle   6 NSaved=   6.
 NSaved= 6 IEnMin= 5 EnMin= -119.020844482088     IErMin= 6 ErrMin= 1.29D-08
 ErrMax= 1.29D-08  0.00D+00 EMaxC= 1.00D-01 BMatC= 1.26D-14 BMatP= 1.43D-13
 IDIUse=1 WtCom= 1.00D+00 WtEn= 0.00D+00
 Coeff-Com:  0.526D-03-0.434D-02-0.108D-01-0.340D-01 0.265D+00 0.783D+00
 Coeff:      0.526D-03-0.434D-02-0.108D-01-0.340D-01 0.265D+00 0.783D+00
 Gap=     0.544 Goal=   None    Shift=    0.000
 RMSDP=2.47D-09 MaxDP=2.78D-08 DE= 9.09D-13 OVMax= 5.90D-08

 SCF Done:  E(RwB97XD) =  -119.020844482     A.U. after   12 cycles
            NFock= 12  Conv=0.25D-08     -V/T= 2.0141
 KE= 1.173705340894D+02 PE=-4.385104934321D+02 EE= 1.198120168706D+02
 Leave Link  502 at Sat Aug 14 23:29:51 2021, MaxMem=  1073741824 cpu:               8.7 elap:               1.1
 (Enter /home/prakriti/g16/l801.exe)
 DoSCS=F DFT=T ScalE2(SS,OS)=  1.000000  1.000000
 ExpMin= 1.22D-01 ExpMax= 1.24D+03 ExpMxC= 1.86D+02 IAcc=3 IRadAn=         5 AccDes= 0.00D+00
 HarFok:  IExCor=  205 AccDes= 0.00D+00 IRadAn=         5 IDoV=-2 UseB2=F ITyADJ=14
 ICtDFT= 12500011 ScaDFX=  1.000000  1.000000  1.000000  1.000000
 Largest valence mixing into a core orbital is  8.15D-05
 Largest core mixing into a valence orbital is  3.55D-05
 Range of M.O.s used for correlation:     4    82
 NBasis=    82 NAE=    13 NBE=    13 NFC=     3 NFV=     0
 NROrb=     79 NOA=    10 NOB=    10 NVA=    69 NVB=    69
 Leave Link  801 at Sat Aug 14 23:29:51 2021, MaxMem=  1073741824 cpu:               0.6 elap:               0.1
 (Enter /home/prakriti/g16/l914.exe)
 RHF ground state
 Keep R1, R2, and R3 ints in memory in symmetry-blocked form, NReq=442850709.
 FoFCou: FMM=F IPFlag=           0 FMFlag=           0 FMFlg1=           0
         NFxFlg=           0 DoJE=F BraDBF=F KetDBF=F FulRan=T
         wScrn=  0.000000 ICntrl=       600 IOpCl=  0 I1Cent=           0 NGrid=           0
         NMat0=    1 NMatS0=   3403 NMatT0=    0 NMatD0=    1 NMtDS0=    0 NMtDT0=    0
 Petite list used in FoFCou.
 MDV=  1073741824 DFT=T DoStab=F Mixed=T DoRPA=T DoScal=F NonHer=T
 Making orbital integer symmetry assigments:
 Orbital symmetries:
       Occupied  (A1) (B2) (A1) (A1) (B2) (A1) (B1) (A1) (B2) (A2)
                 (B2) (A1) (B1)
       Virtual   (A1) (B2) (B1) (A1) (A1) (B1) (B2) (A2) (A1) (B2)
                 (A1) (B1) (B2) (A2) (A1) (A1) (B1) (B2) (B2) (A1)
                 (B2) (A1) (A2) (B1) (B2) (B1) (A1) (A1) (A1) (B2)
                 (A2) (A1) (B2) (A2) (B1) (B1) (A2) (A1) (B2) (A1)
                 (B1) (A2) (B1) (A1) (B2) (A2) (B1) (B2) (A1) (B2)
                 (B1) (A1) (A2) (B2) (A1) (A1) (B2) (B1) (A1) (B2)
                 (A2) (A1) (B2) (B1) (B2) (A1) (A2) (A1) (B1)
   690 initial guesses have been made.
 Convergence on wavefunction:    0.001000000000000
 Davidson Disk Diagonalization:  ConvIn= 1.00D-03 SkipCon=T Conv= 1.00D-03.
 Max sub-space:  4140 roots to seek:  1380 dimension of matrix:         1380
 *** WARNING: Number of orthogonal guesses is          690
 Iteration     1 Dimension   690 NMult     0 NNew    690
 CISAX will form   690 AO SS matrices at one time.
 NMat=   690 NSing=   690 JSym2X=-1.
 New state      4 was old state      7
 New state      5 was old state      6
 New state      6 was old state      5
 New state      7 was old state      8
 New state      8 was old state     12
 New state     11 was old state     13
 New state     12 was old state     11
 New state     13 was old state      4
 New state     14 was old state     15
 New state     15 was old state     14
 New state     16 was old state     19
 New state     17 was old state     16
 New state     18 was old state     17
 New state     19 was old state     24
 New state     20 was old state     21
 New state     21 was old state     25
 New state     22 was old state     18
 New state     23 was old state     29
 New state     24 was old state     26
 New state     25 was old state     20
 New state     26 was old state     30
 New state     28 was old state     22
 New state     29 was old state     23
 New state     30 was old state     28
 New state     31 was old state     32
 New state     32 was old state     36
 New state     34 was old state     31
 New state     36 was old state     45
 New state     37 was old state     34
 New state     38 was old state     43
 New state     40 was old state     37
 New state     41 was old state     42
 New state     42 was old state     44
 New state     43 was old state     38
 New state     44 was old state     53
 New state     45 was old state     46
 New state     46 was old state     40
 New state     47 was old state     41
 New state     48 was old state     50
 New state     49 was old state     48
 New state     50 was old state     55
 New state     52 was old state     56
 New state     53 was old state     49
 New state     54 was old state     47
 New state     55 was old state     54
 New state     56 was old state     61
 New state     58 was old state     52
 New state     59 was old state     58
 New state     61 was old state     59
 New state     63 was old state     65
 New state     64 was old state     63
 New state     65 was old state     67
 New state     66 was old state     64
 New state     67 was old state     66
 New state     68 was old state     69
 New state     69 was old state     73
 New state     70 was old state     68
 New state     71 was old state     74
 New state     72 was old state     71
 New state     73 was old state     72
 New state     74 was old state     70
 New state     75 was old state     76
 New state     76 was old state     77
 New state     77 was old state     75
 New state     78 was old state     86
 New state     79 was old state     78
 New state     80 was old state     84
 New state     81 was old state     79
 New state     83 was old state     80
 New state     84 was old state     83
 New state     85 was old state     88
 New state     86 was old state     85
 New state     87 was old state     89
 New state     88 was old state     90
 New state     89 was old state     91
 New state     90 was old state     81
 New state     91 was old state     93
 New state     92 was old state     99
 New state     93 was old state     92
 New state     94 was old state    100
 New state     95 was old state     98
 New state     96 was old state    101
 New state     97 was old state     95
 New state     98 was old state     96
 New state     99 was old state     97
 New state    100 was old state    107
 New state    101 was old state     94
 New state    103 was old state    104
 New state    104 was old state    106
 New state    105 was old state    108
 New state    106 was old state    103
 New state    107 was old state    113
 New state    108 was old state    118
 New state    109 was old state    105
 New state    110 was old state    116
 New state    111 was old state    109
 New state    112 was old state    110
 New state    113 was old state    115
 New state    114 was old state    112
 New state    115 was old state    114
 New state    116 was old state    111
 New state    118 was old state    125
 New state    119 was old state    121
 New state    120 was old state    119
 New state    121 was old state    126
 New state    122 was old state    120
 No map to state    123
 New state    124 was old state    123
 New state    125 was old state    124
 New state    126 was old state    122
 New state    130 was old state    131
 New state    131 was old state    130
 New state    132 was old state    137
 New state    133 was old state    138
 New state    134 was old state    139
 New state    135 was old state    136
 New state    136 was old state    134
 New state    137 was old state    140
 New state    138 was old state    141
 New state    139 was old state    132
 New state    140 was old state    135
 New state    141 was old state    143
 New state    142 was old state    133
 New state    143 was old state    146
 New state    144 was old state    142
 New state    145 was old state    148
 New state    146 was old state    149
 New state    147 was old state    145
 New state    148 was old state    151
 New state    149 was old state    150
 New state    150 was old state    144
 New state    151 was old state    158
 New state    152 was old state    155
 New state    153 was old state    166
 New state    154 was old state    153
 New state    155 was old state    167
 New state    156 was old state    160
 New state    157 was old state    162
 New state    158 was old state    165
 New state    159 was old state    156
 New state    160 was old state    154
 New state    161 was old state    163
 New state    162 was old state    161
 New state    163 was old state    157
 New state    164 was old state    174
 New state    165 was old state    179
 New state    166 was old state    177
 New state    167 was old state    152
 New state    168 was old state    159
 New state    169 was old state    173
 New state    170 was old state    178
 New state    171 was old state    176
 New state    172 was old state    184
 New state    173 was old state    175
 New state    174 was old state    183
 New state    175 was old state    164
 New state    176 was old state    171
 New state    177 was old state    172
 New state    178 was old state    182
 New state    179 was old state    168
 New state    180 was old state    187
 New state    181 was old state    169
 New state    182 was old state    180
 New state    183 was old state    170
 New state    184 was old state    181
 New state    185 was old state    192
 New state    186 was old state    195
 New state    187 was old state    190
 New state    188 was old state    185
 New state    189 was old state    202
 New state    190 was old state    191
 New state    191 was old state    188
 New state    192 was old state    189
 New state    193 was old state    199
 New state    194 was old state    198
 New state    195 was old state    207
 New state    196 was old state    206
 New state    197 was old state    203
 New state    198 was old state    201
 New state    199 was old state    205
 New state    200 was old state    194
 New state    201 was old state    197
 New state    202 was old state    204
 New state    203 was old state    209
 New state    204 was old state    200
 New state    205 was old state    196
 New state    206 was old state    213
 New state    207 was old state    212
 New state    209 was old state    210
 New state    210 was old state    215
 New state    211 was old state    214
 New state    212 was old state    211
 New state    213 was old state    228
 New state    214 was old state    218
 New state    215 was old state    216
 New state    216 was old state    193
 New state    217 was old state    219
 New state    218 was old state    217
 New state    219 was old state    222
 New state    221 was old state    223
 New state    222 was old state    221
 New state    223 was old state    226
 New state    224 was old state    229
 New state    226 was old state    230
 New state    228 was old state    224
 New state    229 was old state    231
 New state    230 was old state    232
 New state    231 was old state    235
 New state    232 was old state    234
 New state    234 was old state    242
 New state    235 was old state    236
 New state    236 was old state    244
 New state    237 was old state    238
 New state    238 was old state    239
 New state    239 was old state    240
 New state    240 was old state    241
 New state    241 was old state    237
 New state    242 was old state    243
 New state    243 was old state    245
 New state    244 was old state    246
 New state    245 was old state    251
 New state    246 was old state    259
 New state    248 was old state    250
 New state    250 was old state    253
 New state    251 was old state    254
 New state    253 was old state    248
 New state    254 was old state    255
 New state    255 was old state    256
 New state    256 was old state    261
 New state    257 was old state    258
 New state    258 was old state    260
 New state    259 was old state    257
 New state    260 was old state    262
 New state    261 was old state    264
 New state    262 was old state    263
 New state    263 was old state    265
 New state    264 was old state    267
 New state    265 was old state    276
 New state    266 was old state    268
 New state    267 was old state    266
 New state    268 was old state    269
 New state    269 was old state    275
 New state    271 was old state    273
 New state    273 was old state    279
 New state    275 was old state    277
 New state    276 was old state    278
 New state    277 was old state    271
 New state    278 was old state    287
 New state    279 was old state    284
 New state    280 was old state    285
 New state    281 was old state    282
 New state    282 was old state    280
 New state    283 was old state    289
 New state    284 was old state    281
 New state    285 was old state    288
 New state    286 was old state    283
 New state    287 was old state    294
 New state    288 was old state    291
 New state    289 was old state    292
 New state    290 was old state    293
 New state    291 was old state    286
 New state    292 was old state    290
 New state    293 was old state    297
 New state    294 was old state    298
 New state    295 was old state    301
 New state    297 was old state    300
 New state    298 was old state    299
 New state    299 was old state    295
 No map to state    300
 New state    301 was old state    302
 New state    302 was old state    307
 New state    306 was old state    308
 New state    307 was old state    306
 New state    308 was old state    309
 No map to state    309
 New state    312 was old state    313
 New state    313 was old state    312
 New state    316 was old state    319
 New state    317 was old state    316
 New state    318 was old state    321
 New state    319 was old state    322
 New state    320 was old state    318
 New state    321 was old state    317
 New state    322 was old state    323
 New state    323 was old state    324
 New state    324 was old state    320
 New state    327 was old state    328
 New state    328 was old state    327
 New state    329 was old state    330
 New state    330 was old state    329
 New state    334 was old state    335
 New state    335 was old state    334
 New state    336 was old state    337
 New state    337 was old state    336
 New state    340 was old state    341
 New state    341 was old state    340
 New state    342 was old state    343
 New state    343 was old state    345
 New state    345 was old state    346
 New state    346 was old state    342
 New state    351 was old state    352
 New state    352 was old state    351
 New state    354 was old state    356
 New state    355 was old state    354
 New state    356 was old state    355
 New state    363 was old state    365
 New state    364 was old state    363
 New state    365 was old state    364
 New state    367 was old state    368
 New state    368 was old state    367
 New state    369 was old state    370
 New state    370 was old state    374
 New state    371 was old state    369
 New state    373 was old state    371
 New state    374 was old state    373
 New state    377 was old state    379
 New state    378 was old state    377
 New state    379 was old state    378
 New state    381 was old state    382
 New state    382 was old state    385
 New state    383 was old state    394
 New state    384 was old state    388
 New state    385 was old state    381
 New state    387 was old state    390
 New state    388 was old state    383
 New state    389 was old state    387
 New state    390 was old state    384
 New state    392 was old state    389
 New state    394 was old state    395
 New state    395 was old state    392
 New state    396 was old state    410
 New state    397 was old state    402
 New state    398 was old state    401
 New state    400 was old state    397
 New state    401 was old state    400
 New state    402 was old state    403
 New state    403 was old state    396
 New state    404 was old state    405
 New state    405 was old state    409
 New state    406 was old state    398
 New state    407 was old state    412
 New state    408 was old state    413
 New state    409 was old state    404
 New state    410 was old state    407
 New state    412 was old state    414
 New state    413 was old state    406
 New state    414 was old state    416
 New state    415 was old state    419
 New state    416 was old state    408
 New state    417 was old state    415
 New state    418 was old state    424
 New state    419 was old state    417
 New state    420 was old state    423
 New state    421 was old state    418
 New state    422 was old state    420
 New state    423 was old state    426
 New state    424 was old state    425
 New state    425 was old state    422
 New state    426 was old state    421
 New state    427 was old state    428
 New state    428 was old state    430
 New state    429 was old state    427
 New state    430 was old state    429
 New state    432 was old state    434
 New state    433 was old state    438
 New state    434 was old state    437
 New state    435 was old state    436
 New state    436 was old state    432
 New state    437 was old state    435
 New state    438 was old state    433
 New state    439 was old state    440
 New state    440 was old state    439
 New state    441 was old state    445
 New state    442 was old state    441
 New state    443 was old state    444
 New state    444 was old state    446
 New state    445 was old state    443
 New state    446 was old state    442
 New state    448 was old state    450
 New state    449 was old state    451
 New state    450 was old state    449
 New state    451 was old state    448
 New state    452 was old state    454
 New state    453 was old state    452
 New state    454 was old state    456
 New state    455 was old state    453
 New state    456 was old state    455
 New state    457 was old state    462
 New state    459 was old state    457
 New state    461 was old state    464
 New state    462 was old state    463
 New state    463 was old state    459
 New state    464 was old state    461
 New state    465 was old state    466
 New state    466 was old state    465
 New state    469 was old state    470
 New state    470 was old state    469
 New state    475 was old state    476
 New state    476 was old state    475
 New state    479 was old state    481
 New state    480 was old state    483
 New state    481 was old state    479
 New state    483 was old state    484
 New state    484 was old state    480
 New state    485 was old state    486
 New state    486 was old state    485
 New state    489 was old state    490
 New state    490 was old state    489
 New state    491 was old state    492
 New state    492 was old state    491
 New state    497 was old state    498
 New state    498 was old state    497
 New state    501 was old state    504
 New state    502 was old state    501
 New state    503 was old state    502
 New state    504 was old state    507
 New state    505 was old state    503
 New state    507 was old state    508
 New state    508 was old state    505
 New state    511 was old state    513
 New state    512 was old state    511
 New state    513 was old state    512
 New state    515 was old state    517
 New state    516 was old state    515
 New state    517 was old state    519
 New state    518 was old state    516
 New state    519 was old state    518
 New state    524 was old state    527
 New state    526 was old state    524
 New state    527 was old state    526
 New state    528 was old state    533
 New state    529 was old state    528
 New state    530 was old state    532
 New state    531 was old state    529
 New state    532 was old state    531
 New state    533 was old state    530
 New state    536 was old state    537
 New state    537 was old state    538
 New state    538 was old state    539
 New state    539 was old state    540
 New state    540 was old state    536
 New state    541 was old state    542
 New state    542 was old state    541
 New state    543 was old state    545
 New state    544 was old state    548
 New state    545 was old state    543
 New state    546 was old state    544
 New state    548 was old state    546
 New state    549 was old state    550
 New state    550 was old state    552
 New state    552 was old state    549
 New state    556 was old state    557
 New state    557 was old state    556
 New state    559 was old state    561
 New state    560 was old state    559
 New state    561 was old state    560
 New state    564 was old state    565
 New state    565 was old state    567
 New state    566 was old state    564
 New state    567 was old state    566
 New state    568 was old state    569
 New state    569 was old state    568
 New state    570 was old state    572
 New state    571 was old state    570
 New state    572 was old state    573
 New state    573 was old state    571
 New state    575 was old state    576
 New state    576 was old state    577
 New state    577 was old state    578
 New state    578 was old state    575
 New state    581 was old state    582
 New state    582 was old state    581
 New state    583 was old state    588
 New state    585 was old state    583
 New state    586 was old state    587
 New state    587 was old state    585
 New state    588 was old state    592
 New state    589 was old state    591
 New state    590 was old state    586
 New state    591 was old state    590
 New state    592 was old state    594
 New state    593 was old state    589
 New state    594 was old state    595
 New state    595 was old state    593
 New state    600 was old state    601
 New state    601 was old state    600
 New state    605 was old state    606
 New state    606 was old state    605
 New state    607 was old state    608
 New state    608 was old state    607
 New state    611 was old state    612
 New state    612 was old state    613
 New state    613 was old state    611
 New state    615 was old state    616
 New state    616 was old state    615
 New state    618 was old state    619
 New state    619 was old state    618
 New state    620 was old state    625
 New state    622 was old state    626
 New state    623 was old state    622
 New state    624 was old state    623
 New state    625 was old state    620
 New state    626 was old state    629
 New state    629 was old state    630
 New state    630 was old state    624
 New state    632 was old state    633
 New state    633 was old state    636
 New state    635 was old state    632
 New state    636 was old state    635
 New state    637 was old state    638
 New state    638 was old state    637
 New state    639 was old state    643
 New state    640 was old state    641
 New state    641 was old state    639
 New state    643 was old state    640
 New state    644 was old state    645
 New state    645 was old state    644
 New state    646 was old state    648
 New state    647 was old state    650
 New state    648 was old state    647
 New state    649 was old state    646
 New state    650 was old state    652
 New state    651 was old state    653
 New state    652 was old state    649
 New state    653 was old state    656
 New state    654 was old state    651
 New state    655 was old state    654
 New state    656 was old state    657
 New state    657 was old state    655
 New state    658 was old state    659
 New state    659 was old state    660
 New state    660 was old state    658
 New state    661 was old state    663
 New state    662 was old state    661
 New state    663 was old state    665
 New state    664 was old state    662
 New state    665 was old state    664
 New state    669 was old state    670
 New state    670 was old state    669
 New state    671 was old state    672
 New state    672 was old state    671
 New state    673 was old state    674
 New state    674 was old state    673
 New state    677 was old state    680
 New state    678 was old state    677
 New state    679 was old state    682
 New state    680 was old state    678
 New state    681 was old state    679
 New state    682 was old state    681
 New state    684 was old state    685
 New state    685 was old state    684
 Excitation Energies [eV] at current iteration:
 Root      1 :     9.996156883942124
 Root      2 :    10.417036504610690
 Root      3 :    10.475352834884800
 Root      4 :    11.179677587076610
 Root      5 :    11.436578559719560
 Root      6 :    11.466562971824100
 Root      7 :    11.562428022340630
 Root      8 :    11.626759581135650
 Root      9 :    11.695309484972670
 Root     10 :    11.788618845631950
 Root     11 :    11.838302633019050
 Root     12 :    11.867533009125410
 Root     13 :    12.011348919523460
 Root     14 :    12.159047926007860
 Root     15 :    12.521736030362960
 Root     16 :    12.522787448358830
 Root     17 :    12.545954631713730
 Root     18 :    12.604422172978200
 Root     19 :    12.772361215134240
 Root     20 :    12.775347139742480
 Root     21 :    12.905858582654750
 Root     22 :    12.932222672593050
 Root     23 :    12.971534758814990
 Root     24 :    13.085010013239650
 Root     25 :    13.111174805859060
 Root     26 :    13.128647539402970
 Root     27 :    13.335902253691660
 Root     28 :    13.370092418615430
 Root     29 :    13.386370137007300
 Root     30 :    13.454365407739260
 Root     31 :    13.735490146453420
 Root     32 :    13.813655961354680
 Root     33 :    13.842048680673930
 Root     34 :    13.942966380135680
 Root     35 :    14.009088383286930
 Root     36 :    14.092356746734720
 Root     37 :    14.101654471890500
 Root     38 :    14.182606523684390
 Root     39 :    14.363661547438190
 Root     40 :    14.389103396362810
 Root     41 :    14.587111058135880
 Root     42 :    14.639673763397040
 Root     43 :    14.665930337588910
 Root     44 :    14.749477263497590
 Root     45 :    14.805171967773530
 Root     46 :    14.968517119425020
 Root     47 :    14.998407042729680
 Root     48 :    15.165618192442930
 Root     49 :    15.251211346801930
 Root     50 :    15.264045350224970
 Root     51 :    15.367818071374150
 Root     52 :    15.510077304039030
 Root     53 :    15.542787233240000
 Root     54 :    15.565930219258220
 Root     55 :    15.628651314661510
 Root     56 :    15.928476735850520
 Root     57 :    16.000861726391490
 Root     58 :    16.026182161040950
 Root     59 :    16.265408122079450
 Root     60 :    16.302391895928840
 Root     61 :    16.500749560265290
 Root     62 :    16.568344494425970
 Root     63 :    16.590417789979690
 Root     64 :    16.772460274269370
 Root     65 :    16.864951366741900
 Root     66 :    17.061988016748940
 Root     67 :    17.329109770123430
 Root     68 :    17.553760575548620
 Root     69 :    18.077718710483520
 Root     70 :    18.171206736828980
 Root     71 :    18.526207956343890
 Root     72 :    18.535992747308480
 Root     73 :    18.803118281863450
 Root     74 :    18.999792714450380
 Root     75 :    19.132727963408650
 Root     76 :    19.299790541351110
 Root     77 :    19.702506770439700
 Root     78 :    19.714122535673930
 Root     79 :    19.730347759037940
 Root     80 :    19.751818739762500
 Root     81 :    19.938813778298810
 Root     82 :    20.100117207338670
 Root     83 :    20.136541901390330
 Root     84 :    20.179145087232450
 Root     85 :    20.320473145309880
 Root     86 :    20.330227093939410
 Root     87 :    20.394086294095830
 Root     88 :    20.414955674296900
 Root     89 :    20.441797178259460
 Root     90 :    20.555618289653510
 Root     91 :    20.714309118214630
 Root     92 :    20.875643523512230
 Root     93 :    20.950672239698520
 Root     94 :    21.052465385068090
 Root     95 :    21.053895971104860
 Root     96 :    21.365718797539770
 Root     97 :    21.435465632191800
 Root     98 :    21.477443220890600
 Root     99 :    21.550547700723130
 Root    100 :    21.712229406665490
 Root    101 :    21.734302295353040
 Root    102 :    21.742836211205990
 Root    103 :    21.880867921760380
 Root    104 :    21.903098467256380
 Root    105 :    22.315076347676610
 Root    106 :    22.395595398449210
 Root    107 :    22.444514512787910
 Root    108 :    22.461136199192390
 Root    109 :    22.581653378918900
 Root    110 :    22.617345527422370
 Root    111 :    22.700564513583540
 Root    112 :    22.776779815646270
 Root    113 :    22.811937114340250
 Root    114 :    22.861841923112580
 Root    115 :    22.919652517125110
 Root    116 :    23.051195260988730
 Root    117 :    23.252868163856320
 Root    118 :    23.469534767706400
 Root    119 :    23.475951651240120
 Root    120 :    23.658388181061310
 Root    121 :    23.748435805092200
 Root    122 :    23.771149961110510
 Root    123 :    23.811138120635510
 Root    124 :    24.062142844634370
 Root    125 :    24.204748947579130
 Root    126 :    24.290004348016720
 Root    127 :    24.448818498384200
 Root    128 :    24.572245072579660
 Root    129 :    24.935324880336420
 Root    130 :    24.939046430719620
 Root    131 :    25.126346236756730
 Root    132 :    25.207175912653330
 Root    133 :    25.224412811758440
 Root    134 :    25.314116975219040
 Root    135 :    25.330159343023690
 Root    136 :    25.391709114892520
 Root    137 :    25.409887854833690
 Root    138 :    25.419162824950590
 Root    139 :    25.450626546656280
 Root    140 :    25.671052436038000
 Root    141 :    25.761743189171630
 Root    142 :    25.770886711604910
 Root    143 :    25.850166601490400
 Root    144 :    25.944461102193590
 Root    145 :    26.046495998505480
 Root    146 :    26.165147122382720
 Root    147 :    26.174242946968570
 Root    148 :    26.323073726357020
 Root    149 :    26.370780617878180
 Root    150 :    26.458314553220010
 Root    151 :    26.634469776600930
 Root    152 :    26.710209704843740
 Root    153 :    26.748774704689910
 Root    154 :    26.751423382047730
 Root    155 :    26.795689199875290
 Root    156 :    26.907757845577570
 Root    157 :    26.938185761557050
 Root    158 :    26.960629785475820
 Root    159 :    26.975004677138620
 Root    160 :    27.013176415201560
 Root    161 :    27.048752459605180
 Root    162 :    27.071849165125960
 Root    163 :    27.134829646557950
 Root    164 :    27.150472774496680
 Root    165 :    27.188459527610550
 Root    166 :    27.231813795375760
 Root    167 :    27.242554394366540
 Root    168 :    27.287323834318630
 Root    169 :    27.295681179696170
 Root    170 :    27.401031128728860
 Root    171 :    27.435988112302900
 Root    172 :    27.594838506514630
 Root    173 :    27.647247218457750
 Root    174 :    27.747745957822330
 Root    175 :    27.784911828544900
 Root    176 :    27.832707419064310
 Root    177 :    27.847969361034810
 Root    178 :    27.857563449545880
 Root    179 :    28.001335804097900
 Root    180 :    28.005275311159320
 Root    181 :    28.044452103899300
 Root    182 :    28.051647172135570
 Root    183 :    28.209697105795980
 Root    184 :    28.372911842911630
 Root    185 :    28.391195362109100
 Root    186 :    28.439111232782270
 Root    187 :    28.549149763451660
 Root    188 :    28.569557172737890
 Root    189 :    28.603825925256780
 Root    190 :    28.617812168405880
 Root    191 :    28.702899494410140
 Root    192 :    28.730539434856690
 Root    193 :    28.828750094073150
 Root    194 :    28.890019828221190
 Root    195 :    28.891804198435770
 Root    196 :    28.956918547319710
 Root    197 :    29.044638081433320
 Root    198 :    29.056536823890010
 Root    199 :    29.057836745928170
 Root    200 :    29.156905993560380
 Root    201 :    29.162280667626170
 Root    202 :    29.251973399306750
 Root    203 :    29.300971499326070
 Root    204 :    29.382098433970040
 Root    205 :    29.440853107604680
 Root    206 :    29.681493935846400
 Root    207 :    29.702386017088070
 Root    208 :    29.732313664312300
 Root    209 :    29.754012283566180
 Root    210 :    29.815482416838620
 Root    211 :    29.825068416497490
 Root    212 :    29.884839425003610
 Root    213 :    29.953464448017190
 Root    214 :    30.018526922595350
 Root    215 :    30.327246388217690
 Root    216 :    30.352880107640700
 Root    217 :    30.428247570755840
 Root    218 :    30.541508722055860
 Root    219 :    30.577803249691380
 Root    220 :    30.583703912999430
 Root    221 :    30.676946170379380
 Root    222 :    30.719266315394980
 Root    223 :    30.731795975466500
 Root    224 :    30.798864929025920
 Root    225 :    30.994417091791790
 Root    226 :    30.999920609678970
 Root    227 :    31.128305680030320
 Root    228 :    31.156447419158090
 Root    229 :    31.318964017676660
 Root    230 :    31.504999110014060
 Root    231 :    31.626576069585100
 Root    232 :    31.640333693046480
 Root    233 :    31.671704421733240
 Root    234 :    31.951524998420020
 Root    235 :    32.021539515066710
 Root    236 :    32.136232787639010
 Root    237 :    32.258119469405120
 Root    238 :    32.474108902693720
 Root    239 :    32.541469710119310
 Root    240 :    32.620402096341980
 Root    241 :    32.664977048572570
 Root    242 :    32.701090176002120
 Root    243 :    33.112610820144550
 Root    244 :    33.191621591517060
 Root    245 :    33.220509976976440
 Root    246 :    33.807525266186890
 Root    247 :    34.179078490073880
 Root    248 :    34.339628739295750
 Root    249 :    34.456482521821410
 Root    250 :    34.589106333475090
 Root    251 :    34.866481826512530
 Root    252 :    34.932878963816980
 Root    253 :    35.125251374639470
 Root    254 :    35.304102978365700
 Root    255 :    35.367313765979860
 Root    256 :    35.454057072116080
 Root    257 :    35.494219162834820
 Root    258 :    35.645304738702170
 Root    259 :    35.774221792639300
 Root    260 :    35.883822302057580
 Root    261 :    35.952371118164600
 Root    262 :    35.994251536157220
 Root    263 :    36.025700343730680
 Root    264 :    36.513500200785270
 Root    265 :    36.576159850482600
 Root    266 :    36.849886904462410
 Root    267 :    36.884616526813050
 Root    268 :    37.006649756398890
 Root    269 :    37.114987319202910
 Root    270 :    37.115422988882660
 Root    271 :    37.329982651645630
 Root    272 :    37.331834273774820
 Root    273 :    37.600392768651960
 Root    274 :    37.669490123507150
 Root    275 :    37.787255194409740
 Root    276 :    37.845728270964640
 Root    277 :    37.902079728167910
 Root    278 :    38.023072627335670
 Root    279 :    38.262551883260790
 Root    280 :    38.372531385218420
 Root    281 :    38.408725431033640
 Root    282 :    38.535629465238610
 Root    283 :    38.643465326762230
 Root    284 :    38.752389817699040
 Root    285 :    38.826784942994500
 Root    286 :    38.857678666001070
 Root    287 :    38.975435762407020
 Root    288 :    39.204110671379720
 Root    289 :    39.385589974755220
 Root    290 :    39.464790061268610
 Root    291 :    39.546044997353550
 Root    292 :    39.589258580911120
 Root    293 :    39.779988079485800
 Root    294 :    39.837542097491980
 Root    295 :    39.927545302369570
 Root    296 :    40.045382394007050
 Root    297 :    40.196025237384510
 Root    298 :    40.220246529597250
 Root    299 :    40.321659885285900
 Root    300 :    40.352998731260030
 Root    301 :    40.409707652160480
 Root    302 :    40.486294601172060
 Root    303 :    41.329206556660810
 Root    304 :    41.377705801157110
 Root    305 :    41.544531818328170
 Root    306 :    42.238114013260940
 Root    307 :    42.306974083807750
 Root    308 :    42.385860246558910
 Root    309 :    42.486899549583480
 Root    310 :    42.943698920588960
 Root    311 :    43.186389291284160
 Root    312 :    43.716188771492040
 Root    313 :    43.737795263613530
 Root    314 :    44.771255665752750
 Root    315 :    45.083331099803970
 Root    316 :    45.087648060856810
 Root    317 :    45.365370815525350
 Root    318 :    45.405987977536580
 Root    319 :    45.495373088792700
 Root    320 :    45.559803111012530
 Root    321 :    45.629057113009350
 Root    322 :    45.665618187877390
 Root    323 :    45.843074143522290
 Root    324 :    45.855164896373230
 Root    325 :    46.273678919303290
 Root    326 :    46.478579522865340
 Root    327 :    46.822932881494900
 Root    328 :    46.945743685418710
 Root    329 :    47.240680317919740
 Root    330 :    47.324210240366750
 Root    331 :    47.431568765626400
 Root    332 :    47.643138365399640
 Root    333 :    48.216720568216390
 Root    334 :    48.224064991476200
 Root    335 :    48.344731619776300
 Root    336 :    48.743987755460250
 Root    337 :    48.851419353333830
 Root    338 :    49.016954806109530
 Root    339 :    49.302279179661040
 Root    340 :    50.165672005412150
 Root    341 :    50.174163069521680
 Root    342 :    50.284554695533980
 Root    343 :    50.288396955254900
 Root    344 :    50.339483645434440
 Root    345 :    50.375754818080600
 Root    346 :    50.391546459950770
 Root    347 :    50.738590045314360
 Root    348 :    50.812467987420600
 Root    349 :    51.308612447970910
 Root    350 :    51.315442251998500
 Root    351 :    51.390432315801190
 Root    352 :    51.807728712044220
 Root    353 :    51.875375419591760
 Root    354 :    52.288773359306080
 Root    355 :    52.367427764245990
 Root    356 :    52.412491842024120
 Root    357 :    52.472559473203430
 Root    358 :    52.656727128811510
 Root    359 :    52.971024985453990
 Root    360 :    53.144555234461230
 Root    361 :    53.722411866115120
 Root    362 :    53.767471060283130
 Root    363 :    54.096864632527660
 Root    364 :    54.197268444771810
 Root    365 :    54.241228760126160
 Root    366 :    54.380945180272570
 Root    367 :    54.585872603206230
 Root    368 :    54.965518048151620
 Root    369 :    55.100621894966760
 Root    370 :    55.202241454197340
 Root    371 :    55.345653557748960
 Root    372 :    55.547690852046720
 Root    373 :    55.608927622536880
 Root    374 :    55.672128840827530
 Root    375 :    55.880366031121440
 Root    376 :    55.963729547479280
 Root    377 :    56.157217198423680
 Root    378 :    56.234557849111240
 Root    379 :    56.297667300715090
 Root    380 :    56.711662384577690
 Root    381 :    56.732440612570940
 Root    382 :    56.877975773424250
 Root    383 :    57.014846199007180
 Root    384 :    57.037484614869370
 Root    385 :    57.059781419271570
 Root    386 :    57.061887106111670
 Root    387 :    57.079880789727080
 Root    388 :    57.181944603285790
 Root    389 :    57.343131649856320
 Root    390 :    57.353487069516060
 Root    391 :    57.364737204059520
 Root    392 :    57.387431871924260
 Root    393 :    57.526375450654970
 Root    394 :    57.538763697590050
 Root    395 :    57.717672425634600
 Root    396 :    57.725516371477330
 Root    397 :    57.768384205795660
 Root    398 :    57.862045866559850
 Root    399 :    57.915193758047920
 Root    400 :    58.013147508876120
 Root    401 :    58.116736883642020
 Root    402 :    58.159353248345010
 Root    403 :    58.196888333600820
 Root    404 :    58.271567212476870
 Root    405 :    58.315948765741320
 Root    406 :    58.486894365826930
 Root    407 :    58.527114358134850
 Root    408 :    58.558819508509730
 Root    409 :    58.588009792830730
 Root    410 :    58.594418274815600
 Root    411 :    58.819582909057980
 Root    412 :    58.822495655739300
 Root    413 :    58.865842354307630
 Root    414 :    58.967958428026490
 Root    415 :    58.971855101829160
 Root    416 :    59.074305477632400
 Root    417 :    59.087042898083570
 Root    418 :    59.240421740229140
 Root    419 :    59.288353510984120
 Root    420 :    59.296052814620740
 Root    421 :    59.319713602239820
 Root    422 :    59.565553680136770
 Root    423 :    59.611336092555870
 Root    424 :    59.612889254842020
 Root    425 :    59.674104758463830
 Root    426 :    59.680893024785900
 Root    427 :    59.925632052841240
 Root    428 :    59.992673293737410
 Root    429 :    60.013745797411890
 Root    430 :    60.197129330335830
 Root    431 :    60.308979395984300
 Root    432 :    60.310535908356120
 Root    433 :    60.386157480827630
 Root    434 :    60.514797415475340
 Root    435 :    60.536193454060180
 Root    436 :    60.547638193451140
 Root    437 :    60.583530588420150
 Root    438 :    60.586077354405030
 Root    439 :    60.613286205354330
 Root    440 :    60.860100859407350
 Root    441 :    60.975742116223250
 Root    442 :    61.025271095244310
 Root    443 :    61.194117822229460
 Root    444 :    61.216269402610790
 Root    445 :    61.242822488379670
 Root    446 :    61.289986877307420
 Root    447 :    61.476997623977720
 Root    448 :    61.791043459017100
 Root    449 :    61.805820832879990
 Root    450 :    61.838777236790150
 Root    451 :    61.859301275317660
 Root    452 :    61.993894979924340
 Root    453 :    62.034950449890220
 Root    454 :    62.265459095886840
 Root    455 :    62.277128861742380
 Root    456 :    62.506478476160850
 Root    457 :    62.522539129370670
 Root    458 :    62.549753917781540
 Root    459 :    62.575916545366660
 Root    460 :    62.652172527158360
 Root    461 :    62.768625310442250
 Root    462 :    62.777968272778570
 Root    463 :    62.944312649383330
 Root    464 :    63.033271843591070
 Root    465 :    63.123005191826570
 Root    466 :    63.297765244773880
 Root    467 :    63.353227809736690
 Root    468 :    63.585017616181100
 Root    469 :    64.113679184194540
 Root    470 :    64.166961574943240
 Root    471 :    64.251753791950560
 Root    472 :    64.319071670601100
 Root    473 :    64.479719421054330
 Root    474 :    64.646259143523620
 Root    475 :    64.775813496009650
 Root    476 :    64.794510651261550
 Root    477 :    65.069159432074810
 Root    478 :    65.083449444018630
 Root    479 :    65.249711280663850
 Root    480 :    65.376832841501870
 Root    481 :    65.386766279456130
 Root    482 :    65.477811017301160
 Root    483 :    65.538051272384580
 Root    484 :    65.660914564623670
 Root    485 :    65.942783807968440
 Root    486 :    66.010758973556460
 Root    487 :    66.188971028467920
 Root    488 :    66.253914396344160
 Root    489 :    66.743033692243470
 Root    490 :    66.780299902886000
 Root    491 :    66.996526167255200
 Root    492 :    67.004535550912270
 Root    493 :    67.233620334776650
 Root    494 :    67.370061626154400
 Root    495 :    67.397907834360550
 Root    496 :    67.906249320304770
 Root    497 :    68.152567588920620
 Root    498 :    68.219015943124190
 Root    499 :    68.390711582912230
 Root    500 :    68.438324638973000
 Root    501 :    68.455319287795040
 Root    502 :    68.741168686177910
 Root    503 :    68.766167219840010
 Root    504 :    68.796732991253850
 Root    505 :    68.805827058889310
 Root    506 :    68.829801591413700
 Root    507 :    68.961007473560430
 Root    508 :    69.037435144168010
 Root    509 :    69.278755066193090
 Root    510 :    69.332952982144420
 Root    511 :    69.708673701390130
 Root    512 :    69.717456825484080
 Root    513 :    69.931557855574440
 Root    514 :    69.995500687582760
 Root    515 :    70.236609668952500
 Root    516 :    70.311032139573700
 Root    517 :    70.591386185055040
 Root    518 :    70.620567909465780
 Root    519 :    70.663207502650920
 Root    520 :    70.768900589884910
 Root    521 :    70.833703088019620
 Root    522 :    71.202547342279060
 Root    523 :    71.318710037005350
 Root    524 :    71.520972887856200
 Root    525 :    71.546135483033990
 Root    526 :    71.696736097000810
 Root    527 :    72.002957242036100
 Root    528 :    72.150703380245670
 Root    529 :    72.260833937018670
 Root    530 :    72.410522766571560
 Root    531 :    72.431475404030220
 Root    532 :    72.440303090301340
 Root    533 :    72.636152251230270
 Root    534 :    72.994959106241720
 Root    535 :    73.243182366939540
 Root    536 :    73.307159743303770
 Root    537 :    73.348022289006820
 Root    538 :    73.557998567049280
 Root    539 :    73.591512822189060
 Root    540 :    73.642624645452220
 Root    541 :    73.855975813134040
 Root    542 :    74.059587626202930
 Root    543 :    74.568819186836820
 Root    544 :    74.831419818596470
 Root    545 :    74.870897570222670
 Root    546 :    75.007806906820950
 Root    547 :    75.013956566542570
 Root    548 :    75.095817808044440
 Root    549 :    75.136130470269440
 Root    550 :    75.240680772484820
 Root    551 :    75.351117981509150
 Root    552 :    75.369267189403640
 Root    553 :    75.498109490107880
 Root    554 :    75.896318944610200
 Root    555 :    76.089981875355330
 Root    556 :    76.432174896916750
 Root    557 :    76.541578630854160
 Root    558 :    76.635008855890280
 Root    559 :    76.740347825707830
 Root    560 :    76.831269036912270
 Root    561 :    77.039612538287840
 Root    562 :    77.214352912669580
 Root    563 :    77.463104663877840
 Root    564 :    77.638123439103420
 Root    565 :    77.777699424693990
 Root    566 :    77.797798840913430
 Root    567 :    77.940167799551800
 Root    568 :    78.213818386929420
 Root    569 :    78.335322511245310
 Root    570 :    78.433083416545800
 Root    571 :    78.592458067111890
 Root    572 :    78.701500748463260
 Root    573 :    78.745048965726030
 Root    574 :    78.862146884019300
 Root    575 :    79.156846211664730
 Root    576 :    79.230543337537010
 Root    577 :    79.379969474940990
 Root    578 :    79.391615063089520
 Root    579 :    79.658089485698350
 Root    580 :    79.845067747577420
 Root    581 :    80.263701445508450
 Root    582 :    80.402144883359130
 Root    583 :    80.427485341905470
 Root    584 :    80.546123754086380
 Root    585 :    80.554693107213240
 Root    586 :    80.622291470943310
 Root    587 :    80.624648809311130
 Root    588 :    80.908580264813620
 Root    589 :    81.018540945847550
 Root    590 :    81.089848247655980
 Root    591 :    81.144424046442010
 Root    592 :    81.300565818878130
 Root    593 :    81.480138469722590
 Root    594 :    81.794527071186720
 Root    595 :    82.131353073430390
 Root    596 :    82.173468822156540
 Root    597 :    82.267237800033810
 Root    598 :    82.327592854544960
 Root    599 :    82.413154438981050
 Root    600 :    82.975192629547100
 Root    601 :    83.126932750952210
 Root    602 :    83.417544642021840
 Root    603 :    83.989084171765340
 Root    604 :    84.302628201979600
 Root    605 :    84.639796972305060
 Root    606 :    84.695477903621120
 Root    607 :    85.112842632221300
 Root    608 :    85.223146686403550
 Root    609 :    85.468199503314010
 Root    610 :    85.551453103509930
 Root    611 :    85.626746316572180
 Root    612 :    85.844437126697240
 Root    613 :    85.918630073840380
 Root    614 :    85.937210760111030
 Root    615 :    86.055970532699330
 Root    616 :    86.072239792363080
 Root    617 :    86.649619247649000
 Root    618 :    87.022605973160580
 Root    619 :    87.108017940118830
 Root    620 :    87.141721950232030
 Root    621 :    87.157693258932700
 Root    622 :    87.273928785298200
 Root    623 :    87.299360799246510
 Root    624 :    87.400303118282550
 Root    625 :    87.430930718033110
 Root    626 :    87.640635080865050
 Root    627 :    87.649992536797340
 Root    628 :    87.750770651756110
 Root    629 :    87.890332029545580
 Root    630 :    88.140673120779010
 Root    631 :    88.176835327660470
 Root    632 :    88.256190509396090
 Root    633 :    88.547185237102350
 Root    634 :    88.631864759875610
 Root    635 :    88.751356446264550
 Root    636 :    88.787525428776360
 Root    637 :    89.372860352503610
 Root    638 :    89.432007180236500
 Root    639 :    89.501402921690200
 Root    640 :    89.836931897712720
 Root    641 :    89.857171973745380
 Root    642 :    90.063776261663780
 Root    643 :    90.275037291305410
 Root    644 :    90.391168119564910
 Root    645 :    90.417853628068040
 Root    646 :    90.537086256228380
 Root    647 :    90.789858954885840
 Root    648 :    90.802328260236920
 Root    649 :    90.906907834010520
 Root    650 :    90.985623197909720
 Root    651 :    91.138771263981500
 Root    652 :    91.198488863686990
 Root    653 :    91.245905098755050
 Root    654 :    91.268182827673390
 Root    655 :    91.272772077621030
 Root    656 :    91.403866859547420
 Root    657 :    91.860394227886670
 Root    658 :    92.246981632629840
 Root    659 :    92.407110297937610
 Root    660 :    92.549127759926040
 Root    661 :    92.803244159925770
 Root    662 :    92.833651369097670
 Root    663 :    93.080132646752300
 Root    664 :    93.096329423964630
 Root    665 :    93.212392029507430
 Root    666 :    93.702704112768590
 Root    667 :    93.803319173179420
 Root    668 :    93.976713377027790
 Root    669 :    94.375350894011690
 Root    670 :    94.411211259296720
 Root    671 :    94.630230671288500
 Root    672 :    94.691079204843850
 Root    673 :    95.018936879643550
 Root    674 :    95.065532392751750
 Root    675 :    95.450087564707570
 Root    676 :    96.440192158294850
 Root    677 :    97.282624337928000
 Root    678 :    97.466086642902470
 Root    679 :    97.634599060061960
 Root    680 :    97.712593594796180
 Root    681 :    98.208442345111540
 Root    682 :    98.659101505385620
 Root    683 :    99.099327604521580
 Root    684 :    99.841458829899270
 Root    685 :   100.115746957942600
 Root    686 :   100.977528259922600
 Root    687 :   101.261437452024200
 Root    688 :   102.655303331925200
 Root    689 :   103.128928149626400
 Root    690 :   103.677575386496300
 Convergence achieved for final wavefunctions.
 ***********************************************************************
 Excited states from <AA,BB:AA,BB> singles matrix:
 ***********************************************************************
 
 1PDM for each excited state written to RWF  633
 Ground to excited state transition densities written to RWF  633
 Ground to excited state transition electric dipole moments (Au):
       state          X           Y           Z        Dip. S.      Osc.
         1        -0.0836     -0.0000     -0.0000      0.0070      0.0017
         2         0.0000     -0.0000     -0.1729      0.0299      0.0076
         3         0.0000      0.4910     -0.0000      0.2411      0.0619
         4         0.0000     -0.0000      0.0000      0.0000      0.0000
         5         0.7924      0.0000      0.0000      0.6280      0.1759
         6        -0.0000      0.0000      0.6123      0.3749      0.1053
         7         0.0000     -0.0214      0.0000      0.0005      0.0001
         8        -0.0000     -0.0000     -0.0000      0.0000      0.0000
         9         1.2292      0.0000     -0.0000      1.5109      0.4329
        10        -0.0000     -0.0000      1.2093      1.4624      0.4224
        11        -0.0000      0.3031     -0.0000      0.0918      0.0266
        12        -0.0000     -0.0000     -0.6166      0.3802      0.1105
        13         0.0000     -0.0000     -0.0000      0.0000      0.0000
        14         0.3999      0.0000      0.0000      0.1599      0.0476
        15         0.0000      0.4431     -0.0000      0.1964      0.0602
        16         0.0000      0.0000     -0.0000      0.0000      0.0000
        17        -0.0000      0.0000      0.6689      0.4474      0.1375
        18         0.0000     -1.1708     -0.0000      1.3709      0.4233
        19        -0.2270      0.0000     -0.0000      0.0515      0.0161
        20         0.0000      0.2566      0.0000      0.0659      0.0206
        21        -0.0000     -0.0000      0.0000      0.0000      0.0000
        22        -0.0000     -0.0000      0.0343      0.0012      0.0004
        23         0.0000      0.0000     -0.0000      0.0000      0.0000
        24         0.0000      1.4114     -0.0000      1.9920      0.6386
        25         0.5375     -0.0000      0.0000      0.2889      0.0928
        26        -0.5297      0.0000     -0.0000      0.2806      0.0902
        27        -0.0000      0.0000      0.1401      0.0196      0.0064
        28         0.0000      0.0000     -0.0000      0.0000      0.0000
        29        -0.0000     -0.2574      0.0000      0.0663      0.0217
        30         0.0000     -0.0000     -0.8824      0.7787      0.2567
        31        -0.0000      0.0000      0.0000      0.0000      0.0000
        32        -0.4419     -0.0000      0.0000      0.1952      0.0661
        33         0.0000      0.2096      0.0000      0.0440      0.0149
        34        -0.0000      0.0000      0.1937      0.0375      0.0128
        35         0.0265      0.0000      0.0000      0.0007      0.0002
        36        -0.0000     -0.6282      0.0000      0.3946      0.1362
        37        -0.0000     -0.0000     -0.0000      0.0000      0.0000
        38        -0.0000      0.0000      0.0121      0.0001      0.0001
        39         0.6597      0.0000     -0.0000      0.4352      0.1531
        40         0.0000      0.3971     -0.0000      0.1577      0.0556
        41        -0.2165      0.0000     -0.0000      0.0469      0.0168
        42        -0.0000      0.0000      0.4712      0.2221      0.0796
        43        -0.0000      0.1013     -0.0000      0.0103      0.0037
        44        -0.0000      0.0000      0.0000      0.0000      0.0000
        45         0.0000      0.0000      0.0000      0.0000      0.0000
        46         0.0000      0.0000     -0.4378      0.1916      0.0703
        47        -0.0000      0.5336      0.0000      0.2847      0.1046
        48        -0.0000     -0.0000      0.6131      0.3758      0.1396
        49        -0.6166      0.0000     -0.0000      0.3802      0.1421
        50        -0.0000      0.0000      0.0000      0.0000      0.0000
        51        -0.5595     -0.0000     -0.0000      0.3130      0.1179
        52         0.0000     -0.0000      0.3441      0.1184      0.0450
        53         0.0000      0.0000      0.0000      0.0000      0.0000
        54         0.0000     -0.0000     -0.1421      0.0202      0.0077
        55         0.0000     -1.0231     -0.0000      1.0467      0.4008
        56         0.0000      0.7948     -0.0000      0.6316      0.2465
        57         0.2187      0.0000     -0.0000      0.0478      0.0188
        58        -0.0000     -0.0000     -0.4128      0.1704      0.0669
        59         0.6317      0.0000     -0.0000      0.3990      0.1590
        60        -0.0000     -0.0000      0.0000      0.0000      0.0000
        61        -0.0000      0.1276     -0.0000      0.0163      0.0066
        62         0.0000      0.0000      0.4598      0.2114      0.0858
        63         0.4815     -0.0000     -0.0000      0.2319      0.0942
        64         0.0000      0.0000      0.0000      0.0000      0.0000
        65         0.0000      0.0000      0.4038      0.1631      0.0674
        66        -0.0000     -0.1978      0.0000      0.0391      0.0163
        67        -0.0000     -0.0000      0.4348      0.1890      0.0803
        68        -0.4990      0.0000      0.0000      0.2490      0.1071
        69        -0.0000     -0.1789     -0.0000      0.0320      0.0142
        70        -0.0000      0.0000     -0.4042      0.1633      0.0727
        71         0.0000      0.0000     -0.0000      0.0000      0.0000
        72        -0.0502     -0.0000      0.0000      0.0025      0.0011
        73         0.0000     -0.0000     -0.0132      0.0002      0.0001
        74        -0.0000     -0.0963     -0.0000      0.0093      0.0043
        75         0.2665     -0.0000      0.0000      0.0710      0.0333
        76         0.0000      0.0000     -0.1694      0.0287      0.0136
        77        -0.0000      0.0000      0.0911      0.0083      0.0040
        78        -0.0000      0.0000     -0.0000      0.0000      0.0000
        79        -0.0000      0.3480     -0.0000      0.1211      0.0585
        80        -0.0000      0.0000     -0.0000      0.0000      0.0000
        81         0.2616     -0.0000      0.0000      0.0684      0.0334
        82        -0.0000      0.0624     -0.0000      0.0039      0.0019
        83         0.0000      0.1820     -0.0000      0.0331      0.0163
        84        -0.0000     -0.0000     -0.0000      0.0000      0.0000
        85        -0.0000     -0.0000     -0.0273      0.0007      0.0004
        86         0.4711     -0.0000     -0.0000      0.2220      0.1106
        87        -0.0000      0.3249      0.0000      0.1056      0.0527
        88         0.0000     -0.0000      0.0000      0.0000      0.0000
        89         0.2362      0.0000      0.0000      0.0558      0.0279
        90        -0.0000     -0.0000      0.9359      0.8760      0.4411
        91        -0.0976     -0.0000     -0.0000      0.0095      0.0048
[...]
     15   0.203829D+00  0.719809D-01  0.000000D+00  0.000000D+00  0.240502D-01
     16   0.000000D+00  0.000000D+00  0.000000D+00  0.000000D+00  0.000000D+00
               621           622           623           624           625 
      1  -0.115818D+03 -0.115814D+03 -0.115813D+03 -0.115809D+03 -0.115808D+03
      2   0.000000D+00 -0.503518D-01  0.000000D+00  0.000000D+00  0.000000D+00
      3  -0.295715D-01  0.000000D+00  0.000000D+00 -0.576556D-01 -0.155972D-02
      4   0.000000D+00  0.000000D+00  0.119937D+00  0.000000D+00  0.000000D+00
      5   0.000000D+00  0.160753D+00  0.000000D+00  0.000000D+00  0.000000D+00
      6   0.112681D+00  0.000000D+00  0.000000D+00  0.194406D+00 -0.108036D-01
      7   0.000000D+00  0.000000D+00 -0.320003D+00  0.000000D+00  0.000000D+00
      8   0.389452D+00  0.000000D+00  0.000000D+00 -0.743124D+00  0.548190D+00
      9   0.000000D+00  0.259185D+00  0.000000D+00  0.000000D+00  0.000000D+00
     10   0.000000D+00  0.000000D+00  0.000000D+00  0.000000D+00  0.000000D+00
     11   0.000000D+00  0.000000D+00 -0.181439D+00  0.000000D+00  0.000000D+00
     12   0.000000D+00  0.000000D+00 -0.145140D+01  0.000000D+00  0.000000D+00
     13   0.000000D+00  0.000000D+00  0.355253D+00  0.000000D+00  0.000000D+00
     14   0.000000D+00  0.000000D+00  0.000000D+00  0.000000D+00  0.000000D+00
     15   0.000000D+00  0.124215D+00  0.000000D+00  0.000000D+00  0.000000D+00
     16   0.335557D+00  0.000000D+00  0.000000D+00 -0.686962D+00  0.365306D+00
               626           627           628           629           630 
      1  -0.115800D+03 -0.115800D+03 -0.115796D+03 -0.115791D+03 -0.115782D+03
      2   0.000000D+00  0.000000D+00  0.000000D+00  0.000000D+00  0.000000D+00
      3   0.000000D+00  0.000000D+00  0.000000D+00 -0.995309D-01  0.000000D+00
      4   0.000000D+00  0.133565D-01 -0.100556D-01  0.000000D+00 -0.239231D-01
      5   0.000000D+00  0.000000D+00  0.000000D+00  0.000000D+00  0.000000D+00
      6   0.000000D+00  0.000000D+00  0.000000D+00  0.284633D+00  0.000000D+00
      7   0.000000D+00 -0.240423D-01 -0.406266D-01  0.000000D+00  0.634285D-01
      8   0.000000D+00  0.000000D+00  0.000000D+00 -0.604499D+00  0.000000D+00
      9   0.000000D+00  0.000000D+00  0.000000D+00  0.000000D+00  0.000000D+00
     10  -0.914109D+00  0.000000D+00  0.000000D+00  0.000000D+00  0.000000D+00
     11   0.000000D+00  0.592282D-01 -0.612040D-01  0.000000D+00 -0.582498D-02
     12   0.000000D+00 -0.828916D+00  0.665541D-01  0.000000D+00  0.626301D+00
     13   0.000000D+00 -0.103143D+00  0.811572D+00  0.000000D+00  0.129272D+00
     14   0.875146D+00  0.000000D+00  0.000000D+00  0.000000D+00  0.000000D+00
     15   0.000000D+00  0.000000D+00  0.000000D+00  0.000000D+00  0.000000D+00
     16   0.000000D+00  0.000000D+00  0.000000D+00 -0.100947D-01  0.000000D+00
               631           632           633           634           635 
      1  -0.115780D+03 -0.115777D+03 -0.115767D+03 -0.115764D+03 -0.115759D+03
      2   0.000000D+00 -0.666174D-01 -0.553753D-01  0.000000D+00 -0.983880D-01
      3  -0.730143D-01  0.000000D+00  0.000000D+00  0.000000D+00  0.000000D+00
      4   0.000000D+00  0.000000D+00  0.000000D+00  0.000000D+00  0.000000D+00
      5   0.000000D+00  0.242635D+00  0.185952D+00  0.000000D+00  0.285801D+00
      6   0.225762D+00  0.000000D+00  0.000000D+00  0.000000D+00  0.000000D+00
      7   0.000000D+00  0.000000D+00  0.000000D+00  0.000000D+00  0.000000D+00
      8  -0.667474D-01  0.000000D+00  0.000000D+00  0.000000D+00  0.000000D+00
      9   0.000000D+00 -0.600918D-01  0.147235D+00  0.000000D+00  0.208178D-01
     10   0.000000D+00  0.000000D+00  0.000000D+00  0.343657D+00  0.000000D+00
     11   0.000000D+00  0.000000D+00  0.000000D+00  0.000000D+00  0.000000D+00
     12   0.000000D+00  0.000000D+00  0.000000D+00  0.000000D+00  0.000000D+00
     13   0.000000D+00  0.000000D+00  0.000000D+00  0.000000D+00  0.000000D+00
     14   0.000000D+00  0.000000D+00  0.000000D+00 -0.715207D+00  0.000000D+00
     15   0.000000D+00 -0.489279D-01  0.101743D+00  0.000000D+00  0.678162D-01
     16  -0.316710D+00  0.000000D+00  0.000000D+00  0.000000D+00  0.000000D+00
               636           637           638           639           640 
      1  -0.115758D+03 -0.115736D+03 -0.115734D+03 -0.115732D+03 -0.115719D+03
      2   0.000000D+00  0.000000D+00  0.000000D+00  0.000000D+00  0.000000D+00
      3   0.000000D+00  0.000000D+00  0.000000D+00  0.145085D+00  0.000000D+00
      4  -0.845763D-02 -0.155573D+00  0.000000D+00  0.000000D+00 -0.751566D-02
      5   0.000000D+00  0.000000D+00  0.000000D+00  0.000000D+00  0.000000D+00
      6   0.000000D+00  0.000000D+00  0.000000D+00 -0.409855D+00  0.000000D+00
      7  -0.555431D-01  0.455994D+00  0.000000D+00  0.000000D+00  0.272143D-01
      8   0.000000D+00  0.000000D+00  0.000000D+00 -0.543109D+00  0.000000D+00
      9   0.000000D+00  0.000000D+00  0.000000D+00  0.000000D+00  0.000000D+00
     10   0.000000D+00  0.000000D+00  0.548581D-01  0.000000D+00  0.000000D+00
     11   0.102832D+00 -0.767615D-01  0.000000D+00  0.000000D+00  0.711206D-01
     12  -0.111862D+01 -0.492483D+00  0.000000D+00  0.000000D+00  0.114654D+00
     13  -0.240812D+00  0.595549D-01  0.000000D+00  0.000000D+00 -0.860783D-01
     14   0.000000D+00  0.000000D+00 -0.240256D+00  0.000000D+00  0.000000D+00
     15   0.000000D+00  0.000000D+00  0.000000D+00  0.000000D+00  0.000000D+00
     16   0.000000D+00  0.000000D+00  0.000000D+00 -0.423776D+00  0.000000D+00
               641           642           643           644           645 
      1  -0.115719D+03 -0.115711D+03 -0.115703D+03 -0.115699D+03 -0.115698D+03
      2   0.000000D+00  0.000000D+00  0.000000D+00  0.122478D+00  0.000000D+00
      3   0.866477D-01  0.607990D-01  0.770485D-02  0.000000D+00  0.000000D+00
      4   0.000000D+00  0.000000D+00  0.000000D+00  0.000000D+00  0.000000D+00
      5   0.000000D+00  0.000000D+00  0.000000D+00 -0.282585D+00  0.000000D+00
      6  -0.282268D+00 -0.147424D+00 -0.403786D-01  0.000000D+00  0.000000D+00
      7   0.000000D+00  0.000000D+00  0.000000D+00  0.000000D+00  0.000000D+00
      8   0.500196D+00 -0.502456D+00 -0.132496D+00  0.000000D+00  0.000000D+00
      9   0.000000D+00  0.000000D+00  0.000000D+00  0.486509D-01  0.000000D+00
     10   0.000000D+00  0.000000D+00  0.000000D+00  0.000000D+00  0.454839D+00
     11   0.000000D+00  0.000000D+00  0.000000D+00  0.000000D+00  0.000000D+00
     12   0.000000D+00  0.000000D+00  0.000000D+00  0.000000D+00  0.000000D+00
     13   0.000000D+00  0.000000D+00  0.000000D+00  0.000000D+00  0.000000D+00
     14   0.000000D+00  0.000000D+00  0.000000D+00  0.000000D+00 -0.409206D+00
     15   0.000000D+00  0.000000D+00  0.000000D+00  0.344912D-01  0.000000D+00
     16   0.546291D+00  0.147386D-01 -0.179927D+00  0.000000D+00  0.000000D+00
               646           647           648           649           650 
      1  -0.115694D+03 -0.115684D+03 -0.115684D+03 -0.115680D+03 -0.115677D+03
      2   0.000000D+00  0.000000D+00  0.000000D+00  0.214902D-01  0.000000D+00
      3   0.000000D+00  0.000000D+00 -0.273561D-01  0.000000D+00  0.000000D+00
      4   0.000000D+00 -0.148145D-01  0.000000D+00  0.000000D+00  0.000000D+00
      5   0.000000D+00  0.000000D+00  0.000000D+00 -0.123913D+00  0.000000D+00
      6   0.000000D+00  0.000000D+00  0.639116D-01  0.000000D+00  0.000000D+00
      7   0.000000D+00  0.225733D-01  0.000000D+00  0.000000D+00  0.000000D+00
      8   0.000000D+00  0.000000D+00  0.834931D-02  0.000000D+00  0.000000D+00
      9   0.000000D+00  0.000000D+00  0.000000D+00 -0.207366D-01  0.000000D+00
     10  -0.619955D+00  0.000000D+00  0.000000D+00  0.000000D+00 -0.273733D+00
     11   0.000000D+00 -0.170612D+00  0.000000D+00  0.000000D+00  0.000000D+00
     12   0.000000D+00 -0.211035D+00  0.000000D+00  0.000000D+00  0.000000D+00
     13   0.000000D+00  0.376764D+00  0.000000D+00  0.000000D+00  0.000000D+00
     14   0.528993D+00  0.000000D+00  0.000000D+00  0.000000D+00  0.157075D+00
     15   0.000000D+00  0.000000D+00  0.000000D+00 -0.100623D+00  0.000000D+00
     16   0.000000D+00  0.000000D+00 -0.150156D+00  0.000000D+00  0.000000D+00
               651           652           653           654           655 
      1  -0.115672D+03 -0.115669D+03 -0.115668D+03 -0.115667D+03 -0.115667D+03
      2  -0.140684D-01  0.000000D+00 -0.104045D+00  0.000000D+00  0.000000D+00
      3   0.000000D+00  0.000000D+00  0.000000D+00  0.197181D-01  0.000000D+00
      4   0.000000D+00  0.537566D-01  0.000000D+00  0.000000D+00 -0.594277D-01
      5   0.214748D-01  0.000000D+00  0.308411D+00  0.000000D+00  0.000000D+00
      6   0.000000D+00  0.000000D+00  0.000000D+00 -0.726895D-01  0.000000D+00
      7   0.000000D+00 -0.987969D-01  0.000000D+00  0.000000D+00  0.253376D+00
      8   0.000000D+00  0.000000D+00  0.000000D+00 -0.209517D+00  0.000000D+00
      9   0.128400D+00  0.000000D+00  0.899453D-01  0.000000D+00  0.000000D+00
     10   0.000000D+00  0.000000D+00  0.000000D+00  0.000000D+00  0.000000D+00
     11   0.000000D+00 -0.803638D-01  0.000000D+00  0.000000D+00 -0.114470D-01
     12   0.000000D+00 -0.341547D+00  0.000000D+00  0.000000D+00  0.464735D-02
     13   0.000000D+00  0.307994D+00  0.000000D+00  0.000000D+00  0.376013D+00
     14   0.000000D+00  0.000000D+00  0.000000D+00  0.000000D+00  0.000000D+00
     15   0.160244D+00  0.000000D+00  0.517278D-01  0.000000D+00  0.000000D+00
     16   0.000000D+00  0.000000D+00  0.000000D+00 -0.126792D+00  0.000000D+00
               656           657           658           659           660 
      1  -0.115662D+03 -0.115645D+03 -0.115631D+03 -0.115625D+03 -0.115620D+03
      2   0.000000D+00  0.000000D+00  0.242134D-01  0.000000D+00  0.000000D+00
      3   0.000000D+00  0.000000D+00  0.000000D+00 -0.245804D-01  0.000000D+00
      4   0.000000D+00 -0.310555D-01  0.000000D+00  0.000000D+00  0.000000D+00
      5   0.000000D+00  0.000000D+00 -0.470177D-01  0.000000D+00  0.000000D+00
      6   0.000000D+00  0.000000D+00  0.000000D+00  0.683502D-01  0.000000D+00
      7   0.000000D+00  0.970106D-01  0.000000D+00  0.000000D+00  0.000000D+00
      8   0.000000D+00  0.000000D+00  0.000000D+00  0.179035D+00  0.000000D+00
      9   0.000000D+00  0.000000D+00 -0.255106D+00  0.000000D+00  0.000000D+00
     10   0.171736D+00  0.000000D+00  0.000000D+00  0.000000D+00 -0.292798D+00
     11   0.000000D+00 -0.101982D+00  0.000000D+00  0.000000D+00  0.000000D+00
     12   0.000000D+00 -0.303175D+00  0.000000D+00  0.000000D+00  0.000000D+00
     13   0.000000D+00 -0.322358D+00  0.000000D+00  0.000000D+00  0.000000D+00
     14  -0.160953D+00  0.000000D+00  0.000000D+00  0.000000D+00  0.233558D+00
     15   0.000000D+00  0.000000D+00 -0.265980D+00  0.000000D+00  0.000000D+00
     16   0.000000D+00  0.000000D+00  0.000000D+00  0.633107D+00  0.000000D+00
               661           662           663           664           665 
      1  -0.115610D+03 -0.115609D+03 -0.115600D+03 -0.115600D+03 -0.115595D+03
      2   0.000000D+00  0.000000D+00  0.000000D+00  0.000000D+00  0.756915D-01
      3   0.000000D+00  0.339434D-01  0.000000D+00 -0.140231D-01  0.000000D+00
      4  -0.138271D-01  0.000000D+00  0.000000D+00  0.000000D+00  0.000000D+00
      5   0.000000D+00  0.000000D+00  0.000000D+00  0.000000D+00 -0.220640D+00
      6   0.000000D+00 -0.142060D+00  0.000000D+00  0.287276D-01  0.000000D+00
      7   0.305128D-01  0.000000D+00  0.000000D+00  0.000000D+00  0.000000D+00
      8   0.000000D+00 -0.577890D-01  0.000000D+00 -0.458474D+00  0.000000D+00
      9   0.000000D+00  0.000000D+00  0.000000D+00  0.000000D+00  0.775574D-01
     10   0.000000D+00  0.000000D+00 -0.301223D+00  0.000000D+00  0.000000D+00
     11   0.145398D+00  0.000000D+00  0.000000D+00  0.000000D+00  0.000000D+00
     12  -0.709482D+00  0.000000D+00  0.000000D+00  0.000000D+00  0.000000D+00
     13  -0.220349D+00  0.000000D+00  0.000000D+00  0.000000D+00  0.000000D+00
     14   0.000000D+00  0.000000D+00  0.222539D+00  0.000000D+00  0.000000D+00
     15   0.000000D+00  0.000000D+00  0.000000D+00  0.000000D+00  0.351562D-02
     16   0.000000D+00  0.315930D+00  0.000000D+00 -0.517138D+00  0.000000D+00
               666           667           668           669           670 
      1  -0.115577D+03 -0.115574D+03 -0.115567D+03 -0.115553D+03 -0.115551D+03
      2   0.000000D+00  0.000000D+00  0.000000D+00 -0.333436D-01  0.000000D+00
      3   0.000000D+00  0.000000D+00  0.329413D-01  0.000000D+00  0.431650D-01
      4   0.000000D+00 -0.111376D-01  0.000000D+00  0.000000D+00  0.000000D+00
      5   0.000000D+00  0.000000D+00  0.000000D+00  0.867834D-01  0.000000D+00
      6   0.000000D+00  0.000000D+00 -0.122971D+00  0.000000D+00 -0.103890D+00
      7   0.000000D+00  0.590932D-01  0.000000D+00  0.000000D+00  0.000000D+00
      8   0.000000D+00  0.000000D+00  0.250284D+00  0.000000D+00 -0.543874D+00
      9   0.000000D+00  0.000000D+00  0.000000D+00 -0.682828D-01  0.000000D+00
     10  -0.735074D-01  0.000000D+00  0.000000D+00  0.000000D+00  0.000000D+00
     11   0.000000D+00  0.758048D-01  0.000000D+00  0.000000D+00  0.000000D+00
     12   0.000000D+00 -0.105062D+01  0.000000D+00  0.000000D+00  0.000000D+00
     13   0.000000D+00 -0.254403D-01  0.000000D+00  0.000000D+00  0.000000D+00
     14  -0.830973D-02  0.000000D+00  0.000000D+00  0.000000D+00  0.000000D+00
     15   0.000000D+00  0.000000D+00  0.000000D+00 -0.141961D+00  0.000000D+00
     16   0.000000D+00  0.000000D+00  0.210976D+00  0.000000D+00 -0.149075D+00
               671           672           673           674           675 
      1  -0.115543D+03 -0.115541D+03 -0.115529D+03 -0.115527D+03 -0.115513D+03
      2   0.000000D+00 -0.197567D-01  0.000000D+00  0.000000D+00  0.000000D+00
      3   0.000000D+00  0.000000D+00  0.000000D+00  0.000000D+00  0.000000D+00
      4   0.109320D-01  0.000000D+00 -0.415176D-01  0.657780D-01  0.000000D+00
      5   0.000000D+00  0.448732D-01  0.000000D+00  0.000000D+00  0.000000D+00
      6   0.000000D+00  0.000000D+00  0.000000D+00  0.000000D+00  0.000000D+00
      7  -0.195050D-01  0.000000D+00  0.106291D+00 -0.175035D+00  0.000000D+00
      8   0.000000D+00  0.000000D+00  0.000000D+00  0.000000D+00  0.000000D+00
      9   0.000000D+00  0.229754D+00  0.000000D+00  0.000000D+00  0.000000D+00
     10   0.000000D+00  0.000000D+00  0.000000D+00  0.000000D+00 -0.789497D+00
     11   0.771196D-01  0.000000D+00  0.128439D+00 -0.142439D+00  0.000000D+00
     12  -0.779751D+00  0.000000D+00 -0.144088D+00  0.256712D+00  0.000000D+00
     13  -0.315829D+00  0.000000D+00  0.322308D+00  0.424077D+00  0.000000D+00
     14   0.000000D+00  0.000000D+00  0.000000D+00  0.000000D+00  0.823222D+00
     15   0.000000D+00  0.251471D+00  0.000000D+00  0.000000D+00  0.000000D+00
     16   0.000000D+00  0.000000D+00  0.000000D+00  0.000000D+00  0.000000D+00
               676           677           678           679           680 
      1  -0.115477D+03 -0.115446D+03 -0.115439D+03 -0.115433D+03 -0.115430D+03
      2   0.000000D+00  0.000000D+00  0.000000D+00 -0.564444D-01  0.000000D+00
      3   0.000000D+00 -0.475909D-01  0.000000D+00  0.000000D+00  0.334041D-02
      4  -0.748851D-01  0.000000D+00  0.000000D+00  0.000000D+00  0.000000D+00
      5   0.000000D+00  0.000000D+00  0.000000D+00  0.167624D+00  0.000000D+00
      6   0.000000D+00  0.992610D-01  0.000000D+00  0.000000D+00 -0.389118D-02
      7   0.223299D+00  0.000000D+00  0.000000D+00  0.000000D+00  0.000000D+00
      8   0.000000D+00 -0.325353D+00  0.000000D+00  0.000000D+00  0.283342D+00
      9   0.000000D+00  0.000000D+00  0.000000D+00 -0.328506D+00  0.000000D+00
     10   0.000000D+00  0.000000D+00 -0.582184D-01  0.000000D+00  0.000000D+00
     11   0.136080D+00  0.000000D+00  0.000000D+00  0.000000D+00  0.000000D+00
     12   0.108302D+01  0.000000D+00  0.000000D+00  0.000000D+00  0.000000D+00
     13  -0.215589D+00  0.000000D+00  0.000000D+00  0.000000D+00  0.000000D+00
     14   0.000000D+00  0.000000D+00  0.179160D+00  0.000000D+00  0.000000D+00
     15   0.000000D+00  0.000000D+00  0.000000D+00 -0.146460D-01  0.000000D+00
     16   0.000000D+00 -0.426808D+00  0.000000D+00  0.000000D+00 -0.106872D+00
               681           682           683           684           685 
      1  -0.115412D+03 -0.115395D+03 -0.115379D+03 -0.115352D+03 -0.115342D+03
      2   0.000000D+00  0.648897D-01  0.000000D+00  0.000000D+00 -0.676310D-01
      3   0.000000D+00  0.000000D+00 -0.846125D-01  0.000000D+00  0.000000D+00
      4  -0.288972D-01  0.000000D+00  0.000000D+00  0.697239D-01  0.000000D+00
      5   0.000000D+00 -0.184558D+00  0.000000D+00  0.000000D+00  0.199717D+00
      6   0.000000D+00  0.000000D+00  0.237159D+00  0.000000D+00  0.000000D+00
      7   0.961575D-01  0.000000D+00  0.000000D+00 -0.184339D+00  0.000000D+00
      8   0.000000D+00  0.000000D+00  0.735598D+00  0.000000D+00  0.000000D+00
      9   0.000000D+00 -0.201575D-03  0.000000D+00  0.000000D+00 -0.338878D-01
     10   0.000000D+00  0.000000D+00  0.000000D+00  0.000000D+00  0.000000D+00
     11   0.752903D-01  0.000000D+00  0.000000D+00  0.111374D+00  0.000000D+00
     12   0.301023D+00  0.000000D+00  0.000000D+00  0.264901D+00  0.000000D+00
     13  -0.307713D-02  0.000000D+00  0.000000D+00 -0.372146D+00  0.000000D+00
     14   0.000000D+00  0.000000D+00  0.000000D+00  0.000000D+00  0.000000D+00
     15   0.000000D+00 -0.348728D-01  0.000000D+00  0.000000D+00  0.105875D-01
     16   0.000000D+00  0.000000D+00  0.550105D+00  0.000000D+00  0.000000D+00
               686           687           688           689           690 
      1  -0.115310D+03 -0.115300D+03 -0.115248D+03 -0.115231D+03 -0.115211D+03
      2   0.000000D+00  0.000000D+00  0.000000D+00  0.000000D+00  0.984937D-01
      3   0.118147D-01  0.000000D+00  0.000000D+00  0.000000D+00  0.000000D+00
      4   0.000000D+00  0.000000D+00  0.000000D+00 -0.723286D-01  0.000000D+00
      5   0.000000D+00  0.000000D+00  0.000000D+00  0.000000D+00 -0.297937D+00
      6  -0.144855D-01  0.000000D+00  0.000000D+00  0.000000D+00  0.000000D+00
      7   0.000000D+00  0.000000D+00  0.000000D+00  0.210513D+00  0.000000D+00
      8   0.175919D+00  0.000000D+00  0.000000D+00  0.000000D+00  0.000000D+00
      9   0.000000D+00  0.000000D+00  0.000000D+00  0.000000D+00 -0.146738D+00
     10   0.000000D+00  0.512092D+00 -0.352892D+00  0.000000D+00  0.000000D+00
     11   0.000000D+00  0.000000D+00  0.000000D+00  0.111547D+00  0.000000D+00
     12   0.000000D+00  0.000000D+00  0.000000D+00  0.452673D+00  0.000000D+00
     13   0.000000D+00  0.000000D+00  0.000000D+00 -0.155923D+00  0.000000D+00
     14   0.000000D+00 -0.452131D+00  0.416695D+00  0.000000D+00  0.000000D+00
     15   0.000000D+00  0.000000D+00  0.000000D+00  0.000000D+00 -0.104979D+00
     16   0.141644D+00  0.000000D+00  0.000000D+00  0.000000D+00  0.000000D+00
 Unable to Open any file for archive entry.
 1\1\GINC-HEL22\SP\RwB97XD TD-FC\def2SVP\C3H8\PRAKRITI\14-Aug-2021\0\\#
 P TD(Nstates=10000) wB97XD/def2SVP SCF(maxcycles=100) Int(Grid=ultrafi
 ne)\\xGDB7_00001_tier4.com\\0,1\C,0,0.,1.272934,-0.258139\C,0,0.,0.,0.
 582399\C,0,0.,-1.272934,-0.258139\H,0,0.,2.175267,0.371719\H,0,-0.8879
 95,1.319511,-0.908891\H,0,0.887995,1.319511,-0.908891\H,0,-0.879879,0.
 ,1.2477\H,0,0.879879,0.,1.2477\H,0,-0.887995,-1.319511,-0.908891\H,0,0
 .,-2.175267,0.371719\H,0,0.887995,-1.319511,-0.908891\\Version=EM64L-G
 16RevC.01\State=1-A1\HF=-119.0208445\RMSD=2.466e-09\PG=C02V [C2(C1),SG
 V(C2H2),SGV'(H2),X(H4)]\\@
 The archive entry for this job was punched.


 A BIRD IN THE HAND IS SAFER THAN ONE OVERHEAD.

                       -- NEWTON'S SEVENTH LAW
 Job cpu time:       0 days  0 hours  3 minutes 16.9 seconds.
 Elapsed time:       0 days  0 hours  0 minutes 24.9 seconds.
 File lengths (MBytes):  RWF=    605 Int=      0 D2E=      0 Chk=    119 Scr=      1
 Normal termination of Gaussian 16 at Sat Aug 14 23:30:14 2021.
