 Entering Gaussian System, Link 0=g16
 Input=xGDB7_000010_TDDFT.com
 Output=xGDB7_000010_TDDFT.log
 Initial command:
 /home/prakriti/g16/l1.exe "/scratch/prakriti/PBS_7434520.helios/Gau-60062.inp" -scrdir="/scratch/prakriti/PBS_7434520.helios/"
 Entering Link 1 = /home/prakriti/g16/l1.exe PID=     60063.
  
 Copyright (c) 1988-2019, Gaussian, Inc.  All Rights Reserved.
  
 This is part of the Gaussian(R) 16 program.  It is based on
 the Gaussian(R) 09 system (copyright 2009, Gaussian, Inc.),
 the Gaussian(R) 03 system (copyright 2003, Gaussian, Inc.),
 the Gaussian(R) 98 system (copyright 1998, Gaussian, Inc.),
 the Gaussian(R) 94 system (copyright 1995, Gaussian, Inc.),
 the Gaussian 92(TM) system (copyright 1992, Gaussian, Inc.),
 the Gaussian 90(TM) system (copyright 1990, Gaussian, Inc.),
 the Gaussian 88(TM) system (copyright 1988, Gaussian, Inc.),
 the Gaussian 86(TM) system (copyright 1986, Carnegie Mellon
 University), and the Gaussian 82(TM) system (copyright 1983,
 Carnegie Mellon University). Gaussian is a federally registered
 trademark of Gaussian, Inc.
  
 This software contains proprietary and confidential information,
 including trade secrets, belonging to Gaussian, Inc.
  
 This software is provided under written license and may be
 used, copied, transmitted, or stored only in accord with that
 written license.
  
 The following legend is applicable only to US Government
 contracts under FAR:
  
                    RESTRICTED RIGHTS LEGEND
  
 Use, reproduction and disclosure by the US Government is
 subject to restrictions as set forth in subparagraphs (a)
 and (c) of the Commercial Computer Software - Restricted
 Rights clause in FAR 52.227-19.
  
 Gaussian, Inc.
 340 Quinnipiac St., Bldg. 40, Wallingford CT 06492
  
  
 ---------------------------------------------------------------
 Warning -- This program may not be used in any manner that
 competes with the business of Gaussian, Inc. or will provide
 assistance to any competitor of Gaussian, Inc.  The licensee
 of this program is prohibited from giving any competitor of
 Gaussian, Inc. access to this program.  By using this program,
 the user acknowledges that Gaussian, Inc. is engaged in the
 business of creating and licensing software in the field of
 computational chemistry and represents and warrants to the
 licensee that it is not a competitor of Gaussian, Inc. and that
 it will not use this program in any manner prohibited above.
 ---------------------------------------------------------------
  

 Cite this work as:
 Gaussian 16, Revision C.01,
 M. J. Frisch, G. W. Trucks, H. B. Schlegel, G. E. Scuseria, 
 M. A. Robb, J. R. Cheeseman, G. Scalmani, V. Barone, 
 G. A. Petersson, H. Nakatsuji, X. Li, M. Caricato, A. V. Marenich, 
 J. Bloino, B. G. Janesko, R. Gomperts, B. Mennucci, H. P. Hratchian, 
 J. V. Ortiz, A. F. Izmaylov, J. L. Sonnenberg, D. Williams-Young, 
 F. Ding, F. Lipparini, F. Egidi, J. Goings, B. Peng, A. Petrone, 
 T. Henderson, D. Ranasinghe, V. G. Zakrzewski, J. Gao, N. Rega, 
 G. Zheng, W. Liang, M. Hada, M. Ehara, K. Toyota, R. Fukuda, 
 J. Hasegawa, M. Ishida, T. Nakajima, Y. Honda, O. Kitao, H. Nakai, 
 T. Vreven, K. Throssell, J. A. Montgomery, Jr., J. E. Peralta, 
 F. Ogliaro, M. J. Bearpark, J. J. Heyd, E. N. Brothers, K. N. Kudin, 
 V. N. Staroverov, T. A. Keith, R. Kobayashi, J. Normand, 
 K. Raghavachari, A. P. Rendell, J. C. Burant, S. S. Iyengar, 
 J. Tomasi, M. Cossi, J. M. Millam, M. Klene, C. Adamo, R. Cammi, 
 J. W. Ochterski, R. L. Martin, K. Morokuma, O. Farkas, 
 J. B. Foresman, and D. J. Fox, Gaussian, Inc., Wallingford CT, 2019.
 
 ******************************************
 Gaussian 16:  EM64L-G16RevC.01  3-Jul-2019
                14-Aug-2021 
 ******************************************
 %mem=8gb
 %nproc=8
 Will use up to    8 processors via shared memory.
 ----------------------------------------------------------------------
 #P TD(Nstates=10000) wB97XD/def2SVP SCF(maxcycles=100) Int(Grid=ultraf
 ine)
 ----------------------------------------------------------------------
 1/38=1,172=1/1;
 2/12=2,17=6,18=5,40=1/2;
 3/5=43,7=101,11=9,25=1,30=1,74=-58,75=-5/1,2,3,8;
 4//1;
 5/5=2,7=100,38=5/2;
 8/6=1,10=1,108=10000/1;
 9/41=10000,42=1,70=2/14;
 6/7=2,8=2,9=2,10=2/1;
 99/5=1,9=1/99;
 Leave Link    1 at Sat Aug 14 23:27:20 2021, MaxMem=  1073741824 cpu:               0.4 elap:               0.1
 (Enter /home/prakriti/g16/l101.exe)
 ---------------------
 xGDB7_00001_tier4.com
 ---------------------
 Symbolic Z-matrix:
 Charge =  0 Multiplicity = 1
 6                     0.        0.        0.665 
 6                     0.        0.       -0.665 
 1                     0.        0.9311    1.23904 
 1                     0.       -0.9311    1.23904 
 1                     0.        0.9311   -1.23904 
 1                     0.       -0.9311   -1.23904 
 
 ITRead=  0  0  0  0  0  0
 MicOpt= -1 -1 -1 -1 -1 -1
 NAtoms=      6 NQM=        6 NQMF=       0 NMMI=      0 NMMIF=      0
                NMic=       0 NMicF=      0.
                    Isotopes and Nuclear Properties:
 (Nuclear quadrupole moments (NQMom) in fm**2, nuclear magnetic moments (NMagM)
  in nuclear magnetons)

  Atom         1           2           3           4           5           6
 IAtWgt=          12          12           1           1           1           1
 AtmWgt=  12.0000000  12.0000000   1.0078250   1.0078250   1.0078250   1.0078250
 NucSpn=           0           0           1           1           1           1
 AtZEff=  -0.0000000  -0.0000000  -0.0000000  -0.0000000  -0.0000000  -0.0000000
 NQMom=    0.0000000   0.0000000   0.0000000   0.0000000   0.0000000   0.0000000
 NMagM=    0.0000000   0.0000000   2.7928460   2.7928460   2.7928460   2.7928460
 AtZNuc=   6.0000000   6.0000000   1.0000000   1.0000000   1.0000000   1.0000000
 Leave Link  101 at Sat Aug 14 23:27:20 2021, MaxMem=  1073741824 cpu:               0.7 elap:               0.1
 (Enter /home/prakriti/g16/l202.exe)
                          Input orientation:                          
 ---------------------------------------------------------------------
 Center     Atomic      Atomic             Coordinates (Angstroms)
 Number     Number       Type             X           Y           Z
 ---------------------------------------------------------------------
      1          6           0        0.000000    0.000000    0.664999
      2          6           0        0.000000    0.000000   -0.664999
      3          1           0        0.000000    0.931103    1.239041
      4          1           0        0.000000   -0.931103    1.239041
      5          1           0        0.000000    0.931103   -1.239041
      6          1           0        0.000000   -0.931103   -1.239041
 ---------------------------------------------------------------------
                    Distance matrix (angstroms):
                    1          2          3          4          5
     1  C    0.000000
     2  C    1.329998   0.000000
     3  H    1.093836   2.119510   0.000000
     4  H    1.093836   2.119510   1.862206   0.000000
     5  H    2.119510   1.093836   2.478082   3.099791   0.000000
     6  H    2.119510   1.093836   3.099791   2.478082   1.862206
                    6
     6  H    0.000000
 Stoichiometry    C2H4
 Framework group  D2H[C2"(C.C),SG(H4)]
 Deg. of freedom     3
 Full point group                 D2H     NOp   8
 Largest Abelian subgroup         D2H     NOp   8
 Largest concise Abelian subgroup D2      NOp   4
                         Standard orientation:                         
 ---------------------------------------------------------------------
 Center     Atomic      Atomic             Coordinates (Angstroms)
 Number     Number       Type             X           Y           Z
 ---------------------------------------------------------------------
      1          6           0        0.000000    0.000000    0.664999
      2          6           0        0.000000    0.000000   -0.664999
      3          1           0        0.000000    0.931103    1.239041
      4          1           0       -0.000000   -0.931103    1.239041
      5          1           0        0.000000    0.931103   -1.239041
      6          1           0       -0.000000   -0.931103   -1.239041
 ---------------------------------------------------------------------
 Rotational constants (GHZ):         144.6027703          30.0779461          24.8988807
 Leave Link  202 at Sat Aug 14 23:27:20 2021, MaxMem=  1073741824 cpu:               0.1 elap:               0.0
 (Enter /home/prakriti/g16/l301.exe)
 Standard basis: def2SVP (5D, 7F)
 Ernie: Thresh=  0.10000D-02 Tol=  0.10000D-05 Strict=F.
 There are    12 symmetry adapted cartesian basis functions of AG  symmetry.
 There are     2 symmetry adapted cartesian basis functions of B1G symmetry.
 There are     4 symmetry adapted cartesian basis functions of B2G symmetry.
 There are     7 symmetry adapted cartesian basis functions of B3G symmetry.
 There are     2 symmetry adapted cartesian basis functions of AU  symmetry.
 There are    12 symmetry adapted cartesian basis functions of B1U symmetry.
 There are     7 symmetry adapted cartesian basis functions of B2U symmetry.
 There are     4 symmetry adapted cartesian basis functions of B3U symmetry.
 There are    11 symmetry adapted basis functions of AG  symmetry.
 There are     2 symmetry adapted basis functions of B1G symmetry.
 There are     4 symmetry adapted basis functions of B2G symmetry.
 There are     7 symmetry adapted basis functions of B3G symmetry.
 There are     2 symmetry adapted basis functions of AU  symmetry.
 There are    11 symmetry adapted basis functions of B1U symmetry.
 There are     7 symmetry adapted basis functions of B2U symmetry.
 There are     4 symmetry adapted basis functions of B3U symmetry.
    48 basis functions,    78 primitive gaussians,    50 cartesian basis functions
     8 alpha electrons        8 beta electrons
       nuclear repulsion energy        33.2632820156 Hartrees.
 IExCor= 4639 DFT=T Ex+Corr=wB97XD ExCW=0 ScaHFX=  1.000000
 ScaDFX=  1.000000  1.000000  1.000000  1.000000 ScalE2=  1.000000  1.000000
 IRadAn=      5 IRanWt=     -1 IRanGd=            0 ICorTp=0 IEmpDi=121
 HFx  wShort=  0.000000 wLong=  0.200000 cFull=  0.222036 cShort=  0.000000 cLong=  0.777964
 DFx  wShort=  0.000000 wLong=  0.200000 cFull=  0.000000 cShort=  0.000000 cLong=  1.000000
 NAtoms=    6 NActive=    6 NUniq=    2 SFac= 4.00D+00 NAtFMM=   60 NAOKFM=F Big=F
 Integral buffers will be    131072 words long.
 Raffenetti 1 integral format.
 Two-electron integral symmetry is turned on.
 R6Disp:  Grimme-D2 Dispersion energy=       -0.0008378348 Hartrees.
 Nuclear repulsion after empirical dispersion term =       33.2624441808 Hartrees.
 Leave Link  301 at Sat Aug 14 23:27:20 2021, MaxMem=  1073741824 cpu:               0.5 elap:               0.1
 (Enter /home/prakriti/g16/l302.exe)
 NPDir=0 NMtPBC=     1 NCelOv=     1 NCel=       1 NClECP=     1 NCelD=      1
         NCelK=      1 NCelE2=     1 NClLst=     1 CellRange=     0.0.
 One-electron integrals computed using PRISM.
 One-electron integral symmetry used in STVInt
   8 Symmetry operations used in ECPInt.
 ECPInt:  NShTT=     300 NPrTT=    1028 LenC2=     301 LenP2D=     971.
 LDataN:  DoStor=T MaxTD1= 4 Len=   56
 NBasis=    48 RedAO= T EigKep=  3.93D-03  NBF=    11     2     4     7     2    11     7     4
 NBsUse=    48 1.00D-06 EigRej= -1.00D+00 NBFU=    11     2     4     7     2    11     7     4
 Precomputing XC quadrature grid using
 IXCGrd= 4 IRadAn=           5 IRanWt=          -1 IRanGd=           0 AccXCQ= 0.00D+00.
 Generated NRdTot=       0 NPtTot=           0 NUsed=           0 NTot=          32
 NSgBfM=    50    50    50    50    50 MxSgAt=     6 MxSgA2=     6.
 Leave Link  302 at Sat Aug 14 23:27:20 2021, MaxMem=  1073741824 cpu:               1.0 elap:               0.2
 (Enter /home/prakriti/g16/l303.exe)
 DipDrv:  MaxL=1.
 Leave Link  303 at Sat Aug 14 23:27:20 2021, MaxMem=  1073741824 cpu:               0.2 elap:               0.0
 (Enter /home/prakriti/g16/l308.exe)
 Leave Link  308 at Sat Aug 14 23:27:20 2021, MaxMem=  1073741824 cpu:               0.2 elap:               0.1
 (Enter /home/prakriti/g16/l401.exe)
 ExpMin= 1.22D-01 ExpMax= 1.24D+03 ExpMxC= 1.86D+02 IAcc=3 IRadAn=         5 AccDes= 0.00D+00
 Harris functional with IExCor= 4639 and IRadAn=       5 diagonalized for initial guess.
 HarFok:  IExCor= 4639 AccDes= 0.00D+00 IRadAn=         5 IDoV= 1 UseB2=F ITyADJ=14
 ICtDFT=  3500011 ScaDFX=  1.000000  1.000000  1.000000  1.000000
 FoFCou: FMM=F IPFlag=           0 FMFlag=      100000 FMFlg1=           0
         NFxFlg=           0 DoJE=T BraDBF=F KetDBF=T FulRan=T
         wScrn=  0.000000 ICntrl=       500 IOpCl=  0 I1Cent=   200000004 NGrid=           0
         NMat0=    1 NMatS0=      1 NMatT0=    0 NMatD0=    1 NMtDS0=    0 NMtDT0=    0
 Petite list used in FoFCou.
 Harris En= -74.6075169623461    
 JPrj=0 DoOrth=F DoCkMO=F.
 Initial guess orbital symmetries:
       Occupied  (B1U) (AG) (AG) (B1U) (B2U) (AG) (B3G) (B3U)
       Virtual   (B2G) (AG) (B2U) (B1U) (B3G) (B1U) (AG) (B2U)
                 (AG) (B3U) (B1U) (B2G) (AG) (B2U) (B3G) (B1U)
                 (B1U) (B3G) (B1G) (AU) (B3U) (B3G) (AG) (B2U)
                 (B2G) (B1U) (B2U) (AG) (B3U) (B1G) (B1U) (B3G)
                 (AG) (AU) (B2G) (AG) (B2U) (B1U) (B1U) (B3G)
 The electronic state of the initial guess is 1-AG.
 Leave Link  401 at Sat Aug 14 23:27:20 2021, MaxMem=  1073741824 cpu:               1.3 elap:               0.2
 (Enter /home/prakriti/g16/l502.exe)
 Keep R1 ints in memory in symmetry-blocked form, NReq=8431078.
 FoFCou: FMM=F IPFlag=           0 FMFlag=           0 FMFlg1=           0
         NFxFlg=           0 DoJE=F BraDBF=F KetDBF=F FulRan=T
         wScrn=  0.000000 ICntrl=       600 IOpCl=  0 I1Cent=           0 NGrid=           0
         NMat0=    1 NMatS0=   1176 NMatT0=    0 NMatD0=    1 NMtDS0=    0 NMtDT0=    0
 Petite list used in FoFCou.
 Closed shell SCF:
 Using DIIS extrapolation, IDIIS=  1040.
 NGot=  1073741824 LenX=  1073636288 LenY=  1073633347
 Requested convergence on RMS density matrix=1.00D-08 within 100 cycles.
 Requested convergence on MAX density matrix=1.00D-06.
 Requested convergence on             energy=1.00D-06.
 No special actions if energy rises.
 Integral accuracy reduced to 1.0D-05 until final iterations.

 Cycle   1  Pass 0  IDiag  1:
 E= -78.4872787963598    
 DIIS: error= 3.36D-02 at cycle   1 NSaved=   1.
 NSaved= 1 IEnMin= 1 EnMin= -78.4872787963598     IErMin= 1 ErrMin= 3.36D-02
 ErrMax= 3.36D-02  0.00D+00 EMaxC= 1.00D-01 BMatC= 3.28D-02 BMatP= 3.28D-02
 IDIUse=3 WtCom= 6.64D-01 WtEn= 3.36D-01
 Coeff-Com:  0.100D+01
 Coeff-En:   0.100D+01
 Coeff:      0.100D+01
 Gap=     0.435 Goal=   None    Shift=    0.000
 GapD=    0.435 DampG=2.000 DampE=0.500 DampFc=1.0000 IDamp=-1.
 RMSDP=2.64D-03 MaxDP=3.02D-02              OVMax= 5.30D-02

 Cycle   2  Pass 0  IDiag  1:
 E= -78.4980417299916     Delta-E=       -0.010762933632 Rises=F Damp=F
 DIIS: error= 8.72D-03 at cycle   2 NSaved=   2.
 NSaved= 2 IEnMin= 2 EnMin= -78.4980417299916     IErMin= 2 ErrMin= 8.72D-03
 ErrMax= 8.72D-03  0.00D+00 EMaxC= 1.00D-01 BMatC= 2.86D-03 BMatP= 3.28D-02
 IDIUse=3 WtCom= 9.13D-01 WtEn= 8.72D-02
 Coeff-Com:  0.133D+00 0.867D+00
 Coeff-En:   0.000D+00 0.100D+01
 Coeff:      0.122D+00 0.878D+00
 Gap=     0.443 Goal=   None    Shift=    0.000
 RMSDP=1.41D-03 MaxDP=2.09D-02 DE=-1.08D-02 OVMax= 1.96D-02

 Cycle   3  Pass 0  IDiag  1:
 E= -78.5003968523751     Delta-E=       -0.002355122383 Rises=F Damp=F
 DIIS: error= 4.49D-03 at cycle   3 NSaved=   3.
 NSaved= 3 IEnMin= 3 EnMin= -78.5003968523751     IErMin= 3 ErrMin= 4.49D-03
 ErrMax= 4.49D-03  0.00D+00 EMaxC= 1.00D-01 BMatC= 5.97D-04 BMatP= 2.86D-03
 IDIUse=3 WtCom= 9.55D-01 WtEn= 4.49D-02
 Coeff-Com: -0.340D-02 0.311D+00 0.692D+00
 Coeff-En:   0.000D+00 0.355D-01 0.965D+00
 Coeff:     -0.325D-02 0.299D+00 0.705D+00
 Gap=     0.440 Goal=   None    Shift=    0.000
 RMSDP=4.29D-04 MaxDP=5.77D-03 DE=-2.36D-03 OVMax= 7.90D-03

 Cycle   4  Pass 0  IDiag  1:
 E= -78.5010444621804     Delta-E=       -0.000647609805 Rises=F Damp=F
 DIIS: error= 1.80D-04 at cycle   4 NSaved=   4.
 NSaved= 4 IEnMin= 4 EnMin= -78.5010444621804     IErMin= 4 ErrMin= 1.80D-04
 ErrMax= 1.80D-04  0.00D+00 EMaxC= 1.00D-01 BMatC= 1.22D-06 BMatP= 5.97D-04
 IDIUse=3 WtCom= 9.98D-01 WtEn= 1.80D-03
 Coeff-Com: -0.444D-04-0.522D-01-0.701D-01 0.112D+01
 Coeff-En:   0.000D+00 0.000D+00 0.000D+00 0.100D+01
 Coeff:     -0.443D-04-0.521D-01-0.700D-01 0.112D+01
 Gap=     0.440 Goal=   None    Shift=    0.000
 RMSDP=4.35D-05 MaxDP=5.56D-04 DE=-6.48D-04 OVMax= 4.41D-04

 Cycle   5  Pass 0  IDiag  1:
 E= -78.5010461343017     Delta-E=       -0.000001672121 Rises=F Damp=F
 DIIS: error= 2.04D-05 at cycle   5 NSaved=   5.
 NSaved= 5 IEnMin= 5 EnMin= -78.5010461343017     IErMin= 5 ErrMin= 2.04D-05
 ErrMax= 2.04D-05  0.00D+00 EMaxC= 1.00D-01 BMatC= 8.25D-09 BMatP= 1.22D-06
 IDIUse=1 WtCom= 1.00D+00 WtEn= 0.00D+00
 Coeff-Com:  0.127D-03-0.108D-01-0.211D-01 0.759D-01 0.956D+00
 Coeff:      0.127D-03-0.108D-01-0.211D-01 0.759D-01 0.956D+00
 Gap=     0.440 Goal=   None    Shift=    0.000
 RMSDP=6.17D-06 MaxDP=5.46D-05 DE=-1.67D-06 OVMax= 6.39D-05

 Initial convergence to 1.0D-05 achieved.  Increase integral accuracy.
 Cycle   6  Pass 1  IDiag  1:
 E= -78.5010668110237     Delta-E=       -0.000020676722 Rises=F Damp=F
 DIIS: error= 4.36D-05 at cycle   1 NSaved=   1.
 NSaved= 1 IEnMin= 1 EnMin= -78.5010668110237     IErMin= 1 ErrMin= 4.36D-05
 ErrMax= 4.36D-05  0.00D+00 EMaxC= 1.00D-01 BMatC= 3.52D-08 BMatP= 3.52D-08
 IDIUse=1 WtCom= 1.00D+00 WtEn= 0.00D+00
 Coeff-Com:  0.100D+01
 Coeff:      0.100D+01
 Gap=     0.440 Goal=   None    Shift=    0.000
 RMSDP=6.17D-06 MaxDP=5.46D-05 DE=-2.07D-05 OVMax= 4.62D-05

 Cycle   7  Pass 1  IDiag  1:
 E= -78.5010668428590     Delta-E=       -0.000000031835 Rises=F Damp=F
 DIIS: error= 6.37D-06 at cycle   2 NSaved=   2.
 NSaved= 2 IEnMin= 2 EnMin= -78.5010668428590     IErMin= 2 ErrMin= 6.37D-06
 ErrMax= 6.37D-06  0.00D+00 EMaxC= 1.00D-01 BMatC= 5.29D-10 BMatP= 3.52D-08
 IDIUse=1 WtCom= 1.00D+00 WtEn= 0.00D+00
 Coeff-Com: -0.755D-01 0.108D+01
 Coeff:     -0.755D-01 0.108D+01
 Gap=     0.440 Goal=   None    Shift=    0.000
 RMSDP=5.62D-07 MaxDP=3.82D-06 DE=-3.18D-08 OVMax= 1.55D-05

 Cycle   8  Pass 1  IDiag  1:
 E= -78.5010668435388     Delta-E=       -0.000000000680 Rises=F Damp=F
 DIIS: error= 1.52D-06 at cycle   3 NSaved=   3.
 NSaved= 3 IEnMin= 3 EnMin= -78.5010668435388     IErMin= 3 ErrMin= 1.52D-06
 ErrMax= 1.52D-06  0.00D+00 EMaxC= 1.00D-01 BMatC= 3.01D-11 BMatP= 5.29D-10
 IDIUse=1 WtCom= 1.00D+00 WtEn= 0.00D+00
 Coeff-Com: -0.232D-01 0.164D+00 0.859D+00
 Coeff:     -0.232D-01 0.164D+00 0.859D+00
 Gap=     0.440 Goal=   None    Shift=    0.000
 RMSDP=1.22D-07 MaxDP=1.32D-06 DE=-6.80D-10 OVMax= 2.35D-06

 Cycle   9  Pass 1  IDiag  1:
 E= -78.5010668435698     Delta-E=       -0.000000000031 Rises=F Damp=F
 DIIS: error= 4.37D-07 at cycle   4 NSaved=   4.
 NSaved= 4 IEnMin= 4 EnMin= -78.5010668435698     IErMin= 4 ErrMin= 4.37D-07
 ErrMax= 4.37D-07  0.00D+00 EMaxC= 1.00D-01 BMatC= 2.39D-12 BMatP= 3.01D-11
 IDIUse=1 WtCom= 1.00D+00 WtEn= 0.00D+00
 Coeff-Com: -0.189D-02-0.232D-02 0.177D+00 0.828D+00
 Coeff:     -0.189D-02-0.232D-02 0.177D+00 0.828D+00
 Gap=     0.440 Goal=   None    Shift=    0.000
 RMSDP=4.28D-08 MaxDP=5.25D-07 DE=-3.10D-11 OVMax= 1.06D-06

 Cycle  10  Pass 1  IDiag  1:
 E= -78.5010668435733     Delta-E=       -0.000000000004 Rises=F Damp=F
 DIIS: error= 7.77D-08 at cycle   5 NSaved=   5.
 NSaved= 5 IEnMin= 5 EnMin= -78.5010668435733     IErMin= 5 ErrMin= 7.77D-08
 ErrMax= 7.77D-08  0.00D+00 EMaxC= 1.00D-01 BMatC= 2.06D-13 BMatP= 2.39D-12
 IDIUse=1 WtCom= 1.00D+00 WtEn= 0.00D+00
 Coeff-Com:  0.190D-02-0.170D-01-0.648D-01 0.146D+00 0.934D+00
 Coeff:      0.190D-02-0.170D-01-0.648D-01 0.146D+00 0.934D+00
 Gap=     0.440 Goal=   None    Shift=    0.000
 RMSDP=1.49D-08 MaxDP=1.64D-07 DE=-3.51D-12 OVMax= 2.05D-07

 Cycle  11  Pass 1  IDiag  1:
 E= -78.5010668435733     Delta-E=        0.000000000000 Rises=F Damp=F
 DIIS: error= 4.86D-09 at cycle   6 NSaved=   6.
 NSaved= 6 IEnMin= 5 EnMin= -78.5010668435733     IErMin= 6 ErrMin= 4.86D-09
 ErrMax= 4.86D-09  0.00D+00 EMaxC= 1.00D-01 BMatC= 3.95D-16 BMatP= 2.06D-13
 IDIUse=1 WtCom= 1.00D+00 WtEn= 0.00D+00
 Coeff-Com: -0.205D-03 0.199D-02 0.768D-02-0.261D-01-0.125D+00 0.114D+01
 Coeff:     -0.205D-03 0.199D-02 0.768D-02-0.261D-01-0.125D+00 0.114D+01
 Gap=     0.440 Goal=   None    Shift=    0.000
 RMSDP=1.95D-09 MaxDP=1.75D-08 DE= 5.68D-14 OVMax= 2.04D-08

 SCF Done:  E(RwB97XD) =  -78.5010668436     A.U. after   11 cycles
            NFock= 11  Conv=0.20D-08     -V/T= 2.0131
 KE= 7.748290362649D+01 PE=-2.474849614186D+02 EE= 5.823854676776D+01
 Leave Link  502 at Sat Aug 14 23:27:21 2021, MaxMem=  1073741824 cpu:               2.9 elap:               0.4
 (Enter /home/prakriti/g16/l801.exe)
 DoSCS=F DFT=T ScalE2(SS,OS)=  1.000000  1.000000
 ExpMin= 1.22D-01 ExpMax= 1.24D+03 ExpMxC= 1.86D+02 IAcc=3 IRadAn=         5 AccDes= 0.00D+00
 HarFok:  IExCor=  205 AccDes= 0.00D+00 IRadAn=         5 IDoV=-2 UseB2=F ITyADJ=14
 ICtDFT= 12500011 ScaDFX=  1.000000  1.000000  1.000000  1.000000
 Largest valence mixing into a core orbital is  6.76D-05
 Largest core mixing into a valence orbital is  3.12D-05
 Range of M.O.s used for correlation:     3    48
 NBasis=    48 NAE=     8 NBE=     8 NFC=     2 NFV=     0
 NROrb=     46 NOA=     6 NOB=     6 NVA=    40 NVB=    40
 Leave Link  801 at Sat Aug 14 23:27:21 2021, MaxMem=  1073741824 cpu:               0.5 elap:               0.1
 (Enter /home/prakriti/g16/l914.exe)
 RHF ground state
 Keep R1, R2, and R3 ints in memory in symmetry-blocked form, NReq=72864690.
 FoFCou: FMM=F IPFlag=           0 FMFlag=           0 FMFlg1=           0
         NFxFlg=           0 DoJE=F BraDBF=F KetDBF=F FulRan=T
         wScrn=  0.000000 ICntrl=       600 IOpCl=  0 I1Cent=           0 NGrid=           0
         NMat0=    1 NMatS0=   1176 NMatT0=    0 NMatD0=    1 NMtDS0=    0 NMtDT0=    0
 Petite list used in FoFCou.
 MDV=  1073741824 DFT=T DoStab=F Mixed=T DoRPA=T DoScal=F NonHer=T
 Making orbital integer symmetry assigments:
 Orbital symmetries:
       Occupied  (AG) (B1U) (AG) (B1U) (B2U) (AG) (B3G) (B3U)
       Virtual   (B2G) (AG) (B2U) (B1U) (B3G) (B1U) (AG) (B2U)
                 (AG) (B3U) (B1U) (B2G) (AG) (B1U) (B2U) (B3G)
                 (B1U) (B3G) (B1G) (AU) (B3U) (B3G) (B2U) (AG)
                 (B2G) (B1U) (B2U) (AG) (B3U) (B1G) (B1U) (B3G)
                 (AG) (AU) (B2G) (AG) (B2U) (B1U) (B1U) (B3G)
   240 initial guesses have been made.
 Convergence on wavefunction:    0.001000000000000
 Davidson Disk Diagonalization:  ConvIn= 1.00D-03 SkipCon=T Conv= 1.00D-03.
 Max sub-space:  1440 roots to seek:   480 dimension of matrix:          480
 *** WARNING: Number of orthogonal guesses is          240
 Iteration     1 Dimension   240 NMult     0 NNew    240
 CISAX will form   240 AO SS matrices at one time.
 NMat=   240 NSing=   240 JSym2X=-1.
 New state      5 was old state      6
 New state      6 was old state      5
 New state      8 was old state     11
 New state      9 was old state      8
 New state     10 was old state      9
 New state     11 was old state     10
 New state     15 was old state     16
 New state     16 was old state     15
 New state     17 was old state     20
 New state     19 was old state     17
 New state     20 was old state     19
 New state     22 was old state     24
 New state     23 was old state     25
 New state     24 was old state     22
 New state     25 was old state     28
 New state     26 was old state     23
 New state     27 was old state     26
 New state     28 was old state     27
 New state     30 was old state     31
 New state     31 was old state     30
 New state     32 was old state     33
 New state     33 was old state     32
 New state     35 was old state     36
 New state     36 was old state     37
 New state     37 was old state     40
 New state     38 was old state     39
 New state     39 was old state     35
 New state     40 was old state     38
 New state     41 was old state     45
 New state     44 was old state     41
 New state     45 was old state     44
 New state     46 was old state     51
 New state     47 was old state     46
 New state     48 was old state     54
 New state     49 was old state     48
 New state     50 was old state     47
 New state     51 was old state     53
 New state     52 was old state     56
 New state     53 was old state     49
 New state     54 was old state     50
 New state     55 was old state     52
 New state     56 was old state     55
 New state     57 was old state     59
 New state     59 was old state     60
 New state     60 was old state     63
 New state     61 was old state     57
 New state     62 was old state     61
 New state     63 was old state     62
 New state     64 was old state     66
 New state     66 was old state     70
 New state     69 was old state     75
 New state     70 was old state     64
 New state     73 was old state     76
 New state     74 was old state     73
 New state     75 was old state     74
 New state     76 was old state     69
 New state     81 was old state     83
 New state     83 was old state     85
 New state     85 was old state     81
 New state     88 was old state     91
 New state     89 was old state     88
 New state     90 was old state     92
 New state     91 was old state     94
 New state     92 was old state     93
 New state     93 was old state     96
 New state     94 was old state     95
 New state     95 was old state     90
 New state     96 was old state     97
 New state     97 was old state     89
 New state     98 was old state     99
 New state     99 was old state     98
 New state    101 was old state    103
 New state    102 was old state    104
 New state    103 was old state    102
 New state    104 was old state    101
 New state    110 was old state    112
 New state    111 was old state    110
 New state    112 was old state    113
 New state    113 was old state    111
 New state    115 was old state    116
 New state    116 was old state    115
 New state    117 was old state    118
 New state    118 was old state    119
 New state    119 was old state    117
 New state    121 was old state    122
 New state    122 was old state    121
 New state    127 was old state    128
 New state    128 was old state    127
 New state    135 was old state    136
 New state    136 was old state    135
 New state    137 was old state    140
 New state    138 was old state    137
 New state    139 was old state    138
 New state    140 was old state    139
 New state    141 was old state    143
 New state    143 was old state    141
 New state    144 was old state    146
 New state    145 was old state    144
 New state    146 was old state    145
 New state    147 was old state    149
 New state    149 was old state    147
 New state    151 was old state    152
 New state    152 was old state    151
 New state    154 was old state    157
 New state    155 was old state    154
 New state    156 was old state    155
 New state    157 was old state    160
 New state    159 was old state    156
 New state    160 was old state    159
 New state    162 was old state    165
 New state    164 was old state    162
 New state    165 was old state    164
 New state    167 was old state    168
 New state    168 was old state    167
 New state    169 was old state    170
 New state    170 was old state    169
 New state    174 was old state    175
 New state    175 was old state    174
 New state    176 was old state    177
 New state    177 was old state    176
 New state    178 was old state    179
 New state    179 was old state    178
 New state    180 was old state    181
 New state    181 was old state    180
 New state    191 was old state    192
 New state    192 was old state    191
 New state    194 was old state    195
 New state    195 was old state    197
 New state    197 was old state    194
 New state    204 was old state    205
 New state    205 was old state    206
 New state    206 was old state    204
 New state    209 was old state    210
 New state    210 was old state    209
 New state    213 was old state    215
 New state    215 was old state    213
 New state    219 was old state    220
 New state    220 was old state    219
 New state    222 was old state    223
 New state    223 was old state    222
 New state    232 was old state    233
 New state    233 was old state    232
 Excitation Energies [eV] at current iteration:
 Root      1 :     8.171951571366341
 Root      2 :     8.289104623637350
 Root      3 :     9.115183304783589
 Root      4 :     9.433895502627916
 Root      5 :     9.736400869317274
 Root      6 :    10.248885732550690
 Root      7 :    11.319603977203120
 Root      8 :    11.354334687582620
 Root      9 :    12.089936665394240
 Root     10 :    12.119847399520800
 Root     11 :    12.452670050717460
 Root     12 :    13.394142794897590
 Root     13 :    13.660263851764760
 Root     14 :    14.193685354723590
 Root     15 :    14.764109072699870
 Root     16 :    14.825297790928580
 Root     17 :    15.065791698221270
 Root     18 :    15.199672471619310
 Root     19 :    15.525944711344270
 Root     20 :    15.603317262039670
 Root     21 :    15.978090577387400
 Root     22 :    17.022367529269460
 Root     23 :    17.744766642804810
 Root     24 :    17.765278379466120
 Root     25 :    17.956062665975220
 Root     26 :    18.048676875417360
 Root     27 :    18.159462824252480
 Root     28 :    18.695129263867330
 Root     29 :    18.940823037466650
 Root     30 :    19.002954789942010
 Root     31 :    19.657811144555850
 Root     32 :    19.741148591414360
 Root     33 :    20.203071760008420
 Root     34 :    20.760192544988550
 Root     35 :    20.847292699943380
 Root     36 :    21.236688651361730
 Root     37 :    21.562216199481940
 Root     38 :    21.612205342645560
 Root     39 :    21.656655919180130
 Root     40 :    21.995358911749260
 Root     41 :    22.225121526570200
 Root     42 :    22.455034150280480
 Root     43 :    22.493946563735290
 Root     44 :    22.612951503839720
 Root     45 :    22.795829448020360
 Root     46 :    23.244993787631850
 Root     47 :    23.312079322494500
 Root     48 :    23.695685801986920
 Root     49 :    23.739615646236500
 Root     50 :    23.813422577923330
 Root     51 :    24.119608044409670
 Root     52 :    24.483697067892390
 Root     53 :    24.510335451056680
 Root     54 :    24.636156291548160
 Root     55 :    24.685145230956890
 Root     56 :    24.724989310353610
 Root     57 :    24.889172882641820
 Root     58 :    25.218275501903040
 Root     59 :    25.251593519661720
 Root     60 :    25.526302389650820
 Root     61 :    25.727638614150530
 Root     62 :    25.891837598516400
 Root     63 :    26.591970958425320
 Root     64 :    26.805553865919230
 Root     65 :    27.211803474242160
 Root     66 :    27.375487880907660
 Root     67 :    27.417857665646670
 Root     68 :    27.464994593397750
 Root     69 :    27.847898757984970
 Root     70 :    27.896303971346880
 Root     71 :    27.934051012577720
 Root     72 :    28.068947653344140
 Root     73 :    28.646914943947280
 Root     74 :    28.867417428031240
 Root     75 :    29.031687462282460
 Root     76 :    29.135391065110460
 Root     77 :    29.155781118656590
 Root     78 :    29.934941131503810
 Root     79 :    30.168158230268450
 Root     80 :    30.443345123733640
 Root     81 :    30.449161505532020
 Root     82 :    30.502482797173730
 Root     83 :    30.659646832120160
 Root     84 :    30.967369972366960
 Root     85 :    31.638632446320170
 Root     86 :    31.834439130813650
 Root     87 :    32.241725298786590
 Root     88 :    32.842920057732600
 Root     89 :    32.901432892196670
 Root     90 :    33.314190387917630
 Root     91 :    33.644458771327990
 Root     92 :    33.904758321904060
 Root     93 :    34.597180415598750
 Root     94 :    34.660678234006270
 Root     95 :    35.047839172367890
 Root     96 :    35.314175157862690
 Root     97 :    35.753317778885690
 Root     98 :    36.769057412175630
 Root     99 :    37.580806990296300
 Root    100 :    38.025315763035180
 Root    101 :    38.130111714557980
 Root    102 :    38.552120464790340
 Root    103 :    38.886419575650060
 Root    104 :    38.970137985895680
 Root    105 :    38.982194858174890
 Root    106 :    40.250931162194550
 Root    107 :    40.452589544533220
 Root    108 :    40.831288747747160
 Root    109 :    41.598987188124500
 Root    110 :    41.721125315471010
 Root    111 :    42.507818258677510
 Root    112 :    42.719234228700400
 Root    113 :    42.947757022721380
 Root    114 :    43.561680704874430
 Root    115 :    43.568284151611300
 Root    116 :    43.688208488482000
 Root    117 :    45.619958359278590
 Root    118 :    45.740959036321310
 Root    119 :    46.146618067366080
 Root    120 :    46.741610085479340
 Root    121 :    48.158697583314200
 Root    122 :    48.563388164671420
 Root    123 :    49.043188591247660
 Root    124 :    49.473683447126750
 Root    125 :    50.220728262011370
 Root    126 :    50.587913244474480
 Root    127 :    51.504976430641020
 Root    128 :    51.594335703154000
 Root    129 :    52.520573134858750
 Root    130 :    52.745490165912910
 Root    131 :    53.051803624853650
 Root    132 :    53.155716686669760
 Root    133 :    53.169071780420740
 Root    134 :    53.641875943249100
 Root    135 :    53.788599397864680
 Root    136 :    54.083097076656860
 Root    137 :    54.312976567944040
 Root    138 :    54.388071754265450
 Root    139 :    54.851608754697080
 Root    140 :    54.859623804623820
 Root    141 :    55.912056395636990
 Root    142 :    55.944580688068580
 Root    143 :    55.968317854270890
 Root    144 :    56.531816227952100
 Root    145 :    56.570855209137030
 Root    146 :    56.596000316117460
 Root    147 :    57.216952842780710
 Root    148 :    57.273634349962530
 Root    149 :    57.664670560115100
 Root    150 :    57.850516877890100
 Root    151 :    58.142805061569470
 Root    152 :    58.538642942874790
 Root    153 :    58.907786057667440
 Root    154 :    59.206463387834870
 Root    155 :    59.247695543989250
 Root    156 :    59.281960217908190
 Root    157 :    60.312337385346180
 Root    158 :    60.352333391360510
 Root    159 :    60.539096956277280
 Root    160 :    60.767845602897530
 Root    161 :    62.035585851090790
 Root    162 :    62.361626889342150
 Root    163 :    62.573845815689790
 Root    164 :    62.707176213013610
 Root    165 :    62.740052432927260
 Root    166 :    63.404962249569410
 Root    167 :    63.747484704183750
 Root    168 :    63.845471653437450
 Root    169 :    64.004106936235320
 Root    170 :    64.079045542880100
 Root    171 :    64.795578486008850
 Root    172 :    65.596663230599690
 Root    173 :    65.705945545517640
 Root    174 :    66.519638017590710
 Root    175 :    66.733633565249790
 Root    176 :    66.997371051457960
 Root    177 :    67.044158685200780
 Root    178 :    67.586246369879460
 Root    179 :    67.645077442966770
 Root    180 :    68.508697956034380
 Root    181 :    68.788884228488170
 Root    182 :    69.147684163041450
 Root    183 :    69.871243111288190
 Root    184 :    70.103947214459230
 Root    185 :    70.237922755671090
 Root    186 :    70.325810225044260
 Root    187 :    71.065328736861560
 Root    188 :    71.569209663843420
 Root    189 :    72.147523124916110
 Root    190 :    72.809174688487830
 Root    191 :    73.062277768061360
 Root    192 :    73.062393088558280
 Root    193 :    73.198721064451760
 Root    194 :    74.284394170736680
 Root    195 :    75.081615348668110
 Root    196 :    75.138083665813410
 Root    197 :    75.165996701324300
 Root    198 :    75.406065116197570
 Root    199 :    75.899304022323050
 Root    200 :    75.919166527978850
 Root    201 :    77.317170314995120
 Root    202 :    77.847639540592450
 Root    203 :    78.280197818149670
 Root    204 :    78.766864272054150
 Root    205 :    79.001556226568670
 Root    206 :    79.008211223998390
 Root    207 :    79.897168647272850
 Root    208 :    81.038173451126800
 Root    209 :    81.313561464012490
 Root    210 :    81.612636135085720
 Root    211 :    81.970555354412700
 Root    212 :    82.950596739735450
 Root    213 :    83.664252769712430
 Root    214 :    83.866003318887690
 Root    215 :    83.963597664107470
 Root    216 :    84.100358096996910
 Root    217 :    84.775031637388880
 Root    218 :    85.468349072328480
 Root    219 :    86.130488023315190
 Root    220 :    86.463146116684710
 Root    221 :    87.185174152228730
 Root    222 :    87.616356661674230
 Root    223 :    87.691267996543910
 Root    224 :    88.528083779500510
 Root    225 :    89.859510380594230
 Root    226 :    90.841870904317200
 Root    227 :    91.194435866068350
 Root    228 :    92.244135177523260
 Root    229 :    92.923586459598670
 Root    230 :    94.304065938356150
 Root    231 :    94.920157292530350
 Root    232 :    95.713602791564340
 Root    233 :    95.761821159897070
 Root    234 :    97.439827987144110
 Root    235 :    98.607818905456370
 Root    236 :   100.016191157520400
 Root    237 :   101.593011086757800
 Root    238 :   102.006999272728900
 Root    239 :   104.524840772132300
 Root    240 :   109.182626061124500
 Convergence achieved for final wavefunctions.
 ***********************************************************************
 Excited states from <AA,BB:AA,BB> singles matrix:
 ***********************************************************************
 
 1PDM for each excited state written to RWF  633
 Ground to excited state transition densities written to RWF  633
 Ground to excited state transition electric dipole moments (Au):
       state          X           Y           Z        Dip. S.      Osc.
         1         0.0000     -0.0000     -1.4099      1.9878      0.3980
         2        -0.0000     -0.0000     -0.0000      0.0000      0.0000
         3         0.1621     -0.0000      0.0000      0.0263      0.0059
         4         0.0000     -0.0000     -0.0000      0.0000      0.0000
         5         0.0000      0.0000     -0.0000      0.0000      0.0000
         6         0.0000      0.0000     -0.0000      0.0000      0.0000
         7        -0.0000     -0.0000      0.0000      0.0000      0.0000
         8        -0.0000      0.0000      0.0000      0.0000      0.0000
         9        -0.0000      0.0000     -1.1493      1.3209      0.3913
        10        -0.0000     -0.0000     -0.0000      0.0000      0.0000
        11         0.0000      1.2675      0.0000      1.6065      0.4901
        12        -0.0000      0.0000     -0.0000      0.0000      0.0000
        13        -0.0000     -0.8018     -0.0000      0.6429      0.2152
        14        -0.0000     -0.0000      0.9395      0.8827      0.3069
        15         0.0000      0.9709      0.0000      0.9427      0.3410
        16         0.0000      0.0000      0.0000      0.0000      0.0000
        17         0.0000     -0.0000      0.0000      0.0000      0.0000
        18        -0.4334      0.0000     -0.0000      0.1879      0.0700
        19        -0.0000      0.0000     -0.0000      0.0000      0.0000
        20         0.0000     -0.0000      0.0000      0.0000      0.0000
        21         0.0000      0.0000     -0.0000      0.0000      0.0000
        22         0.6721     -0.0000     -0.0000      0.4517      0.1884
        23        -0.0000     -0.8417     -0.0000      0.7085      0.3080
        24         0.0000      0.0000     -0.1584      0.0251      0.0109
        25         0.0000      0.0000      0.0000      0.0000      0.0000
        26        -0.0000      0.0000      0.3930      0.1544      0.0683
        27         0.0000      0.0000     -0.0000      0.0000      0.0000
        28         0.0000      0.0000      0.0000      0.0000      0.0000
        29        -1.3356     -0.0000     -0.0000      1.7838      0.8277
        30        -0.0000     -0.0000      0.0000      0.0000      0.0000
        31         0.0000     -0.0000      0.7672      0.5885      0.2834
        32        -0.0000     -0.0000     -0.0000      0.0000      0.0000
        33        -0.0000     -0.0000     -0.0000      0.0000      0.0000
        34        -0.0000     -0.2832     -0.0000      0.0802      0.0408
        35        -0.0000      0.0000     -0.0000      0.0000      0.0000
        36        -0.0000     -0.0000     -0.0000      0.0000      0.0000
        37        -0.0000      0.0000     -0.0000      0.0000      0.0000
        38        -0.0000     -0.0000     -0.0000      0.0000      0.0000
        39         0.0000      0.0000     -1.2769      1.6305      0.8651
        40         0.0000      0.0000      0.0000      0.0000      0.0000
        41        -0.0000      0.2340      0.0000      0.0548      0.0298
        42         0.0000     -0.3131     -0.0000      0.0980      0.0539
        43         0.0000     -0.0000      0.5352      0.2864      0.1579
        44         0.0000      0.0000      0.0000      0.0000      0.0000
        45         0.0000      0.0000     -0.0000      0.0000      0.0000
        46         0.4149      0.0000      0.0000      0.1721      0.0980
        47        -0.0000     -0.1216     -0.0000      0.0148      0.0085
        48         0.0000     -0.0000      0.0000      0.0000      0.0000
        49         0.0000     -0.0000      0.0000      0.0000      0.0000
        50        -0.0000      0.0000     -0.0757      0.0057      0.0033
        51        -0.0379      0.0000     -0.0000      0.0014      0.0009
        52        -0.0000      0.0000     -0.0000      0.0000      0.0000
        53        -0.0000      0.2255      0.0000      0.0508      0.0305
        54        -0.0000     -0.0000     -0.0000      0.0000      0.0000
        55         0.0000      0.7194      0.0000      0.5175      0.3130
        56         0.0000     -0.0000      0.0000      0.0000      0.0000
        57         0.0000     -0.0000      0.0000      0.0000      0.0000
        58        -0.0000      0.0000      0.0000      0.0000      0.0000
        59         0.0000      0.0000     -0.4880      0.2381      0.1473
        60         0.0000      0.0000     -0.0000      0.0000      0.0000
        61         0.0000      0.0000     -0.0000      0.0000      0.0000
        62         0.0000      0.0000      0.5911      0.3494      0.2216
        63        -0.0000      0.0000      0.0000      0.0000      0.0000
        64        -0.0000     -0.0000     -0.0000      0.0000      0.0000
        65        -0.0000     -0.0000     -0.1805      0.0326      0.0217
        66        -0.0000      0.0000      0.0000      0.0000      0.0000
        67         0.0000     -0.6197     -0.0000      0.3840      0.2579
        68        -0.0000      0.0000     -0.2488      0.0619      0.0417
        69         0.0000      0.0000     -0.0000      0.0000      0.0000
        70        -0.0000     -0.0000     -0.0000      0.0000      0.0000
        71         0.0000      0.0000      0.0000      0.0000      0.0000
        72         0.0000     -0.0000     -0.0000      0.0000      0.0000
        73         0.0000     -0.2730     -0.0000      0.0745      0.0523
        74         0.0000     -0.0000      0.1359      0.0185      0.0131
        75        -0.0000      0.0000     -0.3291      0.1083      0.0770
        76         0.0000      0.0000      0.0000      0.0000      0.0000
        77         0.0000      0.0000      0.0000      0.0000      0.0000
        78        -0.0000     -0.5182      0.0000      0.2685      0.1969
        79        -0.0000     -0.0000     -0.0000      0.0000      0.0000
        80         0.0000      0.0000      0.0000      0.0000      0.0000
        81        -0.4059      0.0000      0.0000      0.1647      0.1229
        82         0.0000      0.0000     -0.0000      0.0000      0.0000
        83        -0.0000     -0.0023      0.0000      0.0000      0.0000
        84         0.0000     -0.0000     -0.3876      0.1502      0.1140
        85         0.0000     -0.0000      0.0000      0.0000      0.0000
        86        -0.0000      0.2669     -0.0000      0.0712      0.0556
        87         0.0000      0.0000      0.0000      0.0000      0.0000
        88         0.2689      0.0000      0.0000      0.0723      0.0582
        89         0.0000     -0.0000     -0.4232      0.1791      0.1443
        90        -0.0000      0.0000      0.0000      0.0000      0.0000
        91        -0.0000      0.0000     -0.0000      0.0000      0.0000
        92         0.0000     -0.4348     -0.0000      0.1891      0.1570
        93        -0.0000     -0.0000      0.0000      0.0000      0.0000
        94        -0.0000     -0.0000     -0.0106      0.0001      0.0001
        95         0.0000     -0.0000      0.0000      0.0000      0.0000
        96        -0.0000     -0.0000     -0.0000      0.0000      0.0000
        97        -0.0000      0.0000     -0.1441      0.0208      0.0182
        98        -0.0000      0.0000      0.0000      0.0000      0.0000
        99         0.0000      0.0000     -0.0000      0.0000      0.0000
       100        -0.0000     -0.0000     -0.0000      0.0000      0.0000
       101         0.0000     -0.5207     -0.0000      0.2711      0.2533
       102         0.0000     -0.0000      0.0000      0.0000      0.0000
       103        -0.0000     -0.8871      0.0000      0.7869      0.7497
       104         0.0000     -0.0000     -0.0862      0.0074      0.0071
       105         0.0000     -0.0000      0.0000      0.0000      0.0000
       106         0.0000     -0.0000      0.0000      0.0000      0.0000
       107        -0.0000     -0.0000      0.2787      0.0777      0.0770
       108         0.0000     -0.0000      0.0000      0.0000      0.0000
       109         0.0000     -0.0000      0.0000      0.0000      0.0000
       110         0.0000      0.0000      0.0000      0.0000      0.0000
       111        -0.6512      0.0000      0.0000      0.4240      0.4416
       112         0.0000      0.0000     -0.0000      0.0000      0.0000
       113         0.0000      0.0000      0.3487      0.1216      0.1279
       114        -0.0000     -0.0456      0.0000      0.0021      0.0022
       115         0.0000     -0.0000      0.0000      0.0000      0.0000
       116        -0.2106     -0.0000     -0.0000      0.0444      0.0475
       117        -0.0000      0.0000      0.0000      0.0000      0.0000
       118        -0.0000      0.0000      0.0000      0.0000      0.0000
       119        -1.1601     -0.0000     -0.0000      1.3458      1.5215
       120        -0.0000     -0.0000      0.0000      0.0000      0.0000
       121        -0.0000     -0.0000      0.0000      0.0000      0.0000
       122         0.0000     -0.0000     -0.0000      0.0000      0.0000
       123        -0.0000     -0.0000      0.0000      0.0000      0.0000
       124         0.0000      0.0000      0.0000      0.0000      0.0000
       125         0.0000      0.0000      0.0000      0.0000      0.0000
       126         0.4049      0.0000      0.0000      0.1640      0.2032
       127        -0.0000     -0.0000      0.0000      0.0000      0.0000
       128        -0.0000     -0.0000      0.0000      0.0000      0.0000
       129        -0.0000      0.0000      0.0878      0.0077      0.0099
       130         0.0000      0.0000     -0.3845      0.1478      0.1910
       131        -0.0000      0.0000     -0.0000      0.0000      0.0000
       132        -0.0000     -0.0000      0.0000      0.0000      0.0000
       133         0.0000     -0.0000      0.0000      0.0000      0.0000
       134         0.0000     -0.0000     -0.0000      0.0000      0.0000
       135         0.0000      0.0000      0.0000      0.0000      0.0000
       136        -0.0858     -0.0000      0.0000      0.0074      0.0097
       137        -0.0000      0.0000      0.0000      0.0000      0.0000
       138        -0.0000      0.0358     -0.0000      0.0013      0.0017
       139        -0.0000     -0.0000     -0.1789      0.0320      0.0430
       140         0.0000      0.0000      0.0000      0.0000      0.0000
       141        -0.0000      0.2243     -0.0000      0.0503      0.0689
       142         0.0000      0.0000     -0.0000      0.0000      0.0000
       143        -0.6123     -0.0000      0.0000      0.3749      0.5140
       144         0.0000     -0.0000      0.0000      0.0000      0.0000
       145         0.0000     -0.0505     -0.0000      0.0025      0.0035
       146         0.0000      0.0000     -0.1148      0.0132      0.0183
       147        -0.0000     -0.0000     -0.1793      0.0321      0.0450
       148         0.0000     -0.0000      0.0000      0.0000      0.0000
       149        -0.0000      0.1815     -0.0000      0.0329      0.0465
       150         0.0000     -0.0000     -0.0000      0.0000      0.0000
       151         0.0000      0.0000      0.0000      0.0000      0.0000
       152        -0.0000      0.2105      0.0000      0.0443      0.0636
       153         0.0000      0.0000      0.0000      0.0000      0.0000
       154         0.0000      0.0000     -0.0000      0.0000      0.0000
       155         0.0000      0.0000      0.1368      0.0187      0.0272
       156        -0.0000      0.0000     -0.0000      0.0000      0.0000
       157         0.0000     -0.0247      0.0000      0.0006      0.0009
       158         0.0000      0.0000     -0.0000      0.0000      0.0000
       159         0.0000      0.0000      0.0000      0.0000      0.0000
       160         0.1955      0.0000      0.0000      0.0382      0.0569
       161         0.0000     -0.0000      0.0000      0.0000      0.0000
       162        -0.0000      0.0000     -0.0000      0.0000      0.0000
       163        -0.2962      0.0000     -0.0000      0.0877      0.1345
       164        -0.0000     -0.3175     -0.0000      0.1008      0.1548
       165         0.0000     -0.0000     -0.0000      0.0000      0.0000
       166        -0.0000     -0.0000     -0.0000      0.0000      0.0000
       167         0.0000      0.0000      0.1326      0.0176      0.0275
       168         0.0000      0.1797     -0.0000      0.0323      0.0505
       169         0.0000     -0.0000     -0.0000      0.0000      0.0000
       170         0.0000      0.0000      0.0000      0.0000      0.0000
       171        -0.0000     -0.0000      0.0000      0.0000      0.0000
       172        -0.0000     -0.0000     -0.0000      0.0000      0.0000
       173        -0.0000     -0.0000     -0.0000      0.0000      0.0000
       174        -0.0000      0.0000      0.0000      0.0000      0.0000
       175        -0.0000     -0.0000     -0.0000      0.0000      0.0000
       176        -0.0000      0.0000     -0.1345      0.0181      0.0297
       177         0.0000      0.0409      0.0000      0.0017      0.0028
       178        -0.1634      0.0000      0.0000      0.0267      0.0442
       179        -0.0000     -0.1208      0.0000      0.0146      0.0242
       180        -0.0000     -0.0000      0.0000      0.0000      0.0000
       181        -0.0000     -0.0000     -0.0504      0.0025      0.0043
       182         0.0000     -0.0000      0.0000      0.0000      0.0000
       183         0.0000      0.0000     -0.0000      0.0000      0.0000
       184        -0.0000     -0.0000      0.0000      0.0000      0.0000
       185         0.1073     -0.0000      0.0000      0.0115      0.0198
       186        -0.0000     -0.0000      0.0000      0.0000      0.0000
       187        -0.0000     -0.0000      0.0000      0.0000      0.0000
       188         0.2003      0.0000     -0.0000      0.0401      0.0703
       189         0.0000      0.0000     -0.0890      0.0079      0.0140
       190        -0.0000     -0.0000      0.0000      0.0000      0.0000
       191        -0.0000     -0.0000     -0.0000      0.0000      0.0000
       192        -0.1036     -0.0000      0.0000      0.0107      0.0192
       193        -0.0000      0.0000     -0.2064      0.0426      0.0764
       194         0.0000      0.0000     -0.0000      0.0000      0.0000
       195         0.0000     -0.0000     -0.0000      0.0000      0.0000
       196        -0.0000      0.0797      0.0000      0.0063      0.0117
       197         0.0000     -0.0000     -0.0000      0.0000      0.0000
       198         0.0000     -0.0000      0.0000      0.0000      0.0000
       199         0.0000      0.0552      0.0000      0.0030      0.0057
       200         0.0000      0.0000      0.0000      0.0000      0.0000
       201         0.0000      0.0000      0.0000      0.0000      0.0000
       202        -0.0000      0.0000     -0.0940      0.0088      0.0169
       203         0.0000     -0.0000     -0.0000      0.0000      0.0000
       204         0.1466     -0.0000      0.0000      0.0215      0.0415
       205        -0.0000     -0.0000      0.0000      0.0000      0.0000
       206         0.0000     -0.0000     -0.0470      0.0022      0.0043
       207         0.0000     -0.0000      0.0000      0.0000      0.0000
       208        -0.0000      0.0000     -0.0000      0.0000      0.0000
       209         0.0000     -0.0000     -0.0000      0.0000      0.0000
       210        -0.1033     -0.0000     -0.0000      0.0107      0.0213
       211         0.0000     -0.0000      0.0000      0.0000      0.0000
       212         0.0000      0.0000      0.0000      0.0000      0.0000
       213         0.0000      0.0000      0.0000      0.0000      0.0000
       214        -0.0000      0.0000      0.0000      0.0000      0.0000
       215         0.0000      0.0000     -0.0977      0.0095      0.0196
       216         0.0000     -0.0942     -0.0000      0.0089      0.0183
       217        -0.0000      0.0346     -0.0000      0.0012      0.0025
       218        -0.0000     -0.1837     -0.0000      0.0337      0.0707
       219         0.0000      0.0000     -0.0000      0.0000      0.0000
       220        -0.0000      0.0000     -0.0426      0.0018      0.0038
       221         0.0000      0.0000     -0.0000      0.0000      0.0000
       222        -0.0000      0.0000      0.0000      0.0000      0.0000
       223         0.0000     -0.0000      0.1111      0.0123      0.0265
       224        -0.0000      0.0000     -0.0000      0.0000      0.0000
       225        -0.0000     -0.0000      0.0000      0.0000      0.0000
       226        -0.0000      0.0000      0.0000      0.0000      0.0000
       227         0.0000     -0.0721      0.0000      0.0052      0.0116
       228        -0.0000     -0.0000      0.0000      0.0000      0.0000
       229        -0.0000     -0.0000      0.0428      0.0018      0.0042
       230        -0.0000      0.0000      0.0000      0.0000      0.0000
       231        -0.0000      0.1873     -0.0000      0.0351      0.0815
       232         0.0000      0.0000     -0.0000      0.0000      0.0000
       233         0.0000     -0.0000     -0.0515      0.0027      0.0062
       234        -0.0000      0.0000     -0.0000      0.0000      0.0000
       235        -0.0000     -0.0000     -0.0000      0.0000      0.0000
       236        -0.0000      0.0000     -0.0000      0.0000      0.0000
       237         0.0000      0.0000     -0.0586      0.0034      0.0085
       238         0.0000     -0.0000      0.0980      0.0096      0.0240
       239         0.0000      0.0046     -0.0000      0.0000      0.0001
       240        -0.0000     -0.0000      0.0000      0.0000      0.0000
 Ground to excited state transition velocity dipole moments (Au):
       state          X           Y           Z        Dip. S.      Osc.
         1        -0.0000      0.0000      0.4130      0.1706      0.3787
         2         0.0000     -0.0000      0.0000      0.0000      0.0000
         3        -0.0682      0.0000      0.0000      0.0047      0.0093
         4        -0.0000      0.0000      0.0000      0.0000      0.0000
         5         0.0000     -0.0000      0.0000      0.0000      0.0000
         6         0.0000     -0.0000      0.0000      0.0000      0.0000
         7        -0.0000      0.0000     -0.0000      0.0000      0.0000
         8        -0.0000     -0.0000     -0.0000      0.0000      0.0000
         9        -0.0000     -0.0000      0.5174      0.2677      0.4017
        10         0.0000      0.0000      0.0000      0.0000      0.0000
        11         0.0000     -0.6111     -0.0000      0.3734      0.5440
        12        -0.0000     -0.0000      0.0000      0.0000      0.0000
        13         0.0000      0.4170      0.0000      0.1739      0.2309
        14        -0.0000      0.0000     -0.5151      0.2653      0.3391
        15        -0.0000     -0.5593     -0.0000      0.3129      0.3844
        16        -0.0000     -0.0000     -0.0000      0.0000      0.0000
        17         0.0000      0.0000     -0.0000      0.0000      0.0000
        18         0.3114     -0.0000      0.0000      0.0970      0.1157
        19         0.0000     -0.0000      0.0000      0.0000      0.0000
        20        -0.0000      0.0000      0.0000      0.0000      0.0000
        21        -0.0000     -0.0000      0.0000      0.0000      0.0000
        22        -0.4336      0.0000     -0.0000      0.1880      0.2003
        23         0.0000      0.5417      0.0000      0.2935      0.3000
        24        -0.0000     -0.0000      0.1136      0.0129      0.0132
        25        -0.0000     -0.0000     -0.0000      0.0000      0.0000
        26         0.0000     -0.0000     -0.2824      0.0797      0.0802
        27        -0.0000     -0.0000      0.0000      0.0000      0.0000
        28        -0.0000     -0.0000     -0.0000      0.0000      0.0000
        29         0.7430      0.0000      0.0000      0.5520      0.5287
        30         0.0000      0.0000     -0.0000      0.0000      0.0000
        31        -0.0000      0.0000     -0.6070      0.3684      0.3400
        32         0.0000     -0.0000      0.0000      0.0000      0.0000
        33         0.0000      0.0000     -0.0000      0.0000      0.0000
        34         0.0000      0.1924      0.0000      0.0370      0.0323
        35        -0.0000     -0.0000     -0.0000      0.0000      0.0000
        36         0.0000     -0.0000     -0.0000      0.0000      0.0000
        37        -0.0000     -0.0000      0.0000      0.0000      0.0000
        38         0.0000      0.0000      0.0000      0.0000      0.0000
        39        -0.0000     -0.0000      0.9028      0.8151      0.6828
        40        -0.0000     -0.0000     -0.0000      0.0000      0.0000
        41         0.0000     -0.1974     -0.0000      0.0390      0.0318
        42        -0.0000      0.3013      0.0000      0.0908      0.0734
        43         0.0000      0.0000     -0.4219      0.1780      0.1436
        44        -0.0000     -0.0000     -0.0000      0.0000      0.0000
        45        -0.0000     -0.0000      0.0000      0.0000      0.0000
        46        -0.2704     -0.0000     -0.0000      0.0731      0.0571
        47         0.0000      0.0550      0.0000      0.0030      0.0024
        48        -0.0000      0.0000     -0.0000      0.0000      0.0000
        49        -0.0000      0.0000     -0.0000      0.0000      0.0000
        50         0.0000     -0.0000      0.0682      0.0046      0.0035
        51         0.0676     -0.0000      0.0000      0.0046      0.0034
        52         0.0000     -0.0000      0.0000      0.0000      0.0000
        53        -0.0000     -0.1814     -0.0000      0.0329      0.0244
        54         0.0000      0.0000      0.0000      0.0000      0.0000
        55         0.0000     -0.5789     -0.0000      0.3351      0.2462
        56        -0.0000      0.0000     -0.0000      0.0000      0.0000
        57        -0.0000      0.0000     -0.0000      0.0000      0.0000
        58         0.0000     -0.0000     -0.0000      0.0000      0.0000
        59        -0.0000     -0.0000      0.4287      0.1838      0.1320
        60        -0.0000     -0.0000      0.0000      0.0000      0.0000
        61        -0.0000     -0.0000      0.0000      0.0000      0.0000
        62        -0.0000     -0.0000     -0.5507      0.3033      0.2125
        63         0.0000      0.0000      0.0000      0.0000      0.0000
        64         0.0000      0.0000      0.0000      0.0000      0.0000
        65         0.0000      0.0000      0.2019      0.0408      0.0272
        66         0.0000     -0.0000     -0.0000      0.0000      0.0000
        67        -0.0000      0.6291      0.0000      0.3957      0.2618
        68         0.0000     -0.0000      0.2528      0.0639      0.0422
        69        -0.0000     -0.0000      0.0000      0.0000      0.0000
        70         0.0000     -0.0000     -0.0000      0.0000      0.0000
        71        -0.0000      0.0000     -0.0000      0.0000      0.0000
        72        -0.0000      0.0000      0.0000      0.0000      0.0000
        73        -0.0000      0.2485      0.0000      0.0618      0.0391
        74         0.0000      0.0000     -0.1851      0.0342      0.0215
        75         0.0000     -0.0000      0.3607      0.1301      0.0813
        76        -0.0000     -0.0000     -0.0000      0.0000      0.0000
        77        -0.0000      0.0000     -0.0000      0.0000      0.0000
        78         0.0000      0.5321     -0.0000      0.2831      0.1716
        79         0.0000      0.0000      0.0000      0.0000      0.0000
        80        -0.0000     -0.0000      0.0000      0.0000      0.0000
        81         0.4877     -0.0000     -0.0000      0.2379      0.1417
        82        -0.0000      0.0000      0.0000      0.0000      0.0000
        83         0.0000      0.0071     -0.0000      0.0001      0.0000
        84        -0.0000      0.0000      0.3884      0.1508      0.0884
        85         0.0000      0.0000     -0.0000      0.0000      0.0000
        86         0.0000     -0.3056      0.0000      0.0934      0.0532
        87        -0.0000     -0.0000     -0.0000      0.0000      0.0000
        88        -0.3579     -0.0000     -0.0000      0.1281      0.0708
        89        -0.0000      0.0000      0.5214      0.2718      0.1499
        90         0.0000     -0.0000      0.0000      0.0000      0.0000
        91         0.0000      0.0000      0.0000      0.0000      0.0000
        92        -0.0000      0.5336      0.0000      0.2847      0.1524
        93         0.0000      0.0000     -0.0000      0.0000      0.0000
        94         0.0000      0.0000      0.0218      0.0005      0.0002
        95        -0.0000      0.0000     -0.0000      0.0000      0.0000
        96         0.0000      0.0000      0.0000      0.0000      0.0000
        97         0.0000     -0.0000      0.1769      0.0313      0.0159
        98         0.0000     -0.0000     -0.0000      0.0000      0.0000
        99         0.0000     -0.0000      0.0000      0.0000      0.0000
       100         0.0000      0.0000     -0.0000      0.0000      0.0000
       101        -0.0000      0.6236      0.0000      0.3889      0.1850
       102        -0.0000      0.0000     -0.0000      0.0000      0.0000
       103         0.0000      0.7395     -0.0000      0.5469      0.2551
       104        -0.0000      0.0000      0.1296      0.0168      0.0078
       105        -0.0000     -0.0000     -0.0000      0.0000      0.0000
       106         0.0000      0.0000     -0.0000      0.0000      0.0000
       107         0.0000      0.0000     -0.4035      0.1628      0.0730
       108        -0.0000      0.0000     -0.0000      0.0000      0.0000
       109        -0.0000      0.0000     -0.0000      0.0000      0.0000
       110        -0.0000     -0.0000     -0.0000      0.0000      0.0000
       111         0.7085     -0.0000     -0.0000      0.5020      0.2142
       112        -0.0000     -0.0000      0.0000      0.0000      0.0000
       113        -0.0000     -0.0000     -0.5659      0.3203      0.1353
       114         0.0000      0.0779     -0.0000      0.0061      0.0025
       115        -0.0000      0.0000     -0.0000      0.0000      0.0000
       116         0.1658      0.0000      0.0000      0.0275      0.0114
       117         0.0000      0.0000     -0.0000      0.0000      0.0000
       118         0.0000     -0.0000     -0.0000      0.0000      0.0000
       119         1.4176      0.0000      0.0000      2.0095      0.7900
       120         0.0000      0.0000     -0.0000      0.0000      0.0000
       121         0.0000     -0.0000     -0.0000      0.0000      0.0000
       122        -0.0000     -0.0000      0.0000      0.0000      0.0000
       123         0.0000     -0.0000     -0.0000      0.0000      0.0000
       124        -0.0000     -0.0000     -0.0000      0.0000      0.0000
       125        -0.0000     -0.0000     -0.0000      0.0000      0.0000
       126        -0.4987     -0.0000     -0.0000      0.2487      0.0892
       127         0.0000     -0.0000     -0.0000      0.0000      0.0000
       128         0.0000      0.0000      0.0000      0.0000      0.0000
       129         0.0000     -0.0000     -0.1481      0.0219      0.0076
       130        -0.0000     -0.0000      0.5949      0.3539      0.1217
       131         0.0000     -0.0000      0.0000      0.0000      0.0000
       132         0.0000     -0.0000      0.0000      0.0000      0.0000
       133        -0.0000      0.0000     -0.0000      0.0000      0.0000
       134        -0.0000      0.0000      0.0000      0.0000      0.0000
       135        -0.0000     -0.0000     -0.0000      0.0000      0.0000
       136         0.1152     -0.0000     -0.0000      0.0133      0.0045
       137         0.0000     -0.0000     -0.0000      0.0000      0.0000
       138         0.0000     -0.0733      0.0000      0.0054      0.0018
       139         0.0000      0.0000      0.2259      0.0510      0.0169
       140        -0.0000      0.0000     -0.0000      0.0000      0.0000
       141         0.0000     -0.4137      0.0000      0.1712      0.0555
       142        -0.0000     -0.0000      0.0000      0.0000      0.0000
       143         0.9150      0.0000     -0.0000      0.8373      0.2714
       144        -0.0000      0.0000     -0.0000      0.0000      0.0000
       145        -0.0000      0.0312      0.0000      0.0010      0.0003
       146        -0.0000     -0.0000      0.0654      0.0043      0.0014
       147         0.0000      0.0000      0.3000      0.0900      0.0285
       148         0.0000      0.0000      0.0000      0.0000      0.0000
       149         0.0000     -0.2948      0.0000      0.0869      0.0273
       150        -0.0000      0.0000      0.0000      0.0000      0.0000
       151        -0.0000     -0.0000     -0.0000      0.0000      0.0000
       152         0.0000     -0.4151     -0.0000      0.1723      0.0534
       153        -0.0000      0.0000     -0.0000      0.0000      0.0000
       154         0.0000     -0.0000      0.0000      0.0000      0.0000
       155        -0.0000     -0.0000     -0.2413      0.0582      0.0178
       156         0.0000     -0.0000      0.0000      0.0000      0.0000
       157        -0.0000      0.0366     -0.0000      0.0013      0.0004
       158        -0.0000     -0.0000      0.0000      0.0000      0.0000
       159        -0.0000     -0.0000     -0.0000      0.0000      0.0000
       160        -0.3243     -0.0000     -0.0000      0.1052      0.0314
       161        -0.0000      0.0000     -0.0000      0.0000      0.0000
       162         0.0000     -0.0000     -0.0000      0.0000      0.0000
       163         0.5425     -0.0000     -0.0000      0.2943      0.0853
       164         0.0000      0.6156      0.0000      0.3789      0.1096
       165        -0.0000      0.0000      0.0000      0.0000      0.0000
       166         0.0000      0.0000      0.0000      0.0000      0.0000
       167        -0.0000     -0.0000     -0.2843      0.0808      0.0230
       168        -0.0000     -0.3148      0.0000      0.0991      0.0282
       169        -0.0000      0.0000      0.0000      0.0000      0.0000
       170        -0.0000     -0.0000     -0.0000      0.0000      0.0000
       171         0.0000      0.0000     -0.0000      0.0000      0.0000
       172         0.0000      0.0000      0.0000      0.0000      0.0000
       173         0.0000      0.0000      0.0000      0.0000      0.0000
       174         0.0000      0.0000     -0.0000      0.0000      0.0000
       175         0.0000      0.0000      0.0000      0.0000      0.0000
       176         0.0000     -0.0000      0.2725      0.0742      0.0201
       177        -0.0000     -0.0324     -0.0000      0.0011      0.0003
       178         0.3578     -0.0000     -0.0000      0.1280      0.0344
       179         0.0000      0.2601     -0.0000      0.0676      0.0181
       180         0.0000      0.0000     -0.0000      0.0000      0.0000
       181         0.0000      0.0000      0.1025      0.0105      0.0028
       182        -0.0000      0.0000     -0.0000      0.0000      0.0000
       183        -0.0000     -0.0000     -0.0000      0.0000      0.0000
       184         0.0000      0.0000     -0.0000      0.0000      0.0000
       185        -0.2108      0.0000     -0.0000      0.0444      0.0115
       186         0.0000      0.0000     -0.0000      0.0000      0.0000
       187         0.0000      0.0000     -0.0000      0.0000      0.0000
       188        -0.3828     -0.0000      0.0000      0.1465      0.0371
       189         0.0000     -0.0000      0.1612      0.0260      0.0065
       190        -0.0000      0.0000     -0.0000      0.0000      0.0000
       191         0.0000     -0.0000      0.0000      0.0000      0.0000
       192         0.3319      0.0000     -0.0000      0.1102      0.0274
       193         0.0000     -0.0000      0.5058      0.2558      0.0634
       194        -0.0000     -0.0000      0.0000      0.0000      0.0000
       195        -0.0000      0.0000      0.0000      0.0000      0.0000
       196         0.0000     -0.1820     -0.0000      0.0331      0.0080
       197        -0.0000      0.0000      0.0000      0.0000      0.0000
       198        -0.0000     -0.0000     -0.0000      0.0000      0.0000
       199        -0.0000     -0.2314      0.0000      0.0535      0.0128
       200        -0.0000      0.0000     -0.0000      0.0000      0.0000
       201        -0.0000     -0.0000     -0.0000      0.0000      0.0000
       202         0.0000     -0.0000      0.2026      0.0410      0.0096
       203        -0.0000      0.0000      0.0000      0.0000      0.0000
       204        -0.3634      0.0000     -0.0000      0.1320      0.0304
       205         0.0000      0.0000     -0.0000      0.0000      0.0000
       206        -0.0000      0.0000      0.1602      0.0257      0.0059
       207        -0.0000      0.0000      0.0000      0.0000      0.0000
       208         0.0000     -0.0000     -0.0000      0.0000      0.0000
       209        -0.0000      0.0000      0.0000      0.0000      0.0000
       210         0.2517      0.0000      0.0000      0.0633      0.0141
       211        -0.0000      0.0000     -0.0000      0.0000      0.0000
       212        -0.0000     -0.0000     -0.0000      0.0000      0.0000
       213        -0.0000     -0.0000     -0.0000      0.0000      0.0000
       214         0.0000     -0.0000     -0.0000      0.0000      0.0000
       215        -0.0000     -0.0000      0.3003      0.0902      0.0195
       216        -0.0000      0.1956      0.0000      0.0382      0.0082
       217         0.0000     -0.1543      0.0000      0.0238      0.0051
       218         0.0000      0.4658      0.0000      0.2170      0.0461
       219         0.0000     -0.0000      0.0000      0.0000      0.0000
       220         0.0000     -0.0000      0.0824      0.0068      0.0014
       221        -0.0000     -0.0000      0.0000      0.0000      0.0000
       222         0.0000     -0.0000     -0.0000      0.0000      0.0000
       223        -0.0000      0.0000     -0.3367      0.1133      0.0234
       224         0.0000     -0.0000      0.0000      0.0000      0.0000
       225        -0.0000      0.0000      0.0000      0.0000      0.0000
       226        -0.0000     -0.0000     -0.0000      0.0000      0.0000
       227         0.0000      0.2515      0.0000      0.0633      0.0126
       228         0.0000      0.0000     -0.0000      0.0000      0.0000
       229         0.0000      0.0000     -0.1733      0.0300      0.0059
       230         0.0000     -0.0000     -0.0000      0.0000      0.0000
       231         0.0000     -0.5317      0.0000      0.2827      0.0540
       232        -0.0000     -0.0000      0.0000      0.0000      0.0000
       233         0.0000      0.0000      0.1399      0.0196      0.0037
       234         0.0000     -0.0000      0.0000      0.0000      0.0000
       235         0.0000      0.0000      0.0000      0.0000      0.0000
       236         0.0000     -0.0000      0.0000      0.0000      0.0000
       237        -0.0000     -0.0000      0.2478      0.0614      0.0110
       238         0.0000     -0.0000     -0.3056      0.0934      0.0166
       239        -0.0000     -0.0039      0.0000      0.0000      0.0000
       240         0.0000      0.0000     -0.0000      0.0000      0.0000
 Ground to excited state transition magnetic dipole moments (Au):
       state          X           Y           Z
         1        -0.0000     -0.0000      0.0000
         2         0.0000      0.0000     -1.4191
         3        -0.0000     -0.0000     -0.0000
         4         0.0000     -0.0000     -0.0833
         5        -0.0000      1.7822     -0.0000
         6         0.0000      0.3947      0.0000
         7         1.6559      0.0000      0.0000
         8        -0.0000     -0.0000     -0.0000
         9         0.0000     -0.0000      0.0000
        10         0.0000     -0.0000      0.0000
        11         0.0000     -0.0000     -0.0000
        12         0.0000     -0.0000      0.0000
        13         0.0000      0.0000      0.0000
        14         0.0000     -0.0000     -0.0000
        15        -0.0000      0.0000      0.0000
        16         0.0000      0.0000      0.0000
        17         0.0000      0.4930      0.0000
        18        -0.0000     -0.0000      0.0000
        19         0.0000      0.0000     -0.0000
        20         0.1580     -0.0000      0.0000
        21         0.2895     -0.0000      0.0000
        22        -0.0000     -0.0000      0.0000
        23        -0.0000      0.0000     -0.0000
        24        -0.0000     -0.0000      0.0000
        25        -0.0000      0.0000     -0.2643
        26        -0.0000     -0.0000      0.0000
        27        -0.0928      0.0000      0.0000
        28        -0.0000      0.0000     -0.0000
        29        -0.0000     -0.0000     -0.0000
        30         1.5395     -0.0000     -0.0000
        31         0.0000      0.0000      0.0000
        32        -0.0000      0.2763     -0.0000
        33         0.0000      0.0000      0.0000
        34         0.0000     -0.0000      0.0000
        35        -1.3200      0.0000     -0.0000
        36         1.0658     -0.0000     -0.0000
        37        -0.0000      0.0000      0.0000
        38         0.0000      0.5952     -0.0000
        39        -0.0000     -0.0000     -0.0000
        40        -0.0000     -0.0000      0.0000
        41         0.0000      0.0000      0.0000
        42         0.0000      0.0000      0.0000
        43         0.0000      0.0000     -0.0000
        44         0.0000     -0.0000     -0.0000
        45         0.0000      0.0000      0.0000
        46        -0.0000      0.0000     -0.0000
        47        -0.0000     -0.0000     -0.0000
        48        -0.0000     -0.0000     -0.2073
        49        -0.0000      0.0000     -0.0000
        50         0.0000     -0.0000     -0.0000
        51        -0.0000      0.0000     -0.0000
        52         0.0000      0.0000     -0.0792
        53         0.0000      0.0000      0.0000
        54         0.0000     -0.0000      0.0000
        55        -0.0000      0.0000     -0.0000
        56         0.0000      0.2881      0.0000
        57        -0.0000     -0.0000     -0.0000
        58        -0.0000      0.0000     -0.0046
        59        -0.0000      0.0000      0.0000
        60        -0.0000      0.2226      0.0000
        61        -0.0524      0.0000     -0.0000
        62         0.0000      0.0000      0.0000
        63        -0.9618      0.0000      0.0000
        64         0.3277      0.0000      0.0000
        65         0.0000      0.0000      0.0000
        66         0.0000      0.0000      0.0000
        67        -0.0000     -0.0000      0.0000
        68         0.0000      0.0000     -0.0000
        69        -0.0000     -0.2909     -0.0000
        70        -0.5401      0.0000     -0.0000
        71         0.0000     -0.0000     -0.0000
        72         0.0000     -0.5618      0.0000
        73         0.0000      0.0000     -0.0000
        74        -0.0000     -0.0000     -0.0000
        75         0.0000      0.0000     -0.0000
        76        -0.0000     -0.0000     -0.0000
        77        -0.3007      0.0000      0.0000
        78        -0.0000      0.0000      0.0000
        79         0.0000      0.0000      0.0000
        80        -0.4485      0.0000      0.0000
        81        -0.0000     -0.0000     -0.0000
        82        -0.0000      0.0000      0.0000
        83         0.0000     -0.0000      0.0000
        84         0.0000     -0.0000     -0.0000
        85        -0.0000     -0.0000     -0.0000
        86         0.0000     -0.0000      0.0000
        87        -0.0000      0.0000      0.0000
        88        -0.0000     -0.0000      0.0000
        89        -0.0000      0.0000      0.0000
        90        -0.8323      0.0000     -0.0000
        91         0.2515     -0.0000     -0.0000
        92         0.0000     -0.0000     -0.0000
        93        -0.0000     -0.0000      0.0000
        94        -0.0000     -0.0000     -0.0000
        95        -0.0000     -0.0000      0.0000
        96         0.0000      0.6703     -0.0000
        97        -0.0000     -0.0000     -0.0000
        98         0.0000      0.0000     -0.0000
        99        -0.0000      0.0000      0.0000
       100        -0.0000      0.0000     -0.0000
       101         0.0000     -0.0000     -0.0000
       102        -0.6293      0.0000      0.0000
       103         0.0000      0.0000     -0.0000
       104        -0.0000      0.0000      0.0000
       105        -0.3714      0.0000      0.0000
       106        -0.5856     -0.0000     -0.0000
       107         0.0000     -0.0000      0.0000
       108        -0.0000      1.9336      0.0000
       109        -0.0000     -0.0000      0.0000
       110        -0.0000      0.0000     -0.6263
       111         0.0000      0.0000     -0.0000
       112        -0.0000      0.0000      0.0000
       113         0.0000     -0.0000      0.0000
       114         0.0000      0.0000     -0.0000
       115        -0.0000     -0.0000     -0.0000
       116         0.0000     -0.0000      0.0000
       117        -0.0000      1.2836      0.0000
       118         0.0000      0.0000     -0.5500
       119         0.0000     -0.0000      0.0000
       120        -0.0000     -0.0000      0.0000
       121        -0.4423     -0.0000      0.0000
       122        -0.0000     -0.0000     -0.6895
[...]
     15   0.000000D+00  0.000000D+00  0.000000D+00 -0.109719D+01  0.000000D+00
     16   0.000000D+00  0.000000D+00  0.000000D+00  0.000000D+00  0.000000D+00
               171           172           173           174           175 
      1  -0.761199D+02 -0.760904D+02 -0.760864D+02 -0.760565D+02 -0.760487D+02
      2   0.000000D+00  0.000000D+00  0.000000D+00  0.000000D+00  0.000000D+00
      3   0.000000D+00  0.000000D+00  0.000000D+00  0.000000D+00  0.000000D+00
      4   0.000000D+00  0.000000D+00  0.000000D+00  0.000000D+00  0.000000D+00
      5   0.000000D+00  0.000000D+00  0.000000D+00  0.000000D+00  0.000000D+00
      6   0.000000D+00  0.000000D+00  0.000000D+00  0.000000D+00  0.000000D+00
      7   0.000000D+00  0.000000D+00  0.000000D+00  0.000000D+00  0.000000D+00
      8   0.000000D+00  0.000000D+00  0.000000D+00  0.000000D+00  0.000000D+00
      9  -0.464164D+00 -0.450173D+00  0.000000D+00  0.000000D+00 -0.194570D-01
     10   0.000000D+00  0.000000D+00  0.263006D+00  0.000000D+00  0.000000D+00
     11   0.000000D+00  0.000000D+00  0.000000D+00  0.000000D+00  0.000000D+00
     12   0.000000D+00  0.000000D+00  0.000000D+00  0.000000D+00  0.000000D+00
     13   0.000000D+00  0.000000D+00  0.000000D+00  0.000000D+00  0.000000D+00
     14   0.000000D+00  0.000000D+00 -0.100641D+01  0.000000D+00  0.000000D+00
     15  -0.361924D+00 -0.391852D+00  0.000000D+00  0.000000D+00  0.102627D+00
     16   0.000000D+00  0.000000D+00  0.000000D+00  0.000000D+00  0.000000D+00
               176           177           178           179           180 
      1  -0.760390D+02 -0.760372D+02 -0.760173D+02 -0.760152D+02 -0.759834D+02
      2   0.000000D+00  0.000000D+00 -0.163408D+00  0.000000D+00  0.000000D+00
      3   0.000000D+00  0.409343D-01  0.000000D+00 -0.120845D+00  0.000000D+00
      4  -0.134501D+00  0.000000D+00  0.000000D+00  0.000000D+00  0.000000D+00
      5   0.000000D+00  0.000000D+00  0.357809D+00  0.000000D+00  0.000000D+00
      6   0.000000D+00 -0.324202D-01  0.000000D+00  0.260076D+00  0.000000D+00
      7   0.272463D+00  0.000000D+00  0.000000D+00  0.000000D+00  0.000000D+00
      8   0.000000D+00  0.000000D+00  0.000000D+00  0.000000D+00  0.000000D+00
      9   0.000000D+00  0.000000D+00  0.000000D+00  0.000000D+00  0.000000D+00
     10   0.000000D+00  0.000000D+00  0.000000D+00  0.000000D+00  0.000000D+00
     11   0.000000D+00  0.000000D+00  0.000000D+00  0.000000D+00  0.491717D+00
     12   0.000000D+00  0.000000D+00  0.000000D+00  0.000000D+00  0.114584D+00
     13   0.000000D+00  0.000000D+00  0.000000D+00  0.000000D+00 -0.353560D-01
     14   0.000000D+00  0.000000D+00  0.000000D+00  0.000000D+00  0.000000D+00
     15   0.000000D+00  0.000000D+00  0.000000D+00  0.000000D+00  0.000000D+00
     16   0.000000D+00  0.000000D+00  0.000000D+00  0.000000D+00  0.000000D+00
               181           182           183           184           185 
      1  -0.759731D+02 -0.759599D+02 -0.759333D+02 -0.759248D+02 -0.759199D+02
      2   0.000000D+00  0.000000D+00  0.000000D+00  0.000000D+00  0.107263D+00
      3   0.000000D+00  0.000000D+00  0.000000D+00  0.000000D+00  0.000000D+00
      4  -0.504168D-01  0.000000D+00  0.000000D+00  0.000000D+00  0.000000D+00
      5   0.000000D+00  0.000000D+00  0.000000D+00  0.000000D+00 -0.210818D+00
      6   0.000000D+00  0.000000D+00  0.000000D+00  0.000000D+00  0.000000D+00
      7   0.102528D+00  0.000000D+00  0.000000D+00  0.000000D+00  0.000000D+00
      8   0.000000D+00  0.000000D+00  0.539081D+00  0.000000D+00  0.000000D+00
      9   0.000000D+00  0.000000D+00  0.000000D+00  0.000000D+00  0.000000D+00
     10   0.000000D+00  0.000000D+00  0.000000D+00  0.000000D+00  0.000000D+00
     11   0.000000D+00 -0.491882D-01  0.000000D+00  0.000000D+00  0.000000D+00
     12   0.000000D+00  0.520767D+00  0.000000D+00  0.000000D+00  0.000000D+00
     13   0.000000D+00  0.519168D+00  0.000000D+00  0.000000D+00  0.000000D+00
     14   0.000000D+00  0.000000D+00  0.000000D+00  0.000000D+00  0.000000D+00
     15   0.000000D+00  0.000000D+00  0.000000D+00  0.000000D+00  0.000000D+00
     16   0.000000D+00  0.000000D+00 -0.236081D+00  0.000000D+00  0.000000D+00
               186           187           188           189           190 
      1  -0.759166D+02 -0.758895D+02 -0.758709D+02 -0.758497D+02 -0.758254D+02
      2   0.000000D+00  0.000000D+00  0.200282D+00  0.000000D+00  0.000000D+00
      3   0.000000D+00  0.000000D+00  0.000000D+00  0.000000D+00  0.000000D+00
      4   0.000000D+00  0.000000D+00  0.000000D+00 -0.889725D-01  0.000000D+00
      5   0.000000D+00  0.000000D+00 -0.382816D+00  0.000000D+00  0.000000D+00
      6   0.000000D+00  0.000000D+00  0.000000D+00  0.000000D+00  0.000000D+00
      7   0.000000D+00  0.000000D+00  0.000000D+00  0.161205D+00  0.000000D+00
      8  -0.904650D-01 -0.499406D+00  0.000000D+00  0.000000D+00 -0.107509D+00
      9   0.000000D+00  0.000000D+00  0.000000D+00  0.000000D+00  0.000000D+00
     10   0.000000D+00  0.000000D+00  0.000000D+00  0.000000D+00  0.000000D+00
     11   0.000000D+00  0.000000D+00  0.000000D+00  0.000000D+00  0.000000D+00
     12   0.000000D+00  0.000000D+00  0.000000D+00  0.000000D+00  0.000000D+00
     13   0.000000D+00  0.000000D+00  0.000000D+00  0.000000D+00  0.000000D+00
     14   0.000000D+00  0.000000D+00  0.000000D+00  0.000000D+00  0.000000D+00
     15   0.000000D+00  0.000000D+00  0.000000D+00  0.000000D+00  0.000000D+00
     16   0.328841D+00 -0.364858D-01  0.000000D+00  0.000000D+00 -0.359372D+00
               191           192           193           194           195 
      1  -0.758161D+02 -0.758161D+02 -0.758111D+02 -0.757712D+02 -0.757419D+02
      2   0.000000D+00 -0.103603D+00  0.000000D+00  0.000000D+00  0.000000D+00
      3   0.000000D+00  0.000000D+00  0.000000D+00  0.000000D+00  0.000000D+00
      4   0.000000D+00  0.000000D+00 -0.206394D+00  0.000000D+00  0.000000D+00
      5   0.000000D+00  0.331924D+00  0.000000D+00  0.000000D+00  0.000000D+00
      6   0.000000D+00  0.000000D+00  0.000000D+00  0.000000D+00  0.000000D+00
      7   0.000000D+00  0.000000D+00  0.505775D+00  0.000000D+00  0.000000D+00
      8   0.000000D+00  0.000000D+00  0.000000D+00  0.000000D+00  0.000000D+00
      9   0.000000D+00  0.000000D+00  0.000000D+00  0.000000D+00  0.000000D+00
     10   0.000000D+00  0.000000D+00  0.000000D+00  0.000000D+00  0.171151D+00
     11  -0.193976D+00  0.000000D+00  0.000000D+00  0.000000D+00  0.000000D+00
     12  -0.825304D+00  0.000000D+00  0.000000D+00  0.000000D+00  0.000000D+00
     13   0.948154D+00  0.000000D+00  0.000000D+00  0.000000D+00  0.000000D+00
     14   0.000000D+00  0.000000D+00  0.000000D+00  0.000000D+00 -0.419007D+00
     15   0.000000D+00  0.000000D+00  0.000000D+00  0.000000D+00  0.000000D+00
     16   0.000000D+00  0.000000D+00  0.000000D+00  0.000000D+00  0.000000D+00
               196           197           198           199           200 
      1  -0.757398D+02 -0.757388D+02 -0.757299D+02 -0.757118D+02 -0.757111D+02
      2   0.000000D+00  0.000000D+00  0.000000D+00  0.000000D+00  0.000000D+00
      3   0.796616D-01  0.000000D+00  0.000000D+00  0.551921D-01  0.000000D+00
      4   0.000000D+00  0.000000D+00  0.000000D+00  0.000000D+00  0.000000D+00
      5   0.000000D+00  0.000000D+00  0.000000D+00  0.000000D+00  0.000000D+00
      6  -0.182004D+00  0.000000D+00  0.000000D+00 -0.231396D+00  0.000000D+00
      7   0.000000D+00  0.000000D+00  0.000000D+00  0.000000D+00  0.000000D+00
      8   0.000000D+00  0.000000D+00  0.000000D+00  0.000000D+00  0.000000D+00
      9   0.000000D+00  0.000000D+00  0.000000D+00  0.000000D+00  0.473646D-01
     10   0.000000D+00  0.000000D+00 -0.325027D-01  0.000000D+00  0.000000D+00
     11   0.000000D+00  0.150636D+00  0.000000D+00  0.000000D+00  0.000000D+00
     12   0.000000D+00  0.280760D+00  0.000000D+00  0.000000D+00  0.000000D+00
     13   0.000000D+00  0.106184D+01  0.000000D+00  0.000000D+00  0.000000D+00
     14   0.000000D+00  0.000000D+00  0.603485D+00  0.000000D+00  0.000000D+00
     15   0.000000D+00  0.000000D+00  0.000000D+00  0.000000D+00 -0.377429D+00
     16   0.000000D+00  0.000000D+00  0.000000D+00  0.000000D+00  0.000000D+00
               201           202           203           204           205 
      1  -0.756597D+02 -0.756402D+02 -0.756243D+02 -0.756064D+02 -0.755978D+02
      2   0.000000D+00  0.000000D+00  0.000000D+00  0.146569D+00  0.000000D+00
      3   0.000000D+00  0.000000D+00  0.000000D+00  0.000000D+00  0.000000D+00
      4   0.000000D+00 -0.940323D-01  0.000000D+00  0.000000D+00  0.000000D+00
      5   0.000000D+00  0.000000D+00  0.000000D+00 -0.363354D+00  0.000000D+00
      6   0.000000D+00  0.000000D+00  0.000000D+00  0.000000D+00  0.000000D+00
      7   0.000000D+00  0.202580D+00  0.000000D+00  0.000000D+00  0.000000D+00
      8   0.000000D+00  0.000000D+00  0.000000D+00  0.000000D+00  0.000000D+00
      9   0.628182D+00  0.000000D+00  0.000000D+00  0.000000D+00  0.000000D+00
     10   0.000000D+00  0.000000D+00  0.000000D+00  0.000000D+00  0.119390D+00
     11   0.000000D+00  0.000000D+00  0.000000D+00  0.000000D+00  0.000000D+00
     12   0.000000D+00  0.000000D+00  0.000000D+00  0.000000D+00  0.000000D+00
     13   0.000000D+00  0.000000D+00  0.000000D+00  0.000000D+00  0.000000D+00
     14   0.000000D+00  0.000000D+00  0.000000D+00  0.000000D+00 -0.234639D+00
     15   0.111119D+01  0.000000D+00  0.000000D+00  0.000000D+00  0.000000D+00
     16   0.000000D+00  0.000000D+00  0.000000D+00  0.000000D+00  0.000000D+00
               206           207           208           209           210 
      1  -0.755976D+02 -0.755649D+02 -0.755230D+02 -0.755128D+02 -0.755019D+02
      2   0.000000D+00  0.000000D+00  0.000000D+00  0.000000D+00 -0.103261D+00
      3   0.000000D+00  0.000000D+00  0.000000D+00  0.000000D+00  0.000000D+00
      4  -0.470015D-01  0.000000D+00  0.000000D+00  0.000000D+00  0.000000D+00
      5   0.000000D+00  0.000000D+00  0.000000D+00  0.000000D+00  0.251674D+00
      6   0.000000D+00  0.000000D+00  0.000000D+00  0.000000D+00  0.000000D+00
      7   0.160203D+00  0.000000D+00  0.000000D+00  0.000000D+00  0.000000D+00
      8   0.000000D+00  0.313562D+00 -0.260628D+00  0.000000D+00  0.000000D+00
      9   0.000000D+00  0.000000D+00  0.000000D+00  0.000000D+00  0.000000D+00
     10   0.000000D+00  0.000000D+00  0.000000D+00  0.311965D-01  0.000000D+00
     11   0.000000D+00  0.000000D+00  0.000000D+00  0.000000D+00  0.000000D+00
     12   0.000000D+00  0.000000D+00  0.000000D+00  0.000000D+00  0.000000D+00
     13   0.000000D+00  0.000000D+00  0.000000D+00  0.000000D+00  0.000000D+00
     14   0.000000D+00  0.000000D+00  0.000000D+00  0.291942D+00  0.000000D+00
     15   0.000000D+00  0.000000D+00  0.000000D+00  0.000000D+00  0.000000D+00
     16   0.000000D+00  0.699020D-01  0.552565D+00  0.000000D+00  0.000000D+00
               211           212           213           214           215 
      1  -0.754887D+02 -0.754527D+02 -0.754265D+02 -0.754190D+02 -0.754155D+02
      2   0.000000D+00  0.000000D+00  0.000000D+00  0.000000D+00  0.000000D+00
      3   0.000000D+00  0.000000D+00  0.000000D+00  0.000000D+00  0.000000D+00
      4   0.000000D+00  0.000000D+00  0.000000D+00  0.000000D+00 -0.977140D-01
      5   0.000000D+00  0.000000D+00  0.000000D+00  0.000000D+00  0.000000D+00
      6   0.000000D+00  0.000000D+00  0.000000D+00  0.000000D+00  0.000000D+00
      7   0.000000D+00  0.000000D+00  0.000000D+00  0.000000D+00  0.300337D+00
      8   0.000000D+00  0.000000D+00  0.000000D+00  0.000000D+00  0.000000D+00
      9  -0.640564D+00  0.000000D+00  0.000000D+00  0.000000D+00  0.000000D+00
     10   0.000000D+00  0.000000D+00  0.000000D+00  0.000000D+00  0.000000D+00
     11   0.000000D+00  0.175573D-01  0.000000D+00 -0.184163D+00  0.000000D+00
     12   0.000000D+00 -0.288233D+00  0.000000D+00  0.243221D+00  0.000000D+00
     13   0.000000D+00  0.199601D+00  0.000000D+00 -0.709529D+00  0.000000D+00
     14   0.000000D+00  0.000000D+00  0.000000D+00  0.000000D+00  0.000000D+00
     15  -0.857521D+00  0.000000D+00  0.000000D+00  0.000000D+00  0.000000D+00
     16   0.000000D+00  0.000000D+00  0.000000D+00  0.000000D+00  0.000000D+00
               216           217           218           219           220 
      1  -0.754104D+02 -0.753856D+02 -0.753602D+02 -0.753358D+02 -0.753236D+02
      2   0.000000D+00  0.000000D+00  0.000000D+00  0.000000D+00  0.000000D+00
      3  -0.942404D-01  0.346359D-01 -0.183708D+00  0.000000D+00  0.000000D+00
      4   0.000000D+00  0.000000D+00  0.000000D+00  0.000000D+00 -0.425872D-01
      5   0.000000D+00  0.000000D+00  0.000000D+00  0.000000D+00  0.000000D+00
      6   0.195554D+00 -0.154299D+00  0.465826D+00  0.000000D+00  0.000000D+00
      7   0.000000D+00  0.000000D+00  0.000000D+00  0.000000D+00  0.824218D-01
      8   0.000000D+00  0.000000D+00  0.000000D+00  0.000000D+00  0.000000D+00
      9   0.000000D+00  0.000000D+00  0.000000D+00 -0.928712D-01  0.000000D+00
     10   0.000000D+00  0.000000D+00  0.000000D+00  0.000000D+00  0.000000D+00
     11   0.000000D+00  0.000000D+00  0.000000D+00  0.000000D+00  0.000000D+00
     12   0.000000D+00  0.000000D+00  0.000000D+00  0.000000D+00  0.000000D+00
     13   0.000000D+00  0.000000D+00  0.000000D+00  0.000000D+00  0.000000D+00
     14   0.000000D+00  0.000000D+00  0.000000D+00  0.000000D+00  0.000000D+00
     15   0.000000D+00  0.000000D+00  0.000000D+00 -0.787048D-01  0.000000D+00
     16   0.000000D+00  0.000000D+00  0.000000D+00  0.000000D+00  0.000000D+00
               221           222           223           224           225 
      1  -0.752971D+02 -0.752812D+02 -0.752785D+02 -0.752477D+02 -0.751988D+02
      2   0.000000D+00  0.000000D+00  0.000000D+00  0.000000D+00  0.000000D+00
      3   0.000000D+00  0.000000D+00  0.000000D+00  0.000000D+00  0.000000D+00
      4   0.000000D+00  0.000000D+00  0.111124D+00  0.000000D+00  0.000000D+00
      5   0.000000D+00  0.000000D+00  0.000000D+00  0.000000D+00  0.000000D+00
      6   0.000000D+00  0.000000D+00  0.000000D+00  0.000000D+00  0.000000D+00
      7   0.000000D+00  0.000000D+00 -0.336655D+00  0.000000D+00  0.000000D+00
      8   0.000000D+00  0.143207D-01  0.000000D+00  0.000000D+00  0.166505D+00
      9   0.000000D+00  0.000000D+00  0.000000D+00 -0.379224D+00  0.000000D+00
     10   0.000000D+00  0.000000D+00  0.000000D+00  0.000000D+00  0.000000D+00
     11   0.158697D+00  0.000000D+00  0.000000D+00  0.000000D+00  0.000000D+00
     12   0.181457D+00  0.000000D+00  0.000000D+00  0.000000D+00  0.000000D+00
     13   0.574893D+00  0.000000D+00  0.000000D+00  0.000000D+00  0.000000D+00
     14   0.000000D+00  0.000000D+00  0.000000D+00  0.000000D+00  0.000000D+00
     15   0.000000D+00  0.000000D+00  0.000000D+00 -0.297160D+00  0.000000D+00
     16   0.000000D+00 -0.311885D+00  0.000000D+00  0.000000D+00  0.395201D-01
               226           227           228           229           230 
      1  -0.751627D+02 -0.751497D+02 -0.751112D+02 -0.750862D+02 -0.750355D+02
      2   0.000000D+00  0.000000D+00  0.000000D+00  0.000000D+00  0.000000D+00
      3   0.000000D+00 -0.721233D-01  0.000000D+00  0.000000D+00  0.000000D+00
      4   0.000000D+00  0.000000D+00  0.000000D+00  0.428405D-01  0.000000D+00
      5   0.000000D+00  0.000000D+00  0.000000D+00  0.000000D+00  0.000000D+00
      6   0.000000D+00  0.251507D+00  0.000000D+00  0.000000D+00  0.000000D+00
      7   0.000000D+00  0.000000D+00  0.000000D+00 -0.173263D+00  0.000000D+00
      8   0.000000D+00  0.000000D+00  0.000000D+00  0.000000D+00 -0.241160D+00
      9   0.000000D+00  0.000000D+00  0.000000D+00  0.000000D+00  0.000000D+00
     10   0.000000D+00  0.000000D+00  0.000000D+00  0.000000D+00  0.000000D+00
     11  -0.391904D+00  0.000000D+00 -0.216161D+00  0.000000D+00  0.000000D+00
     12   0.264205D+00  0.000000D+00  0.219115D+00  0.000000D+00  0.000000D+00
     13   0.772791D+00  0.000000D+00 -0.678841D+00  0.000000D+00  0.000000D+00
     14   0.000000D+00  0.000000D+00  0.000000D+00  0.000000D+00  0.000000D+00
     15   0.000000D+00  0.000000D+00  0.000000D+00  0.000000D+00  0.000000D+00
     16   0.000000D+00  0.000000D+00  0.000000D+00  0.000000D+00  0.533488D+00
               231           232           233           234           235 
      1  -0.750128D+02 -0.749837D+02 -0.749819D+02 -0.749202D+02 -0.748773D+02
      2   0.000000D+00  0.000000D+00  0.000000D+00  0.000000D+00  0.000000D+00
      3   0.187264D+00  0.000000D+00  0.000000D+00  0.000000D+00  0.000000D+00
      4   0.000000D+00  0.000000D+00 -0.515066D-01  0.000000D+00  0.000000D+00
      5   0.000000D+00  0.000000D+00  0.000000D+00  0.000000D+00  0.000000D+00
      6  -0.531716D+00  0.000000D+00  0.000000D+00  0.000000D+00  0.000000D+00
      7   0.000000D+00  0.000000D+00  0.139899D+00  0.000000D+00  0.000000D+00
      8   0.000000D+00  0.000000D+00  0.000000D+00  0.000000D+00  0.000000D+00
      9   0.000000D+00  0.000000D+00  0.000000D+00  0.000000D+00  0.000000D+00
     10   0.000000D+00  0.000000D+00  0.000000D+00  0.000000D+00  0.000000D+00
     11   0.000000D+00  0.000000D+00  0.000000D+00 -0.813288D-01  0.796412D-01
     12   0.000000D+00  0.000000D+00  0.000000D+00 -0.537925D-01  0.140278D+00
     13   0.000000D+00  0.000000D+00  0.000000D+00 -0.675912D+00  0.576708D+00
     14   0.000000D+00  0.000000D+00  0.000000D+00  0.000000D+00  0.000000D+00
     15   0.000000D+00  0.000000D+00  0.000000D+00  0.000000D+00  0.000000D+00
     16   0.000000D+00  0.000000D+00  0.000000D+00  0.000000D+00  0.000000D+00
               236           237           238           239           240 
      1  -0.748255D+02 -0.747676D+02 -0.747524D+02 -0.746598D+02 -0.744887D+02
      2   0.000000D+00  0.000000D+00  0.000000D+00  0.000000D+00  0.000000D+00
      3   0.000000D+00  0.000000D+00  0.000000D+00  0.460210D-02  0.000000D+00
      4   0.000000D+00 -0.585709D-01  0.979536D-01  0.000000D+00  0.000000D+00
      5   0.000000D+00  0.000000D+00  0.000000D+00  0.000000D+00  0.000000D+00
      6   0.000000D+00  0.000000D+00  0.000000D+00 -0.387917D-02  0.000000D+00
      7   0.000000D+00  0.247765D+00 -0.305589D+00  0.000000D+00  0.000000D+00
      8  -0.653770D+00  0.000000D+00  0.000000D+00  0.000000D+00  0.375636D+00
      9   0.000000D+00  0.000000D+00  0.000000D+00  0.000000D+00  0.000000D+00
     10   0.000000D+00  0.000000D+00  0.000000D+00  0.000000D+00  0.000000D+00
     11   0.000000D+00  0.000000D+00  0.000000D+00  0.000000D+00  0.000000D+00
     12   0.000000D+00  0.000000D+00  0.000000D+00  0.000000D+00  0.000000D+00
     13   0.000000D+00  0.000000D+00  0.000000D+00  0.000000D+00  0.000000D+00
     14   0.000000D+00  0.000000D+00  0.000000D+00  0.000000D+00  0.000000D+00
     15   0.000000D+00  0.000000D+00  0.000000D+00  0.000000D+00  0.000000D+00
     16   0.781033D+00  0.000000D+00  0.000000D+00  0.000000D+00 -0.429055D+00
 Unable to Open any file for archive entry.
 1\1\GINC-HEL11\SP\RwB97XD TD-FC\def2SVP\C2H4\PRAKRITI\14-Aug-2021\0\\#
 P TD(Nstates=10000) wB97XD/def2SVP SCF(maxcycles=100) Int(Grid=ultrafi
 ne)\\xGDB7_00001_tier4.com\\0,1\C,0,0.,0.,0.664999\C,0,0.,0.,-0.664999
 \H,0,0.,0.931103,1.239041\H,0,0.,-0.931103,1.239041\H,0,0.,0.931103,-1
 .239041\H,0,0.,-0.931103,-1.239041\\Version=EM64L-G16RevC.01\State=1-A
 G\HF=-78.5010668\RMSD=1.950e-09\PG=D02H [C2"(C1.C1),SG(H4)]\\@
 The archive entry for this job was punched.


 WE ARE PERHAPS NOT FAR REMOVED FROM THE TIME WHEN WE SHALL BE ABLE TO SUBMIT
 THE BULK OF CHEMICAL PHENOMENA TO CALCULATION.

            -- JOSEPH LOUIS GAY-LUSSAC
               MEMOIRES DE LA SOCIETE D'ARCUEIL, 2, 207 (1808)
 Job cpu time:       0 days  0 hours  0 minutes 24.2 seconds.
 Elapsed time:       0 days  0 hours  0 minutes  3.3 seconds.
 File lengths (MBytes):  RWF=     76 Int=      0 D2E=      0 Chk=     15 Scr=      1
 Normal termination of Gaussian 16 at Sat Aug 14 23:27:23 2021.
