 Entering Gaussian System, Link 0=g16
 Input=xGDB7_000019_TDDFT.com
 Output=xGDB7_000019_TDDFT.log
 Initial command:
 /home/prakriti/g16/l1.exe "/scratch/prakriti/PBS_7434529.helios/Gau-194210.inp" -scrdir="/scratch/prakriti/PBS_7434529.helios/"
 Entering Link 1 = /home/prakriti/g16/l1.exe PID=    194211.
  
 Copyright (c) 1988-2019, Gaussian, Inc.  All Rights Reserved.
  
 This is part of the Gaussian(R) 16 program.  It is based on
 the Gaussian(R) 09 system (copyright 2009, Gaussian, Inc.),
 the Gaussian(R) 03 system (copyright 2003, Gaussian, Inc.),
 the Gaussian(R) 98 system (copyright 1998, Gaussian, Inc.),
 the Gaussian(R) 94 system (copyright 1995, Gaussian, Inc.),
 the Gaussian 92(TM) system (copyright 1992, Gaussian, Inc.),
 the Gaussian 90(TM) system (copyright 1990, Gaussian, Inc.),
 the Gaussian 88(TM) system (copyright 1988, Gaussian, Inc.),
 the Gaussian 86(TM) system (copyright 1986, Carnegie Mellon
 University), and the Gaussian 82(TM) system (copyright 1983,
 Carnegie Mellon University). Gaussian is a federally registered
 trademark of Gaussian, Inc.
  
 This software contains proprietary and confidential information,
 including trade secrets, belonging to Gaussian, Inc.
  
 This software is provided under written license and may be
 used, copied, transmitted, or stored only in accord with that
 written license.
  
 The following legend is applicable only to US Government
 contracts under FAR:
  
                    RESTRICTED RIGHTS LEGEND
  
 Use, reproduction and disclosure by the US Government is
 subject to restrictions as set forth in subparagraphs (a)
 and (c) of the Commercial Computer Software - Restricted
 Rights clause in FAR 52.227-19.
  
 Gaussian, Inc.
 340 Quinnipiac St., Bldg. 40, Wallingford CT 06492
  
  
 ---------------------------------------------------------------
 Warning -- This program may not be used in any manner that
 competes with the business of Gaussian, Inc. or will provide
 assistance to any competitor of Gaussian, Inc.  The licensee
 of this program is prohibited from giving any competitor of
 Gaussian, Inc. access to this program.  By using this program,
 the user acknowledges that Gaussian, Inc. is engaged in the
 business of creating and licensing software in the field of
 computational chemistry and represents and warrants to the
 licensee that it is not a competitor of Gaussian, Inc. and that
 it will not use this program in any manner prohibited above.
 ---------------------------------------------------------------
  

 Cite this work as:
 Gaussian 16, Revision C.01,
 M. J. Frisch, G. W. Trucks, H. B. Schlegel, G. E. Scuseria, 
 M. A. Robb, J. R. Cheeseman, G. Scalmani, V. Barone, 
 G. A. Petersson, H. Nakatsuji, X. Li, M. Caricato, A. V. Marenich, 
 J. Bloino, B. G. Janesko, R. Gomperts, B. Mennucci, H. P. Hratchian, 
 J. V. Ortiz, A. F. Izmaylov, J. L. Sonnenberg, D. Williams-Young, 
 F. Ding, F. Lipparini, F. Egidi, J. Goings, B. Peng, A. Petrone, 
 T. Henderson, D. Ranasinghe, V. G. Zakrzewski, J. Gao, N. Rega, 
 G. Zheng, W. Liang, M. Hada, M. Ehara, K. Toyota, R. Fukuda, 
 J. Hasegawa, M. Ishida, T. Nakajima, Y. Honda, O. Kitao, H. Nakai, 
 T. Vreven, K. Throssell, J. A. Montgomery, Jr., J. E. Peralta, 
 F. Ogliaro, M. J. Bearpark, J. J. Heyd, E. N. Brothers, K. N. Kudin, 
 V. N. Staroverov, T. A. Keith, R. Kobayashi, J. Normand, 
 K. Raghavachari, A. P. Rendell, J. C. Burant, S. S. Iyengar, 
 J. Tomasi, M. Cossi, J. M. Millam, M. Klene, C. Adamo, R. Cammi, 
 J. W. Ochterski, R. L. Martin, K. Morokuma, O. Farkas, 
 J. B. Foresman, and D. J. Fox, Gaussian, Inc., Wallingford CT, 2019.
 
 ******************************************
 Gaussian 16:  EM64L-G16RevC.01  3-Jul-2019
                14-Aug-2021 
 ******************************************
 %mem=8gb
 %nproc=8
 Will use up to    8 processors via shared memory.
 ----------------------------------------------------------------------
 #P TD(Nstates=10000) wB97XD/def2SVP SCF(maxcycles=100) Int(Grid=ultraf
 ine)
 ----------------------------------------------------------------------
 1/38=1,172=1/1;
 2/12=2,17=6,18=5,40=1/2;
 3/5=43,7=101,11=9,25=1,30=1,74=-58,75=-5/1,2,3,8;
 4//1;
 5/5=2,7=100,38=5/2;
 8/6=1,10=1,108=10000/1;
 9/41=10000,42=1,70=2/14;
 6/7=2,8=2,9=2,10=2/1;
 99/5=1,9=1/99;
 Leave Link    1 at Sat Aug 14 07:22:54 2021, MaxMem=  1073741824 cpu:               0.2 elap:               0.0
 (Enter /home/prakriti/g16/l101.exe)
 ---------------------
 xGDB7_00001_tier4.com
 ---------------------
 Symbolic Z-matrix:
 Charge =  0 Multiplicity = 1
 6                    -0.02605  -0.21714   1.20988 
 7                    -0.02605   0.57077   0. 
 6                    -0.02605  -0.21714  -1.20988 
 1                     0.01374   0.44062   2.09083 
 1                     0.81355  -0.94366   1.28615 
 1                    -0.96137  -0.79717   1.27799 
 1                     0.76307   1.21074   0. 
 1                    -0.96137  -0.79717  -1.27799 
 1                     0.81355  -0.94366  -1.28615 
 1                     0.01374   0.44062  -2.09083 
 
 ITRead=  0  0  0  0  0  0  0  0  0  0
 MicOpt= -1 -1 -1 -1 -1 -1 -1 -1 -1 -1
 NAtoms=     10 NQM=       10 NQMF=       0 NMMI=      0 NMMIF=      0
                NMic=       0 NMicF=      0.
                    Isotopes and Nuclear Properties:
 (Nuclear quadrupole moments (NQMom) in fm**2, nuclear magnetic moments (NMagM)
  in nuclear magnetons)

  Atom         1           2           3           4           5           6           7           8           9          10
 IAtWgt=          12          14          12           1           1           1           1           1           1           1
 AtmWgt=  12.0000000  14.0030740  12.0000000   1.0078250   1.0078250   1.0078250   1.0078250   1.0078250   1.0078250   1.0078250
 NucSpn=           0           2           0           1           1           1           1           1           1           1
 AtZEff=  -0.0000000  -0.0000000  -0.0000000  -0.0000000  -0.0000000  -0.0000000  -0.0000000  -0.0000000  -0.0000000  -0.0000000
 NQMom=    0.0000000   2.0440000   0.0000000   0.0000000   0.0000000   0.0000000   0.0000000   0.0000000   0.0000000   0.0000000
 NMagM=    0.0000000   0.4037610   0.0000000   2.7928460   2.7928460   2.7928460   2.7928460   2.7928460   2.7928460   2.7928460
 AtZNuc=   6.0000000   7.0000000   6.0000000   1.0000000   1.0000000   1.0000000   1.0000000   1.0000000   1.0000000   1.0000000
 Leave Link  101 at Sat Aug 14 07:22:54 2021, MaxMem=  1073741824 cpu:               0.6 elap:               0.1
 (Enter /home/prakriti/g16/l202.exe)
                          Input orientation:                          
 ---------------------------------------------------------------------
 Center     Atomic      Atomic             Coordinates (Angstroms)
 Number     Number       Type             X           Y           Z
 ---------------------------------------------------------------------
      1          6           0       -0.026047   -0.217143    1.209876
      2          7           0       -0.026047    0.570772    0.000000
      3          6           0       -0.026047   -0.217143   -1.209876
      4          1           0        0.013735    0.440621    2.090832
      5          1           0        0.813545   -0.943661    1.286149
      6          1           0       -0.961368   -0.797172    1.277991
      7          1           0        0.763067    1.210735    0.000000
      8          1           0       -0.961368   -0.797172   -1.277991
      9          1           0        0.813545   -0.943661   -1.286149
     10          1           0        0.013735    0.440621   -2.090832
 ---------------------------------------------------------------------
                    Distance matrix (angstroms):
                    1          2          3          4          5
     1  C    0.000000
     2  N    1.443818   0.000000
     3  C    2.419752   1.443818   0.000000
     4  H    1.100145   2.095257   3.365845   0.000000
     5  H    1.112906   2.156989   2.731828   1.789818   0.000000
     6  H    1.102678   2.092691   2.720430   1.773039   1.780967
     7  H    2.031092   1.015999   2.031092   2.350777   2.509611
     8  H    2.720430   2.092691   1.102678   3.719130   3.121953
     9  H    2.731828   2.156989   1.112906   3.736299   2.572298
    10  H    3.365845   2.095257   1.100145   4.181664   3.736299
                    6          7          8          9         10
     6  H    0.000000
     7  H    2.939154   0.000000
     8  H    2.555982   2.939154   0.000000
     9  H    3.121953   2.509611   1.780967   0.000000
    10  H    3.719130   2.350777   1.773039   1.789818   0.000000
 Stoichiometry    C2H7N
 Framework group  CS[SG(HN),X(C2H6)]
 Deg. of freedom    13
 Full point group                 CS      NOp   2
 Largest Abelian subgroup         CS      NOp   2
 Largest concise Abelian subgroup CS      NOp   2
                         Standard orientation:                         
 ---------------------------------------------------------------------
 Center     Atomic      Atomic             Coordinates (Angstroms)
 Number     Number       Type             X           Y           Z
 ---------------------------------------------------------------------
      1          6           0       -0.026047   -0.217143    1.209876
      2          7           0       -0.026047    0.570772   -0.000000
      3          6           0       -0.026047   -0.217143   -1.209876
      4          1           0        0.013735    0.440621    2.090832
      5          1           0        0.813545   -0.943661    1.286149
      6          1           0       -0.961368   -0.797172    1.277991
      7          1           0        0.763067    1.210735   -0.000000
      8          1           0       -0.961368   -0.797172   -1.277991
      9          1           0        0.813545   -0.943661   -1.286149
     10          1           0        0.013735    0.440621   -2.090832
 ---------------------------------------------------------------------
 Rotational constants (GHZ):          35.0947728           9.3138978           8.2473339
 Leave Link  202 at Sat Aug 14 07:22:54 2021, MaxMem=  1073741824 cpu:               0.1 elap:               0.0
 (Enter /home/prakriti/g16/l301.exe)
 Standard basis: def2SVP (5D, 7F)
 Ernie: Thresh=  0.10000D-02 Tol=  0.10000D-05 Strict=F.
 There are    45 symmetry adapted cartesian basis functions of A'  symmetry.
 There are    35 symmetry adapted cartesian basis functions of A"  symmetry.
 There are    43 symmetry adapted basis functions of A'  symmetry.
 There are    34 symmetry adapted basis functions of A"  symmetry.
    77 basis functions,   124 primitive gaussians,    80 cartesian basis functions
    13 alpha electrons       13 beta electrons
       nuclear repulsion energy        84.1857472767 Hartrees.
 IExCor= 4639 DFT=T Ex+Corr=wB97XD ExCW=0 ScaHFX=  1.000000
 ScaDFX=  1.000000  1.000000  1.000000  1.000000 ScalE2=  1.000000  1.000000
 IRadAn=      5 IRanWt=     -1 IRanGd=            0 ICorTp=0 IEmpDi=121
 HFx  wShort=  0.000000 wLong=  0.200000 cFull=  0.222036 cShort=  0.000000 cLong=  0.777964
 DFx  wShort=  0.000000 wLong=  0.200000 cFull=  0.000000 cShort=  0.000000 cLong=  1.000000
 NAtoms=   10 NActive=   10 NUniq=    6 SFac= 2.78D+00 NAtFMM=   60 NAOKFM=F Big=F
 Integral buffers will be    131072 words long.
 Raffenetti 1 integral format.
 Two-electron integral symmetry is turned on.
 R6Disp:  Grimme-D2 Dispersion energy=       -0.0031370442 Hartrees.
 Nuclear repulsion after empirical dispersion term =       84.1826102325 Hartrees.
 Leave Link  301 at Sat Aug 14 07:22:55 2021, MaxMem=  1073741824 cpu:               0.3 elap:               0.1
 (Enter /home/prakriti/g16/l302.exe)
 NPDir=0 NMtPBC=     1 NCelOv=     1 NCel=       1 NClECP=     1 NCelD=      1
         NCelK=      1 NCelE2=     1 NClLst=     1 CellRange=     0.0.
 One-electron integrals computed using PRISM.
 One-electron integral symmetry used in STVInt
   2 Symmetry operations used in ECPInt.
 ECPInt:  NShTT=     780 NPrTT=    2616 LenC2=     781 LenP2D=    2391.
 LDataN:  DoStor=T MaxTD1= 4 Len=   56
 NBasis=    77 RedAO= T EigKep=  7.38D-03  NBF=    43    34
 NBsUse=    77 1.00D-06 EigRej= -1.00D+00 NBFU=    43    34
 Precomputing XC quadrature grid using
 IXCGrd= 4 IRadAn=           5 IRanWt=          -1 IRanGd=           0 AccXCQ= 0.00D+00.
 Generated NRdTot=       0 NPtTot=           0 NUsed=           0 NTot=          32
 NSgBfM=    80    80    80    80    80 MxSgAt=    10 MxSgA2=    10.
 Leave Link  302 at Sat Aug 14 07:22:55 2021, MaxMem=  1073741824 cpu:               1.1 elap:               0.2
 (Enter /home/prakriti/g16/l303.exe)
 DipDrv:  MaxL=1.
 Leave Link  303 at Sat Aug 14 07:22:55 2021, MaxMem=  1073741824 cpu:               0.2 elap:               0.0
 (Enter /home/prakriti/g16/l308.exe)
 Leave Link  308 at Sat Aug 14 07:22:55 2021, MaxMem=  1073741824 cpu:               0.2 elap:               0.0
 (Enter /home/prakriti/g16/l401.exe)
 ExpMin= 1.22D-01 ExpMax= 1.71D+03 ExpMxC= 2.58D+02 IAcc=3 IRadAn=         5 AccDes= 0.00D+00
 Harris functional with IExCor= 4639 and IRadAn=       5 diagonalized for initial guess.
 HarFok:  IExCor= 4639 AccDes= 0.00D+00 IRadAn=         5 IDoV= 1 UseB2=F ITyADJ=14
 ICtDFT=  3500011 ScaDFX=  1.000000  1.000000  1.000000  1.000000
 FoFCou: FMM=F IPFlag=           0 FMFlag=      100000 FMFlg1=           0
         NFxFlg=           0 DoJE=T BraDBF=F KetDBF=T FulRan=T
         wScrn=  0.000000 ICntrl=       500 IOpCl=  0 I1Cent=   200000004 NGrid=           0
         NMat0=    1 NMatS0=      1 NMatT0=    0 NMatD0=    1 NMtDS0=    0 NMtDT0=    0
 Petite list used in FoFCou.
 Harris En= -128.586591024077    
 JPrj=0 DoOrth=F DoCkMO=F.
 Initial guess orbital symmetries:
       Occupied  (A') (A') (A") (A') (A") (A') (A') (A') (A") (A")
                 (A") (A') (A')
       Virtual   (A') (A') (A") (A') (A') (A") (A") (A') (A") (A')
                 (A") (A") (A') (A') (A') (A") (A') (A') (A") (A")
                 (A") (A') (A') (A') (A") (A') (A") (A') (A") (A')
                 (A") (A') (A') (A") (A") (A') (A") (A') (A') (A")
                 (A") (A') (A') (A') (A") (A") (A') (A") (A') (A")
                 (A') (A") (A') (A') (A") (A') (A") (A') (A") (A')
                 (A") (A') (A") (A')
 The electronic state of the initial guess is 1-A'.
 Leave Link  401 at Sat Aug 14 07:22:55 2021, MaxMem=  1073741824 cpu:               2.0 elap:               0.3
 (Enter /home/prakriti/g16/l502.exe)
 Keep R1 ints in memory in symmetry-blocked form, NReq=16513506.
 FoFCou: FMM=F IPFlag=           0 FMFlag=           0 FMFlg1=           0
         NFxFlg=           0 DoJE=F BraDBF=F KetDBF=F FulRan=T
         wScrn=  0.000000 ICntrl=       600 IOpCl=  0 I1Cent=           0 NGrid=           0
         NMat0=    1 NMatS0=   3003 NMatT0=    0 NMatD0=    1 NMtDS0=    0 NMtDT0=    0
 Petite list used in FoFCou.
 Closed shell SCF:
 Using DIIS extrapolation, IDIIS=  1040.
 NGot=  1073741824 LenX=  1071462659 LenY=  1071455818
 Requested convergence on RMS density matrix=1.00D-08 within 100 cycles.
 Requested convergence on MAX density matrix=1.00D-06.
 Requested convergence on             energy=1.00D-06.
 No special actions if energy rises.
 Integral accuracy reduced to 1.0D-05 until final iterations.

 Cycle   1  Pass 0  IDiag  1:
 E= -135.001427433846    
 DIIS: error= 3.96D-02 at cycle   1 NSaved=   1.
 NSaved= 1 IEnMin= 1 EnMin= -135.001427433846     IErMin= 1 ErrMin= 3.96D-02
 ErrMax= 3.96D-02  0.00D+00 EMaxC= 1.00D-01 BMatC= 5.71D-02 BMatP= 5.71D-02
 IDIUse=3 WtCom= 6.04D-01 WtEn= 3.96D-01
 Coeff-Com:  0.100D+01
 Coeff-En:   0.100D+01
 Coeff:      0.100D+01
 Gap=     0.448 Goal=   None    Shift=    0.000
 GapD=    0.448 DampG=2.000 DampE=0.500 DampFc=1.0000 IDamp=-1.
 RMSDP=2.56D-03 MaxDP=4.69D-02              OVMax= 3.98D-02

 Cycle   2  Pass 0  IDiag  1:
 E= -135.017242059147     Delta-E=       -0.015814625302 Rises=F Damp=F
 DIIS: error= 7.24D-03 at cycle   2 NSaved=   2.
 NSaved= 2 IEnMin= 2 EnMin= -135.017242059147     IErMin= 2 ErrMin= 7.24D-03
 ErrMax= 7.24D-03  0.00D+00 EMaxC= 1.00D-01 BMatC= 6.73D-03 BMatP= 5.71D-02
 IDIUse=3 WtCom= 9.28D-01 WtEn= 7.24D-02
 Coeff-Com:  0.170D+00 0.830D+00
 Coeff-En:   0.000D+00 0.100D+01
 Coeff:      0.158D+00 0.842D+00
 Gap=     0.425 Goal=   None    Shift=    0.000
 RMSDP=1.16D-03 MaxDP=2.46D-02 DE=-1.58D-02 OVMax= 2.48D-02

 Cycle   3  Pass 0  IDiag  1:
 E= -135.020785583620     Delta-E=       -0.003543524473 Rises=F Damp=F
 DIIS: error= 4.35D-03 at cycle   3 NSaved=   3.
 NSaved= 3 IEnMin= 3 EnMin= -135.020785583620     IErMin= 3 ErrMin= 4.35D-03
 ErrMax= 4.35D-03  0.00D+00 EMaxC= 1.00D-01 BMatC= 2.53D-03 BMatP= 6.73D-03
 IDIUse=3 WtCom= 9.56D-01 WtEn= 4.35D-02
 Coeff-Com: -0.208D-02 0.377D+00 0.625D+00
 Coeff-En:   0.000D+00 0.238D+00 0.762D+00
 Coeff:     -0.199D-02 0.371D+00 0.631D+00
 Gap=     0.437 Goal=   None    Shift=    0.000
 RMSDP=5.01D-04 MaxDP=1.27D-02 DE=-3.54D-03 OVMax= 1.07D-02

 Cycle   4  Pass 0  IDiag  1:
 E= -135.022872226125     Delta-E=       -0.002086642505 Rises=F Damp=F
 DIIS: error= 4.87D-04 at cycle   4 NSaved=   4.
 NSaved= 4 IEnMin= 4 EnMin= -135.022872226125     IErMin= 4 ErrMin= 4.87D-04
 ErrMax= 4.87D-04  0.00D+00 EMaxC= 1.00D-01 BMatC= 3.09D-05 BMatP= 2.53D-03
 IDIUse=3 WtCom= 9.95D-01 WtEn= 4.87D-03
 Coeff-Com: -0.109D-02 0.113D+00 0.223D+00 0.665D+00
 Coeff-En:   0.000D+00 0.000D+00 0.000D+00 0.100D+01
 Coeff:     -0.108D-02 0.113D+00 0.222D+00 0.667D+00
 Gap=     0.435 Goal=   None    Shift=    0.000
 RMSDP=6.64D-05 MaxDP=1.40D-03 DE=-2.09D-03 OVMax= 1.36D-03

 Cycle   5  Pass 0  IDiag  1:
 E= -135.022899668305     Delta-E=       -0.000027442180 Rises=F Damp=F
 DIIS: error= 1.20D-04 at cycle   5 NSaved=   5.
 NSaved= 5 IEnMin= 5 EnMin= -135.022899668305     IErMin= 5 ErrMin= 1.20D-04
 ErrMax= 1.20D-04  0.00D+00 EMaxC= 1.00D-01 BMatC= 1.48D-06 BMatP= 3.09D-05
 IDIUse=3 WtCom= 9.99D-01 WtEn= 1.20D-03
 Coeff-Com: -0.499D-03-0.103D-01-0.425D-02 0.149D+00 0.866D+00
 Coeff-En:   0.000D+00 0.000D+00 0.000D+00 0.000D+00 0.100D+01
 Coeff:     -0.499D-03-0.102D-01-0.424D-02 0.149D+00 0.866D+00
 Gap=     0.435 Goal=   None    Shift=    0.000
 RMSDP=2.88D-05 MaxDP=4.27D-04 DE=-2.74D-05 OVMax= 4.32D-04

 Cycle   6  Pass 0  IDiag  1:
 E= -135.022901403075     Delta-E=       -0.000001734769 Rises=F Damp=F
 DIIS: error= 2.43D-05 at cycle   6 NSaved=   6.
 NSaved= 6 IEnMin= 6 EnMin= -135.022901403075     IErMin= 6 ErrMin= 2.43D-05
 ErrMax= 2.43D-05  0.00D+00 EMaxC= 1.00D-01 BMatC= 6.14D-08 BMatP= 1.48D-06
 IDIUse=1 WtCom= 1.00D+00 WtEn= 0.00D+00
 Coeff-Com:  0.740D-04-0.108D-01-0.171D-01-0.229D-01 0.152D+00 0.899D+00
 Coeff:      0.740D-04-0.108D-01-0.171D-01-0.229D-01 0.152D+00 0.899D+00
 Gap=     0.435 Goal=   None    Shift=    0.000
 RMSDP=7.27D-06 MaxDP=7.68D-05 DE=-1.73D-06 OVMax= 1.27D-04

 Initial convergence to 1.0D-05 achieved.  Increase integral accuracy.
 Cycle   7  Pass 1  IDiag  1:
 E= -135.022893376515     Delta-E=        0.000008026560 Rises=F Damp=F
 DIIS: error= 3.02D-05 at cycle   1 NSaved=   1.
 NSaved= 1 IEnMin= 1 EnMin= -135.022893376515     IErMin= 1 ErrMin= 3.02D-05
 ErrMax= 3.02D-05  0.00D+00 EMaxC= 1.00D-01 BMatC= 5.19D-08 BMatP= 5.19D-08
 IDIUse=1 WtCom= 1.00D+00 WtEn= 0.00D+00
 Coeff-Com:  0.100D+01
 Coeff:      0.100D+01
 Gap=     0.435 Goal=   None    Shift=    0.000
 RMSDP=7.27D-06 MaxDP=7.68D-05 DE= 8.03D-06 OVMax= 5.73D-05

 Cycle   8  Pass 1  IDiag  1:
 E= -135.022893430112     Delta-E=       -0.000000053597 Rises=F Damp=F
 DIIS: error= 4.49D-06 at cycle   2 NSaved=   2.
 NSaved= 2 IEnMin= 2 EnMin= -135.022893430112     IErMin= 2 ErrMin= 4.49D-06
 ErrMax= 4.49D-06  0.00D+00 EMaxC= 1.00D-01 BMatC= 1.37D-09 BMatP= 5.19D-08
 IDIUse=1 WtCom= 1.00D+00 WtEn= 0.00D+00
 Coeff-Com: -0.595D-01 0.106D+01
 Coeff:     -0.595D-01 0.106D+01
 Gap=     0.435 Goal=   None    Shift=    0.000
 RMSDP=8.51D-07 MaxDP=7.34D-06 DE=-5.36D-08 OVMax= 1.27D-05

 Cycle   9  Pass 1  IDiag  1:
 E= -135.022893431918     Delta-E=       -0.000000001806 Rises=F Damp=F
 DIIS: error= 1.26D-06 at cycle   3 NSaved=   3.
 NSaved= 3 IEnMin= 3 EnMin= -135.022893431918     IErMin= 3 ErrMin= 1.26D-06
 ErrMax= 1.26D-06  0.00D+00 EMaxC= 1.00D-01 BMatC= 1.85D-10 BMatP= 1.37D-09
 IDIUse=1 WtCom= 1.00D+00 WtEn= 0.00D+00
 Coeff-Com: -0.362D-01 0.249D+00 0.787D+00
 Coeff:     -0.362D-01 0.249D+00 0.787D+00
 Gap=     0.435 Goal=   None    Shift=    0.000
 RMSDP=2.34D-07 MaxDP=3.23D-06 DE=-1.81D-09 OVMax= 4.77D-06

 Cycle  10  Pass 1  IDiag  1:
 E= -135.022893432107     Delta-E=       -0.000000000189 Rises=F Damp=F
 DIIS: error= 4.19D-07 at cycle   4 NSaved=   4.
 NSaved= 4 IEnMin= 4 EnMin= -135.022893432107     IErMin= 4 ErrMin= 4.19D-07
 ErrMax= 4.19D-07  0.00D+00 EMaxC= 1.00D-01 BMatC= 2.26D-11 BMatP= 1.85D-10
 IDIUse=1 WtCom= 1.00D+00 WtEn= 0.00D+00
 Coeff-Com: -0.902D-02 0.328D-01 0.258D+00 0.718D+00
 Coeff:     -0.902D-02 0.328D-01 0.258D+00 0.718D+00
 Gap=     0.435 Goal=   None    Shift=    0.000
 RMSDP=7.95D-08 MaxDP=1.43D-06 DE=-1.89D-10 OVMax= 1.69D-06

 Cycle  11  Pass 1  IDiag  1:
 E= -135.022893432128     Delta-E=       -0.000000000021 Rises=F Damp=F
 DIIS: error= 1.58D-07 at cycle   5 NSaved=   5.
 NSaved= 5 IEnMin= 5 EnMin= -135.022893432128     IErMin= 5 ErrMin= 1.58D-07
 ErrMax= 1.58D-07  0.00D+00 EMaxC= 1.00D-01 BMatC= 2.75D-12 BMatP= 2.26D-11
 IDIUse=1 WtCom= 1.00D+00 WtEn= 0.00D+00
 Coeff-Com:  0.402D-02-0.382D-01-0.652D-01 0.220D+00 0.879D+00
 Coeff:      0.402D-02-0.382D-01-0.652D-01 0.220D+00 0.879D+00
 Gap=     0.435 Goal=   None    Shift=    0.000
 RMSDP=4.77D-08 MaxDP=4.41D-07 DE=-2.10D-11 OVMax= 9.86D-07

 Cycle  12  Pass 1  IDiag  1:
 E= -135.022893432131     Delta-E=       -0.000000000004 Rises=F Damp=F
 DIIS: error= 2.19D-08 at cycle   6 NSaved=   6.
 NSaved= 6 IEnMin= 6 EnMin= -135.022893432131     IErMin= 6 ErrMin= 2.19D-08
 ErrMax= 2.19D-08  0.00D+00 EMaxC= 1.00D-01 BMatC= 4.60D-14 BMatP= 2.75D-12
 IDIUse=1 WtCom= 1.00D+00 WtEn= 0.00D+00
 Coeff-Com:  0.653D-03-0.510D-02-0.131D-01 0.848D-02 0.929D-01 0.916D+00
 Coeff:      0.653D-03-0.510D-02-0.131D-01 0.848D-02 0.929D-01 0.916D+00
 Gap=     0.435 Goal=   None    Shift=    0.000
 RMSDP=1.04D-08 MaxDP=1.34D-07 DE=-3.78D-12 OVMax= 2.42D-07

 Cycle  13  Pass 1  IDiag  1:
 E= -135.022893432131     Delta-E=        0.000000000000 Rises=F Damp=F
 DIIS: error= 1.17D-08 at cycle   7 NSaved=   7.
 NSaved= 7 IEnMin= 6 EnMin= -135.022893432131     IErMin= 7 ErrMin= 1.17D-08
 ErrMax= 1.17D-08  0.00D+00 EMaxC= 1.00D-01 BMatC= 1.10D-14 BMatP= 4.60D-14
 IDIUse=1 WtCom= 1.00D+00 WtEn= 0.00D+00
 Coeff-Com: -0.334D-03 0.352D-02 0.497D-02-0.265D-01-0.950D-01 0.265D+00
 Coeff-Com:  0.849D+00
 Coeff:     -0.334D-03 0.352D-02 0.497D-02-0.265D-01-0.950D-01 0.265D+00
 Coeff:      0.849D+00
 Gap=     0.435 Goal=   None    Shift=    0.000
 RMSDP=4.88D-09 MaxDP=5.87D-08 DE= 2.84D-13 OVMax= 1.24D-07

 SCF Done:  E(RwB97XD) =  -135.022893432     A.U. after   13 cycles
            NFock= 13  Conv=0.49D-08     -V/T= 2.0120
 KE= 1.334161771655D+02 PE=-4.809353183746D+02 EE= 1.283136375445D+02
 Leave Link  502 at Sat Aug 14 07:22:57 2021, MaxMem=  1073741824 cpu:              12.5 elap:               1.6
 (Enter /home/prakriti/g16/l801.exe)
 DoSCS=F DFT=T ScalE2(SS,OS)=  1.000000  1.000000
 ExpMin= 1.22D-01 ExpMax= 1.71D+03 ExpMxC= 2.58D+02 IAcc=3 IRadAn=         5 AccDes= 0.00D+00
 HarFok:  IExCor=  205 AccDes= 0.00D+00 IRadAn=         5 IDoV=-2 UseB2=F ITyADJ=14
 ICtDFT= 12500011 ScaDFX=  1.000000  1.000000  1.000000  1.000000
 Largest valence mixing into a core orbital is  8.17D-05
 Largest core mixing into a valence orbital is  3.59D-05
 Range of M.O.s used for correlation:     4    77
 NBasis=    77 NAE=    13 NBE=    13 NFC=     3 NFV=     0
 NROrb=     74 NOA=    10 NOB=    10 NVA=    64 NVB=    64
 Leave Link  801 at Sat Aug 14 07:22:57 2021, MaxMem=  1073741824 cpu:               0.6 elap:               0.1
 (Enter /home/prakriti/g16/l914.exe)
 RHF ground state
 Keep R1, R2, and R3 ints in memory in symmetry-blocked form, NReq=371033518.
 FoFCou: FMM=F IPFlag=           0 FMFlag=           0 FMFlg1=           0
         NFxFlg=           0 DoJE=F BraDBF=F KetDBF=F FulRan=T
         wScrn=  0.000000 ICntrl=       600 IOpCl=  0 I1Cent=           0 NGrid=           0
         NMat0=    1 NMatS0=   3003 NMatT0=    0 NMatD0=    1 NMtDS0=    0 NMtDT0=    0
 Petite list used in FoFCou.
 MDV=  1073741824 DFT=T DoStab=F Mixed=T DoRPA=T DoScal=F NonHer=T
 Making orbital integer symmetry assigments:
 Orbital symmetries:
       Occupied  (A') (A') (A") (A') (A") (A') (A') (A') (A") (A")
                 (A') (A") (A')
       Virtual   (A') (A') (A") (A') (A') (A") (A") (A') (A") (A')
                 (A") (A") (A') (A') (A') (A") (A') (A') (A") (A")
                 (A") (A') (A') (A') (A") (A') (A") (A') (A") (A')
                 (A") (A') (A') (A") (A") (A') (A') (A") (A') (A")
                 (A") (A') (A') (A") (A') (A") (A') (A") (A') (A")
                 (A') (A") (A') (A') (A") (A') (A") (A') (A") (A')
                 (A") (A') (A") (A')
   640 initial guesses have been made.
 Convergence on wavefunction:    0.001000000000000
 Davidson Disk Diagonalization:  ConvIn= 1.00D-03 SkipCon=T Conv= 1.00D-03.
 Max sub-space:  3840 roots to seek:  1280 dimension of matrix:         1280
 *** WARNING: Number of orthogonal guesses is          640
 Iteration     1 Dimension   640 NMult     0 NNew    640
 CISAX will form   640 AO SS matrices at one time.
 NMat=   640 NSing=   640 JSym2X=-1.
 New state      9 was old state     10
 New state     10 was old state      9
 New state     12 was old state     16
 New state     14 was old state     12
 New state     16 was old state     14
 New state     18 was old state     19
 New state     19 was old state     21
 New state     20 was old state     18
 New state     21 was old state     22
 New state     22 was old state     24
 New state     24 was old state     28
 New state     25 was old state     20
 New state     26 was old state     29
 New state     27 was old state     26
 New state     28 was old state     30
 New state     29 was old state     27
 New state     30 was old state     25
 New state     31 was old state     32
 New state     32 was old state     31
 New state     34 was old state     38
 New state     35 was old state     39
 New state     37 was old state     35
 New state     38 was old state     34
 New state     39 was old state     44
 New state     40 was old state     42
 New state     41 was old state     37
 New state     42 was old state     40
 New state     44 was old state     41
 New state     47 was old state     49
 New state     48 was old state     53
 New state     49 was old state     50
 New state     50 was old state     47
 New state     51 was old state     55
 New state     53 was old state     48
 New state     54 was old state     51
 New state     55 was old state     61
 New state     56 was old state     54
 New state     57 was old state     56
 New state     59 was old state     57
 New state     60 was old state     59
 New state     61 was old state     60
 New state     63 was old state     65
 New state     64 was old state     66
 New state     65 was old state     67
 New state     66 was old state     63
 New state     67 was old state     70
 New state     68 was old state     71
 New state     69 was old state     68
 New state     70 was old state     64
 New state     71 was old state     69
 New state     75 was old state     76
 New state     76 was old state     75
 New state     78 was old state     79
 New state     79 was old state     81
 New state     80 was old state     78
 New state     81 was old state     84
 New state     82 was old state     80
 New state     83 was old state     86
 New state     84 was old state     89
 New state     85 was old state     92
 New state     86 was old state     85
 New state     88 was old state     83
 New state     89 was old state     94
 New state     90 was old state     82
 New state     91 was old state     93
 New state     92 was old state     95
 New state     93 was old state     88
 New state     94 was old state     90
 New state     95 was old state     97
 New state     97 was old state    104
 New state     98 was old state    101
 New state     99 was old state    100
 New state    100 was old state     98
 New state    101 was old state    102
 New state    102 was old state    103
 New state    103 was old state     99
 New state    104 was old state    105
 New state    105 was old state    106
 New state    106 was old state    107
 New state    107 was old state     91
 New state    108 was old state    109
 New state    109 was old state    110
 New state    110 was old state    115
 New state    111 was old state    114
 New state    112 was old state    113
 New state    113 was old state    108
 New state    114 was old state    111
 New state    115 was old state    112
 New state    117 was old state    118
 New state    118 was old state    117
 New state    121 was old state    124
 New state    123 was old state    121
 New state    124 was old state    123
 New state    125 was old state    126
 New state    126 was old state    125
 New state    128 was old state    132
 New state    129 was old state    135
 New state    130 was old state    131
 New state    131 was old state    138
 New state    132 was old state    133
 New state    133 was old state    129
 New state    134 was old state    130
 New state    135 was old state    145
 New state    136 was old state    139
 New state    137 was old state    140
 New state    138 was old state    137
 New state    139 was old state    128
 New state    140 was old state    154
 New state    141 was old state    134
 New state    142 was old state    155
 New state    143 was old state    149
 New state    144 was old state    146
 New state    145 was old state    147
 New state    146 was old state    151
 New state    147 was old state    142
 New state    148 was old state    144
 New state    149 was old state    143
 New state    150 was old state    158
 New state    151 was old state    166
 New state    152 was old state    141
 New state    153 was old state    157
 New state    154 was old state    153
 New state    155 was old state    150
 New state    156 was old state    160
 New state    157 was old state    152
 New state    158 was old state    159
 New state    159 was old state    156
 New state    160 was old state    148
 New state    162 was old state    173
 New state    163 was old state    168
 New state    165 was old state    172
 New state    166 was old state    167
 New state    167 was old state    171
 New state    168 was old state    174
 New state    171 was old state    176
 New state    172 was old state    178
 New state    173 was old state    162
 New state    174 was old state    177
 New state    176 was old state    186
 New state    177 was old state    189
 New state    178 was old state    179
 New state    179 was old state    180
 New state    180 was old state    183
 New state    181 was old state    185
 New state    182 was old state    187
 New state    183 was old state    181
 New state    185 was old state    182
 New state    186 was old state    192
 New state    187 was old state    188
 New state    188 was old state    190
 New state    189 was old state    191
 New state    190 was old state    201
 New state    191 was old state    193
 New state    192 was old state    195
 New state    193 was old state    194
 New state    194 was old state    196
 New state    195 was old state    197
 New state    196 was old state    198
 New state    197 was old state    199
 New state    198 was old state    202
 New state    199 was old state    200
 New state    200 was old state    203
 New state    201 was old state    204
 New state    202 was old state    206
 New state    203 was old state    207
 New state    204 was old state    205
 New state    205 was old state    209
 New state    206 was old state    208
 New state    207 was old state    210
 New state    208 was old state    216
 New state    209 was old state    233
 New state    210 was old state    218
 New state    212 was old state    214
 New state    213 was old state    215
 New state    214 was old state    217
 New state    215 was old state    212
 New state    216 was old state    221
 New state    217 was old state    213
 New state    218 was old state    219
 New state    219 was old state    222
 New state    221 was old state    225
 New state    222 was old state    229
 New state    223 was old state    227
 New state    224 was old state    223
 New state    225 was old state    231
 New state    226 was old state    232
 New state    227 was old state    228
 New state    228 was old state    230
 New state    229 was old state    226
 New state    230 was old state    234
 New state    231 was old state    224
 New state    232 was old state    235
 New state    233 was old state    237
 New state    234 was old state    239
 New state    235 was old state    240
 New state    237 was old state    238
 New state    238 was old state    246
 New state    239 was old state    244
 New state    240 was old state    242
 New state    241 was old state    243
 New state    242 was old state    241
 New state    243 was old state    245
 New state    244 was old state    248
 New state    245 was old state    247
 New state    246 was old state    251
 New state    247 was old state    253
 New state    248 was old state    249
 New state    249 was old state    258
 New state    251 was old state    252
 New state    252 was old state    254
 New state    253 was old state    257
 New state    254 was old state    260
 New state    256 was old state    261
 New state    257 was old state    256
 New state    258 was old state    259
 New state    259 was old state    268
 New state    260 was old state    262
 New state    261 was old state    269
 New state    262 was old state    266
 New state    263 was old state    267
 New state    264 was old state    263
 New state    265 was old state    264
 New state    266 was old state    265
 New state    267 was old state    272
 New state    268 was old state    275
 New state    269 was old state    270
 New state    270 was old state    271
 New state    271 was old state    273
 New state    272 was old state    277
 New state    273 was old state    284
 New state    275 was old state    281
 New state    276 was old state    278
 New state    277 was old state    276
 New state    278 was old state    282
 New state    279 was old state    280
 No map to state    280
 New state    281 was old state    279
 New state    282 was old state    286
 No map to state    284
 New state    286 was old state    288
 New state    288 was old state    291
 New state    291 was old state    295
 New state    292 was old state    298
 New state    293 was old state    292
 New state    294 was old state    296
 New state    295 was old state    300
 New state    296 was old state    293
 New state    297 was old state    294
 New state    298 was old state    297
 New state    299 was old state    301
 New state    300 was old state    299
 New state    301 was old state    303
 No map to state    303
 New state    311 was old state    314
 New state    313 was old state    315
 New state    314 was old state    311
 New state    315 was old state    316
 New state    316 was old state    313
 New state    317 was old state    318
 New state    318 was old state    317
 New state    319 was old state    321
 New state    321 was old state    319
 New state    326 was old state    328
 New state    328 was old state    326
 New state    329 was old state    332
 New state    330 was old state    331
 New state    331 was old state    329
 New state    332 was old state    330
 New state    333 was old state    335
 New state    334 was old state    336
 New state    335 was old state    333
 New state    336 was old state    337
 New state    337 was old state    334
 New state    341 was old state    343
 New state    342 was old state    345
 New state    343 was old state    341
 New state    344 was old state    346
 New state    345 was old state    344
 New state    346 was old state    342
 New state    352 was old state    355
 New state    354 was old state    356
 New state    355 was old state    352
 New state    356 was old state    354
 New state    357 was old state    359
 New state    358 was old state    360
 New state    359 was old state    361
 New state    360 was old state    357
 New state    361 was old state    358
 New state    362 was old state    365
 New state    363 was old state    362
 New state    365 was old state    363
 New state    368 was old state    369
 New state    369 was old state    370
 New state    370 was old state    375
 New state    371 was old state    368
 New state    373 was old state    371
 New state    374 was old state    377
 New state    375 was old state    376
 New state    376 was old state    374
 New state    377 was old state    373
 New state    378 was old state    380
 New state    380 was old state    378
 New state    381 was old state    387
 New state    382 was old state    381
 New state    383 was old state    382
 New state    384 was old state    385
 New state    385 was old state    383
 New state    386 was old state    384
 New state    387 was old state    393
 New state    388 was old state    392
 New state    390 was old state    388
 New state    391 was old state    390
 New state    392 was old state    391
 New state    393 was old state    394
 New state    394 was old state    386
 New state    397 was old state    398
 New state    398 was old state    402
 New state    399 was old state    397
 New state    400 was old state    399
 New state    402 was old state    400
 New state    403 was old state    404
 New state    404 was old state    406
 New state    405 was old state    408
 New state    406 was old state    409
 New state    407 was old state    405
 New state    408 was old state    403
 New state    409 was old state    407
 New state    411 was old state    413
 New state    413 was old state    411
 New state    416 was old state    418
 New state    417 was old state    416
 New state    418 was old state    417
 New state    419 was old state    420
 New state    420 was old state    419
 New state    421 was old state    424
 New state    423 was old state    421
 New state    424 was old state    423
 New state    425 was old state    426
 New state    426 was old state    427
 New state    427 was old state    425
 New state    431 was old state    434
 New state    432 was old state    433
 New state    433 was old state    432
 New state    434 was old state    435
 New state    435 was old state    431
 New state    436 was old state    438
 New state    438 was old state    436
 New state    439 was old state    441
 New state    440 was old state    443
 New state    441 was old state    444
 New state    443 was old state    439
 New state    444 was old state    440
 New state    445 was old state    446
 New state    446 was old state    447
 New state    447 was old state    445
 New state    448 was old state    449
 New state    449 was old state    450
 New state    450 was old state    448
 New state    454 was old state    455
 New state    455 was old state    454
 New state    459 was old state    460
 New state    460 was old state    459
 New state    463 was old state    464
 New state    464 was old state    463
 New state    466 was old state    467
 New state    467 was old state    466
 New state    468 was old state    470
 New state    470 was old state    468
 New state    471 was old state    472
 New state    472 was old state    471
 New state    477 was old state    478
 New state    478 was old state    480
 New state    479 was old state    477
 New state    480 was old state    479
 New state    483 was old state    484
 New state    484 was old state    483
 New state    487 was old state    488
 New state    488 was old state    487
 New state    492 was old state    494
 New state    493 was old state    492
 New state    494 was old state    496
 New state    495 was old state    498
 New state    496 was old state    493
 New state    498 was old state    500
 New state    499 was old state    495
 New state    500 was old state    499
 New state    502 was old state    503
 New state    503 was old state    506
 New state    504 was old state    505
 New state    505 was old state    502
 New state    506 was old state    504
 New state    509 was old state    510
 New state    510 was old state    509
 New state    512 was old state    513
 New state    513 was old state    514
 New state    514 was old state    512
 New state    515 was old state    516
 New state    516 was old state    515
 New state    518 was old state    520
 New state    520 was old state    518
 New state    521 was old state    522
 New state    522 was old state    521
 New state    523 was old state    526
 New state    524 was old state    523
 New state    525 was old state    524
 New state    526 was old state    527
 New state    527 was old state    525
 New state    530 was old state    531
 New state    531 was old state    532
 New state    532 was old state    534
 New state    533 was old state    530
 New state    534 was old state    533
 New state    535 was old state    538
 New state    536 was old state    537
 New state    537 was old state    535
 New state    538 was old state    536
 New state    539 was old state    541
 New state    540 was old state    539
 New state    541 was old state    542
 New state    542 was old state    540
 New state    543 was old state    544
 New state    544 was old state    543
 New state    546 was old state    548
 New state    548 was old state    546
 New state    549 was old state    551
 New state    551 was old state    549
 New state    557 was old state    558
 New state    558 was old state    557
 New state    559 was old state    560
 New state    560 was old state    559
 New state    565 was old state    566
 New state    566 was old state    565
 New state    571 was old state    572
 New state    572 was old state    571
 New state    574 was old state    575
 New state    575 was old state    574
 New state    577 was old state    582
 New state    578 was old state    577
 New state    582 was old state    583
 New state    583 was old state    585
 New state    585 was old state    578
 New state    588 was old state    589
 New state    589 was old state    588
 New state    591 was old state    592
 New state    592 was old state    591
 New state    593 was old state    594
 New state    594 was old state    593
 New state    598 was old state    599
 New state    599 was old state    598
 New state    601 was old state    602
 New state    602 was old state    603
 New state    603 was old state    601
 New state    606 was old state    613
 New state    608 was old state    606
 New state    609 was old state    608
 New state    610 was old state    609
 New state    613 was old state    610
 New state    615 was old state    616
 New state    616 was old state    617
 New state    617 was old state    615
 New state    621 was old state    623
 New state    623 was old state    621
 New state    625 was old state    626
 New state    626 was old state    625
 New state    627 was old state    628
 New state    628 was old state    627
 New state    629 was old state    630
 New state    630 was old state    632
 New state    632 was old state    629
 New state    636 was old state    637
 New state    637 was old state    636
 Excitation Energies [eV] at current iteration:
 Root      1 :     6.811229689007222
 Root      2 :     7.994120311734407
 Root      3 :     8.671352273759592
 Root      4 :     8.914829465385681
 Root      5 :     9.297172297915967
 Root      6 :     9.739880120050939
 Root      7 :     9.960288991576602
 Root      8 :    10.380177539342950
 Root      9 :    10.965692374827540
 Root     10 :    10.980714482767790
 Root     11 :    11.467272283581000
 Root     12 :    11.864767861570170
 Root     13 :    12.164294071539140
 Root     14 :    12.176725318299410
 Root     15 :    12.494682209065600
 Root     16 :    12.524260309652970
 Root     17 :    12.710282521853330
 Root     18 :    12.824151278880120
 Root     19 :    12.859879314031650
 Root     20 :    12.991345379234460
 Root     21 :    12.998516696815890
 Root     22 :    13.281296854279760
 Root     23 :    13.301784943459610
 Root     24 :    13.466121819654880
 Root     25 :    13.564214553767010
 Root     26 :    13.758849628423110
 Root     27 :    13.759411967197900
 Root     28 :    13.926235808558660
 Root     29 :    13.939675994459100
 Root     30 :    14.093550015322230
 Root     31 :    14.237904890720930
 Root     32 :    14.305597744716670
 Root     33 :    14.554155359523530
 Root     34 :    14.665070481939030
 Root     35 :    14.705300706209660
 Root     36 :    14.758106783883350
 Root     37 :    14.882888088013040
 Root     38 :    14.997720622218200
 Root     39 :    15.047467297819740
 Root     40 :    15.068322537362030
 Root     41 :    15.100540024340810
 Root     42 :    15.312359294401130
 Root     43 :    15.375274299282120
 Root     44 :    15.658555716730190
 Root     45 :    15.758746260283850
 Root     46 :    15.937501336827470
 Root     47 :    16.051343697408690
 Root     48 :    16.135959693878660
 Root     49 :    16.292474715497200
 Root     50 :    16.338637975260020
 Root     51 :    16.354902621283180
 Root     52 :    16.436209782995990
 Root     53 :    16.526369111412870
 Root     54 :    16.704755990058010
 Root     55 :    16.722875030314610
 Root     56 :    16.808168987961230
 Root     57 :    16.842253782797450
 Root     58 :    16.967966787248220
 Root     59 :    17.233305969893040
 Root     60 :    17.349850582732070
 Root     61 :    17.659029491755650
 Root     62 :    18.023349461529500
 Root     63 :    18.151475851964970
 Root     64 :    18.265773200477110
 Root     65 :    18.486907054915640
 Root     66 :    18.501980333258010
 Root     67 :    19.148817800589240
 Root     68 :    19.580364875934010
 Root     69 :    19.591102097323420
 Root     70 :    19.839800477111890
 Root     71 :    20.041465100418050
 Root     72 :    20.377679472696750
 Root     73 :    20.395870611139990
 Root     74 :    20.576941356647000
 Root     75 :    20.671159186734450
 Root     76 :    20.737960852582110
 Root     77 :    20.937877110495580
 Root     78 :    21.027331228041180
 Root     79 :    21.081598154579910
 Root     80 :    21.117562517198590
 Root     81 :    21.464718181622120
 Root     82 :    21.625887649006390
 Root     83 :    21.742105200457160
 Root     84 :    21.742541875062220
 Root     85 :    21.881506464796210
 Root     86 :    21.914818472250260
 Root     87 :    22.065388563875130
 Root     88 :    22.275223221767820
 Root     89 :    22.288807702443220
 Root     90 :    22.315436963409420
 Root     91 :    22.441651007851670
 Root     92 :    22.567035361277010
 Root     93 :    22.635813745280960
 Root     94 :    22.714903378704640
 Root     95 :    22.733104050751750
 Root     96 :    22.819284946080540
 Root     97 :    22.831997224122920
 Root     98 :    22.971868478766840
 Root     99 :    23.218337752522000
 Root    100 :    23.251976631579780
 Root    101 :    23.351628238835720
 Root    102 :    23.371767868431750
 Root    103 :    23.489154636624920
 Root    104 :    23.549735565639090
 Root    105 :    23.609808292715590
 Root    106 :    23.727184860644760
 Root    107 :    23.758887459065400
 Root    108 :    24.035067858568480
 Root    109 :    24.101392456419790
 Root    110 :    24.143147611073960
 Root    111 :    24.176136904767490
 Root    112 :    24.220935549906970
 Root    113 :    24.229003004443490
 Root    114 :    24.391375296445080
 Root    115 :    24.425551955529460
 Root    116 :    24.664033333454490
 Root    117 :    24.792490132478100
 Root    118 :    24.867998184007180
 Root    119 :    25.233532386222110
 Root    120 :    25.332461711972760
 Root    121 :    25.410830377132040
 Root    122 :    25.566517728287860
 Root    123 :    25.723190123437750
 Root    124 :    25.775986289741630
 Root    125 :    25.928164832422070
 Root    126 :    25.957059392039790
 Root    127 :    26.186667534101140
 Root    128 :    26.534435547770610
 Root    129 :    26.589978822887970
 Root    130 :    26.590828344569790
 Root    131 :    26.686165983292060
 Root    132 :    26.858214555306120
 Root    133 :    26.892864785905710
 Root    134 :    26.895098166681630
 Root    135 :    26.996126887213550
 Root    136 :    27.078650549318340
 Root    137 :    27.161385714544910
 Root    138 :    27.250996360257470
 Root    139 :    27.260500786269740
 Root    140 :    27.376525767631150
 Root    141 :    27.464346274877860
 Root    142 :    27.551123170303630
 Root    143 :    27.553168411276850
 Root    144 :    27.635226479087660
 Root    145 :    27.694982060364690
 Root    146 :    27.726045005525270
 Root    147 :    27.770693483292100
 Root    148 :    27.857550699010010
 Root    149 :    27.895082398699970
 Root    150 :    28.034201328542790
 Root    151 :    28.108714481946340
 Root    152 :    28.228759374475040
 Root    153 :    28.346792070813090
 Root    154 :    28.383727160240480
 Root    155 :    28.407483338616770
 Root    156 :    28.468216309312850
 Root    157 :    28.507079807812370
 Root    158 :    28.630682325721380
 Root    159 :    28.655665987431170
 Root    160 :    28.768170916508180
 Root    161 :    28.873233970154060
 Root    162 :    28.998047528859930
 Root    163 :    29.047767411074520
 Root    164 :    29.088145854301910
 Root    165 :    29.158079444784840
 Root    166 :    29.209727578357850
 Root    167 :    29.328044127069530
 Root    168 :    29.488782534881570
 Root    169 :    29.555038734988210
 Root    170 :    29.559998726361470
 Root    171 :    29.674223873297810
 Root    172 :    29.728180107622810
 Root    173 :    29.777817483001140
 Root    174 :    29.810349907190130
 Root    175 :    29.904062997725990
 Root    176 :    29.934838188528450
 Root    177 :    30.044858780940650
 Root    178 :    30.099392670707910
 Root    179 :    30.106456395295960
 Root    180 :    30.244671063452510
 Root    181 :    30.277364340131860
 Root    182 :    30.421587662884100
 Root    183 :    30.583399660793430
 Root    184 :    30.630649140554500
 Root    185 :    30.636959256308850
 Root    186 :    30.825898299099900
 Root    187 :    30.827015400726970
 Root    188 :    30.882604044203950
 Root    189 :    30.887997490047630
 Root    190 :    30.975229106714450
 Root    191 :    31.231276671010390
 Root    192 :    31.260741297234250
 Root    193 :    31.389235723033550
 Root    194 :    31.595056502910210
 Root    195 :    31.763656306704290
 Root    196 :    31.843259155215740
 Root    197 :    31.884209051562160
 Root    198 :    31.936058676536360
 Root    199 :    31.998523551669460
 Root    200 :    32.068176685081800
 Root    201 :    32.192495901070740
 Root    202 :    32.446944159888390
 Root    203 :    32.481318541197200
 Root    204 :    32.723134365613780
 Root    205 :    32.934643286798480
 Root    206 :    32.989970260076350
 Root    207 :    33.075814846193600
 Root    208 :    33.251563957568750
 Root    209 :    33.313616525399330
 Root    210 :    33.514150349295230
 Root    211 :    33.612781459780940
 Root    212 :    33.759746253327980
 Root    213 :    33.934417990080410
 Root    214 :    34.328558923355120
 Root    215 :    34.334658791530660
 Root    216 :    34.369380234605020
 Root    217 :    34.448464618688130
 Root    218 :    34.477459182202850
 Root    219 :    34.608599979660420
 Root    220 :    34.644502993185760
 Root    221 :    34.760382400702240
 Root    222 :    34.814780462579920
 Root    223 :    35.009873187894140
 Root    224 :    35.106334344120620
 Root    225 :    35.469115170904100
 Root    226 :    35.511623116480510
 Root    227 :    35.539353098118960
 Root    228 :    35.556668207394780
 Root    229 :    35.672856589298260
 Root    230 :    36.122843236556650
 Root    231 :    36.283902010971740
 Root    232 :    36.444989044578290
 Root    233 :    36.480487505166820
 Root    234 :    36.573110878331970
 Root    235 :    36.601650452876400
 Root    236 :    36.809214198596980
 Root    237 :    36.839996603275190
 Root    238 :    36.973872224805210
 Root    239 :    37.161183298782030
 Root    240 :    37.556815171771700
 Root    241 :    37.574010614132540
 Root    242 :    37.884534946703650
 Root    243 :    37.930577339904290
 Root    244 :    38.013912262606750
 Root    245 :    38.106335970744400
 Root    246 :    38.367392334360770
 Root    247 :    38.619327707385470
 Root    248 :    38.692192795422810
 Root    249 :    38.864024443569210
 Root    250 :    38.993858873050040
 Root    251 :    39.303078424926130
 Root    252 :    39.455600733454400
 Root    253 :    39.614554139422860
 Root    254 :    39.626936079241910
 Root    255 :    39.951044027901290
 Root    256 :    40.236746169678660
 Root    257 :    40.272501067821170
 Root    258 :    40.546121338987210
 Root    259 :    40.852222196322860
 Root    260 :    40.996415278312150
 Root    261 :    41.003800108044780
 Root    262 :    41.140173179930980
 Root    263 :    41.382179629573360
 Root    264 :    41.395588038562000
 Root    265 :    41.468454915931030
 Root    266 :    41.604597265289680
 Root    267 :    41.666813050612680
 Root    268 :    41.727371117032960
 Root    269 :    41.822721916983920
 Root    270 :    41.930432117934810
 Root    271 :    42.139929386626190
 Root    272 :    42.297002580040840
 Root    273 :    42.341002963596540
 Root    274 :    42.491937951929820
 Root    275 :    42.733026823144690
 Root    276 :    42.796045147137500
 Root    277 :    42.978247659567550
 Root    278 :    42.986398650941510
 Root    279 :    43.027587396360690
 Root    280 :    43.062708678548490
 Root    281 :    43.099601933937920
 Root    282 :    44.255236989355240
 Root    283 :    44.315211959352080
 Root    284 :    44.373189037214980
 Root    285 :    44.616471461355000
 Root    286 :    45.055701269088300
 Root    287 :    45.219032104067620
 Root    288 :    45.586743110885050
 Root    289 :    45.682000818686860
 Root    290 :    45.982478409449910
 Root    291 :    46.220060592858350
 Root    292 :    46.297021261975940
 Root    293 :    46.378233621518820
 Root    294 :    46.553152600139840
 Root    295 :    46.898856889427290
 Root    296 :    47.102009077046710
 Root    297 :    47.103177880199510
 Root    298 :    47.412431630858970
 Root    299 :    47.572972808799800
 Root    300 :    47.697719111589090
 Root    301 :    47.844470194037210
 Root    302 :    47.933614176159420
 Root    303 :    47.957136873214270
 Root    304 :    48.259929712161090
 Root    305 :    48.801967365613680
 Root    306 :    48.970082454274990
 Root    307 :    49.126738956110600
 Root    308 :    49.610288046366320
 Root    309 :    49.761529580557320
 Root    310 :    50.120083392348900
 Root    311 :    50.539395817265930
 Root    312 :    50.576696316266240
 Root    313 :    50.727144309455570
 Root    314 :    51.005501373195110
 Root    315 :    51.027602587363520
 Root    316 :    51.061539571798550
 Root    317 :    51.310690904159960
 Root    318 :    51.468657671391260
 Root    319 :    51.630719754706720
 Root    320 :    51.708865125153560
 Root    321 :    51.725923499581110
 Root    322 :    51.938983594152270
 Root    323 :    52.255776012675520
 Root    324 :    52.264360608699370
 Root    325 :    52.502713321419660
 Root    326 :    52.533106343118090
 Root    327 :    52.792053328547880
 Root    328 :    52.840954414470420
 Root    329 :    52.956179419963970
 Root    330 :    53.029722470972720
 Root    331 :    53.033553329314140
 Root    332 :    53.087024760850120
 Root    333 :    53.398060029886930
 Root    334 :    53.454466631266570
 Root    335 :    53.670377742748280
 Root    336 :    53.693310188724690
 Root    337 :    53.742232360874180
 Root    338 :    53.923629793927440
 Root    339 :    54.181022185495230
 Root    340 :    54.371682250352900
 Root    341 :    54.464845616758070
 Root    342 :    54.566282290803750
 Root    343 :    54.739385325680280
 Root    344 :    54.799236571815690
 Root    345 :    54.816166736289750
 Root    346 :    54.889386448277080
 Root    347 :    55.055637630130070
 Root    348 :    55.208757259870100
 Root    349 :    55.556434055541540
 Root    350 :    55.824035570324970
 Root    351 :    56.251694700471890
 Root    352 :    56.448493591285500
 Root    353 :    56.515932682064400
 Root    354 :    56.875174726088770
 Root    355 :    57.072710288650680
 Root    356 :    57.195613101460200
 Root    357 :    57.433515869134910
 Root    358 :    57.459884216436310
 Root    359 :    57.567053738857330
 Root    360 :    57.742380850655570
 Root    361 :    57.780939845111190
 Root    362 :    57.958819541208040
 Root    363 :    57.982541926281390
 Root    364 :    58.017073934213540
 Root    365 :    58.068296811868290
 Root    366 :    58.160896341487550
 Root    367 :    58.232732057389430
 Root    368 :    58.456366407099670
 Root    369 :    58.601348060936110
 Root    370 :    58.704897661481740
 Root    371 :    58.787660102807150
 Root    372 :    58.842708575597110
 Root    373 :    58.917115216533590
 Root    374 :    58.952751965448070
 Root    375 :    59.113193476816150
 Root    376 :    59.152918923217780
 Root    377 :    59.253482093083650
 Root    378 :    59.349493113383820
 Root    379 :    59.450271480278710
 Root    380 :    59.557169344289680
 Root    381 :    59.805990920137910
 Root    382 :    59.813179119523700
 Root    383 :    59.849624928322160
 Root    384 :    59.965154595360600
 Root    385 :    59.979801489739560
 Root    386 :    60.151434681394230
 Root    387 :    60.336709315152220
 Root    388 :    60.381956305609420
 Root    389 :    60.430338000428290
 Root    390 :    60.527627011042880
 Root    391 :    60.565029561341700
 Root    392 :    60.741874487778780
 Root    393 :    60.773348198886100
 Root    394 :    60.816355106466370
 Root    395 :    60.929561359357000
 Root    396 :    61.019102576526000
 Root    397 :    61.128586769655710
 Root    398 :    61.324710885667470
 Root    399 :    61.339456062716340
 Root    400 :    61.495357325674810
 Root    401 :    61.529169464326820
 Root    402 :    61.565677381968370
 Root    403 :    61.586391024401190
 Root    404 :    61.693047323995560
 Root    405 :    61.838441214817140
 Root    406 :    61.934395585974450
 Root    407 :    62.061355042441090
 Root    408 :    62.300340656983000
 Root    409 :    62.401813290028810
 Root    410 :    62.593874480198300
 Root    411 :    62.705150939153100
 Root    412 :    62.816802787644620
 Root    413 :    62.928844043516220
 Root    414 :    63.091189433162670
 Root    415 :    63.105081040744790
 Root    416 :    63.289963797363990
 Root    417 :    63.420336342066000
 Root    418 :    63.803395341445120
 Root    419 :    63.887796642840110
 Root    420 :    63.909014926142770
 Root    421 :    64.171298347398060
 Root    422 :    64.241367278884680
 Root    423 :    64.376797888001630
 Root    424 :    64.442225588492790
 Root    425 :    64.972725877108960
 Root    426 :    65.018809703055140
 Root    427 :    65.070852765165380
 Root    428 :    65.246096557506230
 Root    429 :    65.310352135054930
 Root    430 :    65.388908236764270
 Root    431 :    65.497438538282150
 Root    432 :    65.659057322107360
 Root    433 :    65.718315231454920
 Root    434 :    65.764293760060160
 Root    435 :    65.779160291854860
 Root    436 :    65.837128419817280
 Root    437 :    65.931441784047550
 Root    438 :    65.977768100530640
 Root    439 :    66.050620123677020
 Root    440 :    66.440693490790410
 Root    441 :    66.562535142550080
 Root    442 :    66.661520609546190
 Root    443 :    66.789997094529000
 Root    444 :    66.865823604928170
 Root    445 :    67.128582055584460
 Root    446 :    67.461459065446410
 Root    447 :    67.497716364559890
 Root    448 :    67.650031231300740
 Root    449 :    67.914202913329250
 Root    450 :    67.980910856957250
 Root    451 :    68.362727211059390
 Root    452 :    68.475043940688410
 Root    453 :    68.529357259882200
 Root    454 :    68.728360281260510
 Root    455 :    68.794999033734570
 Root    456 :    69.005560372286060
 Root    457 :    69.154309215290840
 Root    458 :    69.335960556059990
 Root    459 :    69.384926814717730
 Root    460 :    69.554667665375820
 Root    461 :    69.585026692031250
 Root    462 :    69.749661734300720
 Root    463 :    69.945721088476430
 Root    464 :    70.343988884516550
 Root    465 :    70.716741568158160
 Root    466 :    70.954493640664250
 Root    467 :    71.047181179691450
 Root    468 :    71.140940973864800
 Root    469 :    71.248688952709320
 Root    470 :    71.377039750285660
 Root    471 :    71.516715674555970
 Root    472 :    71.638836979434030
 Root    473 :    71.681970951040510
 Root    474 :    71.722745502950500
 Root    475 :    71.861015914425180
 Root    476 :    71.900786438510010
 Root    477 :    72.235101791923570
 Root    478 :    72.270041708615580
 Root    479 :    72.277458708125810
 Root    480 :    72.593641420341680
 Root    481 :    72.805269443931510
 Root    482 :    72.830872787841680
 Root    483 :    72.898173602256480
 Root    484 :    73.138463499791480
 Root    485 :    73.156344401833830
 Root    486 :    73.347683350270760
 Root    487 :    73.572408848120490
 Root    488 :    73.625416186544460
 Root    489 :    73.831275129865220
 Root    490 :    73.861352843803940
 Root    491 :    74.357582573774000
 Root    492 :    74.554172277106690
 Root    493 :    74.582042377557840
 Root    494 :    74.857663593706900
 Root    495 :    74.923138432309710
 Root    496 :    75.026156989286890
 Root    497 :    75.109695091964000
 Root    498 :    75.470003377142760
 Root    499 :    75.550564954577110
 Root    500 :    75.694418482897920
 Root    501 :    75.853853533347010
 Root    502 :    76.066347407110670
 Root    503 :    76.205533361343190
 Root    504 :    76.251385652159710
 Root    505 :    76.389388992982860
 Root    506 :    76.437193837440380
 Root    507 :    76.438752457529220
 Root    508 :    76.493268516429280
 Root    509 :    77.026380422728780
 Root    510 :    77.136019262248150
 Root    511 :    77.240300651297430
 Root    512 :    77.520861006307340
 Root    513 :    77.640293893278340
 Root    514 :    77.647683107053520
 Root    515 :    78.140572026034930
 Root    516 :    78.334259756419030
 Root    517 :    78.547196451256810
 Root    518 :    78.853698440078400
 Root    519 :    78.912812207471480
 Root    520 :    79.115200310233900
 Root    521 :    79.317057779119030
 Root    522 :    79.366432306472260
 Root    523 :    79.766376851586880
 Root    524 :    79.872603746106340
 Root    525 :    80.033608684673750
 Root    526 :    80.192763856589610
 Root    527 :    80.327237285276080
 Root    528 :    80.633102373280250
 Root    529 :    80.931477398923960
 Root    530 :    81.231791058810050
 Root    531 :    81.470490936712550
 Root    532 :    81.583982970728510
 Root    533 :    81.699399519093700
 Root    534 :    81.937097767715930
 Root    535 :    82.101054344399530
 Root    536 :    82.190790538030210
 Root    537 :    82.405822923399640
 Root    538 :    82.487064081800680
 Root    539 :    82.715580720555920
 Root    540 :    82.819131311913040
 Root    541 :    82.858824141577490
 Root    542 :    82.887153273192480
 Root    543 :    83.272474532615550
 Root    544 :    83.334400604767270
 Root    545 :    83.517555262345840
 Root    546 :    83.707636116946790
 Root    547 :    83.775208527747350
 Root    548 :    83.791395121120520
 Root    549 :    83.845088964433330
 Root    550 :    84.006295163914400
 Root    551 :    84.078144187730420
 Root    552 :    84.487110263411170
 Root    553 :    84.684758337545520
 Root    554 :    84.938918283608370
 Root    555 :    85.014293310769570
 Root    556 :    85.417250143052100
 Root    557 :    86.038367564783170
 Root    558 :    86.052324509650290
 Root    559 :    86.201921180189810
 Root    560 :    86.250040484332050
 Root    561 :    86.716201527756010
 Root    562 :    86.740408086438150
 Root    563 :    87.140592715667960
 Root    564 :    87.280866383701340
 Root    565 :    87.355165014615210
 Root    566 :    87.420732118069320
 Root    567 :    87.531143330166430
 Root    568 :    87.703380117302320
 Root    569 :    87.769985416521990
 Root    570 :    88.036225010347690
 Root    571 :    88.260417233246770
 Root    572 :    88.346574985222250
 Root    573 :    88.486173152460350
 Root    574 :    88.710431355261420
 Root    575 :    88.844357894568830
 Root    576 :    88.919680434853730
 Root    577 :    88.926798033339750
 Root    578 :    89.224016366079880
 Root    579 :    89.337977422188330
 Root    580 :    89.355920894136460
 Root    581 :    89.433158679674820
 Root    582 :    89.702133471112760
 Root    583 :    89.702438356211430
 Root    584 :    89.958856494015620
 Root    585 :    90.044495195774020
 Root    586 :    90.284678976945940
 Root    587 :    90.450867588260370
 Root    588 :    91.040907834254900
 Root    589 :    91.129817919518730
 Root    590 :    92.092046587836590
 Root    591 :    92.375227907940770
 Root    592 :    92.581050952750540
 Root    593 :    93.069407790484770
 Root    594 :    93.112165849515380
 Root    595 :    93.180005519939810
 Root    596 :    93.328800529072340
 Root    597 :    93.687592068341160
 Root    598 :    93.759036644530620
 Root    599 :    93.813199721769760
 Root    600 :    94.022524656823220
 Root    601 :    94.147650642229460
 Root    602 :    94.352827738584220
 Root    603 :    94.443687506428530
 Root    604 :    94.613387615675150
 Root    605 :    94.793651133787680
 Root    606 :    95.101737965667580
 Root    607 :    95.124210535873350
 Root    608 :    95.149906376702790
 Root    609 :    95.213055888735130
 Root    610 :    95.431391256240830
 Root    611 :    95.766193167130350
 Root    612 :    95.822700792014760
 Root    613 :    95.850004756864880
 Root    614 :    95.999792871968050
 Root    615 :    96.384624526885020
 Root    616 :    96.768383059017240
 Root    617 :    96.895246052802250
 Root    618 :    97.190957948547310
 Root    619 :    97.464263632819150
 Root    620 :    99.686507054833340
 Root    621 :   100.243317941263000
 Root    622 :   100.256161492443200
 Root    623 :   100.303571144877500
 Root    624 :   100.398550973673600
 Root    625 :   100.968138106190100
 Root    626 :   101.181720734089000
 Root    627 :   101.397667316988500
 Root    628 :   101.509585686470600
 Root    629 :   102.150476172259100
 Root    630 :   102.412396408209700
 Root    631 :   102.514819151218900
 Root    632 :   102.657384910147800
 Root    633 :   103.078613876166500
 Root    634 :   103.727053371520000
 Root    635 :   106.659889682351100
 Root    636 :   107.323740483686300
 Root    637 :   107.473917406316900
 Root    638 :   107.743724270277600
 Root    639 :   109.610953003492200
 Root    640 :   114.064032463464400
 Convergence achieved for final wavefunctions.
 ***********************************************************************
 Excited states from <AA,BB:AA,BB> singles matrix:
 ***********************************************************************
 
 1PDM for each excited state written to RWF  633
 Ground to excited state transition densities written to RWF  633
 Ground to excited state transition electric dipole moments (Au):
       state          X           Y           Z        Dip. S.      Osc.
         1         0.1375     -0.2285      0.0000      0.0711      0.0119
         2         0.5714     -0.0731     -0.0000      0.3318      0.0650
         3        -0.0000     -0.0000      0.1019      0.0104      0.0022
         4        -0.0612      0.1557      0.0000      0.0280      0.0061
         5        -0.4085      0.7615      0.0000      0.7468      0.1701
         6         0.0000      0.0000      0.4683      0.2193      0.0523
         7         0.0000      0.0000      0.6372      0.4061      0.0991
         8        -0.0376      0.0577     -0.0000      0.0047      0.0012
         9        -0.1108     -0.2469      0.0000      0.0732      0.0197
        10         0.0000      0.0000      0.5312      0.2822      0.0759
        11        -0.0000      0.0000      0.0424      0.0018      0.0005
        12        -0.0000     -0.0000     -0.0732      0.0054      0.0016
        13        -0.7316     -0.8900     -0.0000      1.3273      0.3956
        14         0.0000      0.0000     -0.1374      0.0189      0.0056
        15         0.0000     -0.0000     -0.4839      0.2341      0.0717
        16        -0.5990      0.4889     -0.0000      0.5978      0.1834
        17        -0.0000     -0.0000     -0.5326      0.2837      0.0883
        18         0.6702      0.3099     -0.0000      0.5452      0.1713
        19         0.0000      0.0000      0.1009      0.0102      0.0032
        20        -0.0000     -0.0000     -1.0120      1.0242      0.3260
        21        -0.1125     -0.0755      0.0000      0.0184      0.0058
        22        -0.7040      0.3851     -0.0000      0.6440      0.2095
        23         0.0000      0.0000     -0.9708      0.9425      0.3072
        24         0.0000      0.0000      0.5698      0.3247      0.1071
        25        -0.3157     -0.1491      0.0000      0.1219      0.0405
        26         0.2822      0.3064     -0.0000      0.1735      0.0585
        27        -0.0000     -0.0000     -0.3316      0.1100      0.0371
        28         0.0000      0.0000     -0.4028      0.1623      0.0554
        29        -0.2364     -0.2007     -0.0000      0.0961      0.0328
        30         0.0000     -0.0000      0.0505      0.0026      0.0009
        31         0.3466     -0.6069     -0.0000      0.4885      0.1704
        32        -0.0000      0.0000      0.0498      0.0025      0.0009
        33         0.2126      0.2663      0.0000      0.1161      0.0414
        34        -0.0000     -0.0000      0.0426      0.0018      0.0007
        35         0.1054      0.1137     -0.0000      0.0240      0.0087
        36        -0.4563     -0.6553     -0.0000      0.6376      0.2305
        37         0.2037      0.1899      0.0000      0.0775      0.0283
        38        -0.1160     -0.5393     -0.0000      0.3043      0.1118
        39         0.0000     -0.0000      0.3107      0.0965      0.0356
        40        -0.0000     -0.0000     -0.2973      0.0884      0.0326
        41        -0.0000     -0.0000      0.1168      0.0136      0.0050
        42        -0.0000     -0.0000     -0.4982      0.2482      0.0931
        43        -0.1898     -0.1446      0.0000      0.0569      0.0214
        44         0.1724     -0.4565     -0.0000      0.2381      0.0913
        45         0.1765      0.1832     -0.0000      0.0647      0.0250
        46         0.4814     -0.0715      0.0000      0.2369      0.0925
        47         0.2036     -0.0564      0.0000      0.0446      0.0176
        48         0.0000     -0.0000     -0.8211      0.6742      0.2665
        49         0.0000      0.0000      0.0872      0.0076      0.0030
        50         0.0000      0.0000      0.1016      0.0103      0.0041
        51         0.4344      0.4071      0.0000      0.3544      0.1420
        52        -0.0555      0.2696     -0.0000      0.0757      0.0305
        53        -0.0000     -0.0000      0.2184      0.0477      0.0193
        54        -0.1682      0.4409      0.0000      0.2227      0.0911
        55         0.0000     -0.0000      0.3121      0.0974      0.0399
        56        -0.5772      0.0751     -0.0000      0.3388      0.1395
        57         0.0000      0.0000     -0.6382      0.4074      0.1681
        58         0.0238     -0.0983     -0.0000      0.0102      0.0043
        59         0.4009      0.2454      0.0000      0.2210      0.0933
        60         0.0000     -0.0000      0.0912      0.0083      0.0035
        61         0.0000     -0.0000     -0.0816      0.0067      0.0029
        62        -0.0000     -0.0000      0.3085      0.0952      0.0420
        63         0.2605      0.0133      0.0000      0.0680      0.0302
        64        -0.1444     -0.0480     -0.0000      0.0231      0.0104
        65        -0.0000     -0.0000      0.1531      0.0234      0.0106
        66         0.0433      0.3055     -0.0000      0.0952      0.0431
        67        -0.1504      0.0822      0.0000      0.0294      0.0138
        68        -0.0000      0.0000      0.3951      0.1561      0.0749
        69         0.0700     -0.0986      0.0000      0.0146      0.0070
        70        -0.2637      0.7474      0.0000      0.6282      0.3053
        71        -0.0000      0.0000     -0.2037      0.0415      0.0204
        72         0.1391     -0.2228      0.0000      0.0690      0.0345
        73         0.2187     -0.0615     -0.0000      0.0516      0.0258
        74        -0.0000      0.0000     -0.1402      0.0196      0.0099
        75        -0.1336     -0.0963      0.0000      0.0271      0.0137
        76        -0.0000     -0.0000     -0.0501      0.0025      0.0013
        77        -0.0000     -0.0000     -0.0729      0.0053      0.0027
        78        -0.0000      0.0000      0.0877      0.0077      0.0040
        79        -0.1371      0.0359      0.0000      0.0201      0.0104
        80        -0.0000     -0.0000      0.0266      0.0007      0.0004
        81        -0.0799     -0.0071     -0.0000      0.0064      0.0034
        82        -0.0000     -0.0000      0.6281      0.3945      0.2090
        83        -0.0000     -0.0000      0.6016      0.3619      0.1928
        84         0.2927     -0.0776     -0.0000      0.0917      0.0488
        85         0.0000     -0.0000     -0.0652      0.0042      0.0023
        86        -0.5393     -0.0761     -0.0000      0.2967      0.1593
        87         0.0441     -0.1314     -0.0000      0.0192      0.0104
        88         0.0532      0.1307     -0.0000      0.0199      0.0109
        89        -0.0000      0.0000      0.0333      0.0011      0.0006
        90         0.0000      0.0000     -0.0749      0.0056      0.0031
        91         0.0686      0.3296     -0.0000      0.1133      0.0623
        92         0.0000      0.0000      0.1487      0.0221      0.0122
        93        -0.0000     -0.0000     -0.2030      0.0412      0.0228
        94         0.0000     -0.0000     -0.1445      0.0209      0.0116
        95         0.0197      0.1428     -0.0000      0.0208      0.0116
        96         0.1371      0.1764     -0.0000      0.0499      0.0279
        97         0.0000     -0.0000      0.1345      0.0181      0.0101
        98         0.3548      0.2363     -0.0000      0.1817      0.1023
        99         0.0000      0.0000     -0.2199      0.0484      0.0275
       100         0.2170     -0.2082     -0.0000      0.0904      0.0515
       101        -0.1849     -0.2126      0.0000      0.0794      0.0454
       102         0.0000      0.0000     -0.3178      0.1010      0.0578
       103        -0.0351      0.1515     -0.0000      0.0242      0.0139
       104         0.0000      0.0000      0.5343      0.2855      0.1647
       105        -0.0175      0.2519      0.0000      0.0637      0.0369
       106         0.0000     -0.0000      0.4859      0.2361      0.1372
       107        -0.3843     -0.4280     -0.0000      0.3308      0.1926
       108         0.0000     -0.0000     -0.2301      0.0530      0.0312
       109        -0.0000      0.0000      0.0422      0.0018      0.0011
       110         0.0873      0.1345      0.0000      0.0257      0.0152
       111        -0.0000      0.0000      0.1701      0.0289      0.0171
       112         0.0000     -0.0000     -0.1519      0.0231      0.0137
       113         0.2122     -0.3101      0.0000      0.1412      0.0838
       114         0.0000     -0.0000     -0.1557      0.0242      0.0145
       115        -0.1774      0.3672     -0.0000      0.1663      0.0995
       116        -0.0000      0.0000      0.0867      0.0075      0.0045
       117         0.0000     -0.0000      0.0394      0.0016      0.0009
       118         0.2596     -0.1771      0.0000      0.0987      0.0602
       119         0.5285     -0.2985     -0.0000      0.3685      0.2278
       120        -0.0000      0.0000      0.3891      0.1514      0.0940
       121         0.2222      0.1302     -0.0000      0.0663      0.0413
       122        -0.0000     -0.0000     -0.1033      0.0107      0.0067
       123         0.0804      0.0261     -0.0000      0.0071      0.0045
       124         0.0660     -0.0474     -0.0000      0.0066      0.0042
       125        -0.0000     -0.0000      0.0316      0.0010      0.0006
       126         0.0574      0.1513      0.0000      0.0262      0.0166
       127        -0.2497     -0.0482      0.0000      0.0647      0.0415
       128         0.0000     -0.0000     -0.2020      0.0408      0.0265
       129        -0.0048      0.3060     -0.0000      0.0936      0.0610
       130        -0.0000      0.0000      0.0528      0.0028      0.0018
       131         0.2412      0.0029      0.0000      0.0582      0.0381
       132        -0.2855     -0.3158      0.0000      0.1812      0.1193
       133        -0.1732     -0.1797     -0.0000      0.0623      0.0411
       134         0.0000      0.0000      0.0534      0.0029      0.0019
       135        -0.0000     -0.0000     -0.0255      0.0007      0.0004
       136        -0.0000     -0.0000     -0.0526      0.0028      0.0018
       137         0.0109      0.2439     -0.0000      0.0596      0.0397
       138        -0.0000     -0.0000     -0.1968      0.0387      0.0259
       139        -0.0606     -0.1995      0.0000      0.0435      0.0290
       140         0.1253     -0.1535      0.0000      0.0392      0.0263
       141        -0.0000     -0.0000      0.0926      0.0086      0.0058
       142        -0.0000      0.0000     -0.0326      0.0011      0.0007
       143         0.1131     -0.3245      0.0000      0.1181      0.0797
       144         0.0834     -0.0289     -0.0000      0.0078      0.0053
       145        -0.0525      0.2298     -0.0000      0.0556      0.0377
       146         0.0000     -0.0000     -0.2441      0.0596      0.0405
       147        -0.0657     -0.1412      0.0000      0.0243      0.0165
       148        -0.1390     -0.2131     -0.0000      0.0647      0.0442
       149         0.0249     -0.1022      0.0000      0.0111      0.0076
       150         0.0000     -0.0000     -0.0632      0.0040      0.0027
       151         0.3844     -0.0514      0.0000      0.1504      0.1036
       152        -0.0000     -0.0000     -0.0662      0.0044      0.0030
       153        -0.0000     -0.0000     -0.3519      0.1239      0.0860
       154         0.1202      0.0630     -0.0000      0.0184      0.0128
       155         0.0000     -0.0000     -0.0290      0.0008      0.0006
       156        -0.3785      0.1333      0.0000      0.1610      0.1123
       157         0.0000     -0.0000     -0.0443      0.0020      0.0014
       158        -0.2562      0.2432      0.0000      0.1248      0.0875
       159         0.0000     -0.0000      0.0573      0.0033      0.0023
       160         0.0000     -0.0000      0.0791      0.0063      0.0044
       161        -0.0311      0.4278     -0.0000      0.1840      0.1302
[...]
     16  -0.434506D+00  0.000000D+00  0.106340D+00  0.000000D+00  0.103875D+00
               571           572           573           574           575 
      1  -0.131779D+03 -0.131776D+03 -0.131771D+03 -0.131763D+03 -0.131758D+03
      2   0.000000D+00  0.331001D-01  0.000000D+00  0.736997D-02  0.000000D+00
      3   0.000000D+00  0.369722D-01  0.000000D+00 -0.393873D-01  0.000000D+00
      4   0.800889D-01  0.000000D+00  0.721189D-01  0.000000D+00  0.650803D-01
      5   0.000000D+00 -0.834698D-02  0.000000D+00 -0.171099D-01  0.000000D+00
      6   0.000000D+00 -0.104126D+00  0.000000D+00  0.127176D+00  0.000000D+00
      7  -0.192900D+00  0.000000D+00 -0.258942D+00  0.000000D+00 -0.216133D+00
      8   0.160630D+00  0.000000D+00 -0.464903D+00  0.000000D+00 -0.460715D+00
      9   0.132035D+00  0.000000D+00  0.333421D+00  0.000000D+00  0.174851D+00
     10   0.000000D+00  0.182772D+00  0.000000D+00 -0.197075D-01  0.000000D+00
     11   0.000000D+00  0.308216D-01  0.000000D+00 -0.197211D+00  0.000000D+00
     12   0.000000D+00  0.390218D+00  0.000000D+00  0.482417D+00  0.000000D+00
     13   0.000000D+00 -0.268092D-01  0.000000D+00  0.112140D+01  0.000000D+00
     14   0.000000D+00 -0.278023D+00  0.000000D+00  0.419915D-01  0.000000D+00
     15   0.271038D+00  0.000000D+00  0.486379D+00  0.000000D+00  0.171752D+00
     16  -0.788693D+00  0.000000D+00 -0.198612D-01  0.000000D+00  0.107630D+00
               576           577           578           579           580 
      1  -0.131755D+03 -0.131755D+03 -0.131744D+03 -0.131740D+03 -0.131739D+03
      2  -0.189049D-01  0.000000D+00  0.213159D-01  0.000000D+00  0.000000D+00
      3   0.529658D-02  0.000000D+00 -0.106358D-02  0.000000D+00  0.000000D+00
      4   0.000000D+00 -0.763619D-01  0.000000D+00 -0.481425D-01 -0.432923D-01
      5  -0.314325D-01  0.000000D+00 -0.541444D-01  0.000000D+00  0.000000D+00
      6  -0.641701D-01  0.000000D+00 -0.114246D-01  0.000000D+00  0.000000D+00
      7   0.000000D+00  0.169668D+00  0.000000D+00  0.150291D+00  0.102254D+00
      8   0.000000D+00 -0.458397D-02  0.000000D+00 -0.985422D-01 -0.219759D+00
      9   0.000000D+00  0.118671D+00  0.000000D+00  0.483370D+00  0.199624D+00
     10   0.791489D-01  0.000000D+00  0.530538D-01  0.000000D+00  0.000000D+00
     11   0.160488D+00  0.000000D+00 -0.693739D-02  0.000000D+00  0.000000D+00
     12  -0.672704D+00  0.000000D+00  0.541304D+00  0.000000D+00  0.000000D+00
     13   0.531422D+00  0.000000D+00 -0.154035D+00  0.000000D+00  0.000000D+00
     14  -0.880027D-01  0.000000D+00 -0.105562D+00  0.000000D+00  0.000000D+00
     15   0.000000D+00  0.302522D+00  0.000000D+00  0.380928D+00  0.112232D+00
     16   0.000000D+00  0.442613D+00  0.000000D+00 -0.106122D+00  0.180898D+00
               581           582           583           584           585 
      1  -0.131736D+03 -0.131726D+03 -0.131726D+03 -0.131717D+03 -0.131714D+03
      2  -0.169031D-01  0.000000D+00  0.151303D-01  0.274343D-01  0.970996D-01
      3   0.429375D-01  0.000000D+00  0.433982D-01 -0.712895D-01 -0.713572D-01
      4   0.000000D+00  0.107267D+00  0.000000D+00  0.000000D+00  0.000000D+00
      5   0.680508D-01  0.000000D+00 -0.515965D-01 -0.322224D-01 -0.253955D+00
      6  -0.822514D-01  0.000000D+00 -0.129036D+00  0.228394D+00  0.207445D+00
      7   0.000000D+00 -0.313010D+00  0.000000D+00  0.000000D+00  0.000000D+00
      8   0.000000D+00 -0.314213D+00  0.000000D+00  0.000000D+00  0.000000D+00
      9   0.000000D+00 -0.455662D+00  0.000000D+00  0.000000D+00  0.000000D+00
     10  -0.128430D-01  0.000000D+00  0.893509D-01  0.734904D-01  0.163092D+00
     11  -0.163510D+00  0.000000D+00 -0.106332D+00 -0.458608D-01 -0.166931D-01
     12   0.681069D-01  0.000000D+00 -0.105328D+00  0.198534D+00  0.211859D+00
     13  -0.134619D+00  0.000000D+00 -0.293453D+00 -0.371311D+00 -0.218007D+00
     14   0.114085D+00  0.000000D+00  0.389699D-02 -0.159844D+00 -0.196771D+00
     15   0.000000D+00 -0.528846D+00  0.000000D+00  0.000000D+00  0.000000D+00
     16   0.000000D+00 -0.265216D+00  0.000000D+00  0.000000D+00  0.000000D+00
               586           587           588           589           590 
      1  -0.131705D+03 -0.131699D+03 -0.131677D+03 -0.131674D+03 -0.131639D+03
      2   0.000000D+00  0.000000D+00  0.852398D-01  0.000000D+00 -0.152026D+00
      3   0.000000D+00  0.000000D+00  0.653745D-01  0.000000D+00  0.389267D-02
      4  -0.171829D-01 -0.483520D-01  0.000000D+00  0.130101D+00  0.000000D+00
      5   0.000000D+00  0.000000D+00 -0.239738D+00  0.000000D+00  0.416176D+00
      6   0.000000D+00  0.000000D+00 -0.182577D+00  0.000000D+00 -0.132473D-01
      7   0.593126D-01  0.151039D+00  0.000000D+00 -0.366630D+00  0.000000D+00
      8   0.933294D-01 -0.294825D+00  0.000000D+00  0.312744D+00  0.000000D+00
      9  -0.512305D+00 -0.305501D+00  0.000000D+00  0.624147D-02  0.000000D+00
     10   0.000000D+00  0.000000D+00  0.192593D+00  0.000000D+00 -0.527918D-01
     11   0.000000D+00  0.000000D+00  0.435955D-01  0.000000D+00  0.925624D-02
     12   0.000000D+00  0.000000D+00  0.655349D-01  0.000000D+00  0.252376D-01
     13   0.000000D+00  0.000000D+00  0.283032D+00  0.000000D+00  0.989516D-01
     14   0.000000D+00  0.000000D+00 -0.199429D+00  0.000000D+00  0.221262D+00
     15  -0.487530D+00 -0.350253D+00  0.000000D+00  0.484701D-01  0.000000D+00
     16  -0.493557D-01  0.179382D+00  0.000000D+00 -0.147853D+00  0.000000D+00
               591           592           593           594           595 
      1  -0.131628D+03 -0.131621D+03 -0.131603D+03 -0.131601D+03 -0.131599D+03
      2   0.000000D+00  0.138572D-01 -0.520390D-01  0.000000D+00  0.981381D-02
      3   0.000000D+00 -0.900530D-01 -0.285116D-01  0.000000D+00  0.253277D-01
      4   0.565924D-01  0.000000D+00  0.000000D+00 -0.361382D-01  0.000000D+00
      5   0.000000D+00 -0.820977D-01  0.159537D+00  0.000000D+00 -0.573164D-02
      6   0.000000D+00  0.264204D+00  0.622164D-01  0.000000D+00 -0.103090D+00
      7  -0.182687D+00  0.000000D+00  0.000000D+00  0.139304D+00  0.000000D+00
      8  -0.158287D+00  0.000000D+00  0.000000D+00 -0.549099D+00  0.000000D+00
      9   0.468663D+00  0.000000D+00  0.000000D+00  0.170720D+00  0.000000D+00
     10   0.000000D+00  0.170838D+00  0.253835D-01  0.000000D+00  0.221832D-01
     11   0.000000D+00  0.373660D-01  0.754629D-02  0.000000D+00  0.175133D-01
     12   0.000000D+00  0.786694D-01 -0.475516D+00  0.000000D+00 -0.507088D-02
     13   0.000000D+00  0.251678D+00 -0.454494D+00  0.000000D+00  0.384421D+00
     14   0.000000D+00 -0.264535D+00  0.413907D-01  0.000000D+00 -0.357766D-01
     15   0.349847D+00  0.000000D+00  0.000000D+00  0.136456D+00  0.000000D+00
     16   0.101754D-01  0.000000D+00  0.000000D+00  0.101525D+00  0.000000D+00
               596           597           598           599           600 
      1  -0.131593D+03 -0.131580D+03 -0.131577D+03 -0.131575D+03 -0.131568D+03
      2   0.745666D-02  0.000000D+00  0.000000D+00 -0.462305D-02  0.972593D-02
      3   0.374914D-01  0.000000D+00  0.000000D+00  0.918639D-01 -0.341355D-01
      4   0.000000D+00 -0.281556D-01 -0.100941D+00  0.000000D+00  0.000000D+00
      5  -0.185387D-01  0.000000D+00  0.000000D+00 -0.844068D-02 -0.294604D-01
      6  -0.122817D+00  0.000000D+00  0.000000D+00 -0.333703D+00  0.965553D-01
      7   0.000000D+00  0.105578D+00  0.327816D+00  0.000000D+00  0.000000D+00
      8   0.000000D+00 -0.157229D-01  0.885694D-01  0.000000D+00  0.000000D+00
      9   0.000000D+00 -0.169893D+00  0.287401D+00  0.000000D+00  0.000000D+00
     10   0.437697D-01  0.000000D+00  0.000000D+00  0.109433D+00  0.440931D-02
     11  -0.103405D+00  0.000000D+00  0.000000D+00  0.450697D-01  0.202813D+00
     12   0.649901D-01  0.000000D+00  0.000000D+00 -0.219732D+00 -0.160701D+00
     13   0.669333D+00  0.000000D+00  0.000000D+00 -0.936588D-01  0.269055D+00
     14   0.861966D-01  0.000000D+00  0.000000D+00 -0.726716D-01 -0.261255D-01
     15   0.000000D+00 -0.374387D-01  0.137961D+00  0.000000D+00  0.000000D+00
     16   0.000000D+00  0.249868D-01  0.535500D+00  0.000000D+00  0.000000D+00
               601           602           603           604           605 
      1  -0.131563D+03 -0.131555D+03 -0.131552D+03 -0.131546D+03 -0.131539D+03
      2   0.000000D+00 -0.741510D-02  0.279909D-01  0.000000D+00  0.000000D+00
      3   0.000000D+00 -0.420759D-01  0.109331D-01  0.000000D+00  0.000000D+00
      4   0.600417D-01  0.000000D+00  0.000000D+00 -0.514654D-01  0.383035D-01
      5   0.000000D+00  0.268040D-01 -0.963940D-01  0.000000D+00  0.000000D+00
      6   0.000000D+00  0.131736D+00 -0.502872D-01  0.000000D+00  0.000000D+00
      7  -0.190330D+00  0.000000D+00  0.000000D+00  0.157225D+00 -0.127441D+00
      8   0.405297D+00  0.000000D+00  0.000000D+00  0.229420D+00 -0.216539D+00
      9   0.205282D+00  0.000000D+00  0.000000D+00  0.159653D+00 -0.295962D+00
     10   0.000000D+00  0.264519D+00  0.145831D+00  0.000000D+00  0.000000D+00
     11   0.000000D+00 -0.421196D-01  0.118849D-01  0.000000D+00  0.000000D+00
     12   0.000000D+00  0.274798D+00  0.197564D+00  0.000000D+00  0.000000D+00
     13   0.000000D+00 -0.222094D-01  0.200316D+00  0.000000D+00  0.000000D+00
     14   0.000000D+00 -0.268835D+00 -0.208752D+00  0.000000D+00  0.000000D+00
     15   0.276159D+00  0.000000D+00  0.000000D+00  0.992934D-01 -0.268043D+00
     16  -0.376669D+00  0.000000D+00  0.000000D+00  0.816922D-02  0.232426D+00
               606           607           608           609           610 
      1  -0.131528D+03 -0.131527D+03 -0.131526D+03 -0.131524D+03 -0.131516D+03
      2  -0.117008D-01  0.310354D-01  0.000000D+00  0.539581D-02  0.000000D+00
      3  -0.152765D-01  0.630600D-01  0.000000D+00 -0.519553D-01  0.000000D+00
      4   0.000000D+00  0.000000D+00  0.144616D-01  0.000000D+00 -0.247850D-01
      5   0.550722D-01 -0.115764D+00  0.000000D+00  0.864042D-02  0.000000D+00
      6   0.686490D-01 -0.209537D+00  0.000000D+00  0.225889D+00  0.000000D+00
      7   0.000000D+00  0.000000D+00 -0.809253D-01  0.000000D+00  0.100110D+00
      8   0.000000D+00  0.000000D+00 -0.606288D+00  0.000000D+00  0.170579D+00
      9   0.000000D+00  0.000000D+00 -0.223942D+00  0.000000D+00 -0.340546D+00
     10  -0.878120D-01 -0.129333D+00  0.000000D+00 -0.196870D-01  0.000000D+00
     11   0.832548D-01 -0.681678D-01  0.000000D+00  0.910310D-01  0.000000D+00
     12  -0.132788D+00 -0.469826D+00  0.000000D+00  0.141434D+00  0.000000D+00
     13   0.936258D+00 -0.472081D-01  0.000000D+00 -0.280254D+00  0.000000D+00
     14   0.990721D-02  0.165629D+00  0.000000D+00 -0.500228D-01  0.000000D+00
     15   0.000000D+00  0.000000D+00 -0.207725D+00  0.000000D+00 -0.268069D+00
     16   0.000000D+00  0.000000D+00  0.511624D+00  0.000000D+00  0.196665D+00
               611           612           613           614           615 
      1  -0.131504D+03 -0.131501D+03 -0.131500D+03 -0.131495D+03 -0.131481D+03
      2   0.000000D+00  0.000000D+00 -0.271557D-01 -0.129293D-01  0.124543D-01
      3   0.000000D+00  0.000000D+00  0.463323D-01  0.165005D+00 -0.831263D-01
      4   0.994941D-02  0.994599D-02  0.000000D+00  0.000000D+00  0.000000D+00
      5   0.000000D+00  0.000000D+00  0.390767D-01  0.973709D-02 -0.402862D-01
      6   0.000000D+00  0.000000D+00 -0.133097D+00 -0.508601D+00  0.278242D+00
      7  -0.292893D-01 -0.259845D-01  0.000000D+00  0.000000D+00  0.000000D+00
      8  -0.987816D-01 -0.157522D+00  0.000000D+00  0.000000D+00  0.000000D+00
      9  -0.202397D+00  0.635459D-01  0.000000D+00  0.000000D+00  0.000000D+00
     10   0.000000D+00  0.000000D+00  0.168525D+00  0.711744D-01  0.589874D-02
     11   0.000000D+00  0.000000D+00  0.181639D+00 -0.143033D+00  0.178632D-01
     12   0.000000D+00  0.000000D+00 -0.654158D+00 -0.477240D+00  0.537608D+00
     13   0.000000D+00  0.000000D+00  0.238056D+00 -0.185629D+00 -0.565878D+00
     14   0.000000D+00  0.000000D+00 -0.133452D+00  0.281384D-02 -0.105659D+00
     15  -0.266001D+00 -0.132959D+00  0.000000D+00  0.000000D+00  0.000000D+00
     16   0.310186D+00 -0.317486D-01  0.000000D+00  0.000000D+00  0.000000D+00
               616           617           618           619           620 
      1  -0.131467D+03 -0.131462D+03 -0.131451D+03 -0.131441D+03 -0.131359D+03
      2   0.000000D+00  0.356764D-03  0.000000D+00  0.000000D+00  0.000000D+00
      3   0.000000D+00 -0.143760D-01  0.000000D+00  0.000000D+00  0.000000D+00
      4   0.395399D-01  0.000000D+00  0.919964D-01  0.147851D-01 -0.288037D-01
      5   0.000000D+00 -0.158644D-02  0.000000D+00  0.000000D+00  0.000000D+00
      6   0.000000D+00  0.105805D+00  0.000000D+00  0.000000D+00  0.000000D+00
      7  -0.134589D+00  0.000000D+00 -0.343879D+00 -0.483425D-01  0.892236D-01
      8  -0.303264D+00  0.000000D+00 -0.509514D+00 -0.104646D+00 -0.668964D-01
      9   0.565183D+00  0.000000D+00 -0.207503D+00 -0.797149D-01  0.835698D-02
     10   0.000000D+00  0.537130D-01  0.000000D+00  0.000000D+00  0.000000D+00
     11   0.000000D+00 -0.901227D-01  0.000000D+00  0.000000D+00  0.000000D+00
     12   0.000000D+00  0.891773D+00  0.000000D+00  0.000000D+00  0.000000D+00
     13   0.000000D+00 -0.101452D+01  0.000000D+00  0.000000D+00  0.000000D+00
     14   0.000000D+00 -0.118450D+00  0.000000D+00  0.000000D+00  0.000000D+00
     15   0.759163D+00  0.000000D+00 -0.110100D+00 -0.668398D-01 -0.121495D-01
     16   0.299156D+00  0.000000D+00 -0.485535D-01 -0.478409D-01 -0.252953D+00
               621           622           623           624           625 
      1  -0.131339D+03 -0.131339D+03 -0.131337D+03 -0.131333D+03 -0.131312D+03
      2   0.104128D+00  0.000000D+00 -0.911874D-01  0.517576D-01  0.000000D+00
      3   0.543399D-01  0.000000D+00  0.667098D-02 -0.385363D-01  0.000000D+00
      4   0.000000D+00  0.955520D-01  0.000000D+00  0.000000D+00  0.244005D-02
      5  -0.341723D+00  0.000000D+00  0.287905D+00 -0.150777D+00  0.000000D+00
      6  -0.162967D+00  0.000000D+00 -0.304072D-01  0.830107D-01  0.000000D+00
      7   0.000000D+00 -0.318314D+00  0.000000D+00  0.000000D+00 -0.174722D-02
      8   0.000000D+00 -0.316298D+00  0.000000D+00  0.000000D+00  0.210722D+00
      9   0.000000D+00  0.420781D-01  0.000000D+00  0.000000D+00  0.554078D-03
     10   0.284611D+00  0.000000D+00 -0.982728D-01 -0.393335D-02  0.000000D+00
     11   0.142321D+00  0.000000D+00  0.724287D-02 -0.112658D+00  0.000000D+00
     12  -0.345601D+00  0.000000D+00 -0.286632D-01  0.312507D-01  0.000000D+00
     13   0.450147D-01  0.000000D+00  0.384325D+00  0.590329D-02  0.000000D+00
     14  -0.152257D+00  0.000000D+00  0.120044D+00  0.413741D-01  0.000000D+00
     15   0.000000D+00  0.135947D+00  0.000000D+00  0.000000D+00 -0.741722D-01
     16   0.000000D+00 -0.158784D+00  0.000000D+00  0.000000D+00  0.544606D+00
               626           627           628           629           630 
      1  -0.131305D+03 -0.131297D+03 -0.131292D+03 -0.131269D+03 -0.131259D+03
      2   0.000000D+00  0.000000D+00  0.225195D-01  0.000000D+00 -0.354951D-01
      3   0.000000D+00  0.000000D+00  0.222410D-01  0.000000D+00  0.917280D-02
      4  -0.996099D-02 -0.348890D-01  0.000000D+00  0.928782D-01  0.000000D+00
      5   0.000000D+00  0.000000D+00 -0.555386D-01  0.000000D+00  0.103189D+00
      6   0.000000D+00  0.000000D+00 -0.649919D-01  0.000000D+00 -0.435580D-01
      7   0.145730D-01  0.103967D+00  0.000000D+00 -0.336028D+00  0.000000D+00
      8  -0.732047D-01 -0.670259D+00  0.000000D+00 -0.426984D+00  0.000000D+00
      9   0.190462D+00  0.308561D-01  0.000000D+00 -0.527937D-01  0.000000D+00
     10   0.000000D+00  0.000000D+00 -0.260505D+00  0.000000D+00  0.301764D-01
     11   0.000000D+00  0.000000D+00  0.308626D-01  0.000000D+00 -0.345907D-01
     12   0.000000D+00  0.000000D+00 -0.123952D+00  0.000000D+00 -0.280984D+00
     13   0.000000D+00  0.000000D+00 -0.185416D+00  0.000000D+00 -0.595373D+00
     14   0.000000D+00  0.000000D+00  0.726159D-01  0.000000D+00  0.117502D+00
     15   0.345525D+00  0.430575D-01  0.000000D+00  0.133161D-01  0.000000D+00
     16   0.308985D-01  0.424662D+00  0.000000D+00 -0.244091D+00  0.000000D+00
               631           632           633           634           635 
      1  -0.131256D+03 -0.131250D+03 -0.131235D+03 -0.131211D+03 -0.131103D+03
      2  -0.830200D-02  0.000000D+00  0.115130D-01 -0.738904D-01  0.000000D+00
      3   0.194119D-01  0.000000D+00 -0.203195D-01 -0.651795D-01  0.000000D+00
      4   0.000000D+00 -0.228039D-01  0.000000D+00  0.000000D+00  0.222580D-01
      5   0.356898D-01  0.000000D+00 -0.331147D-01  0.274993D+00  0.000000D+00
      6  -0.856999D-01  0.000000D+00  0.842407D-01  0.186792D+00  0.000000D+00
      7   0.000000D+00  0.803936D-01  0.000000D+00  0.000000D+00 -0.323095D-01
      8   0.000000D+00  0.142307D+00  0.000000D+00  0.000000D+00  0.520963D-01
      9   0.000000D+00 -0.654438D-01  0.000000D+00  0.000000D+00 -0.318796D+00
     10  -0.132811D-01  0.000000D+00  0.267076D-01 -0.395146D+00  0.000000D+00
     11  -0.141052D+00  0.000000D+00 -0.788731D-01 -0.204078D+00  0.000000D+00
     12  -0.139230D+00  0.000000D+00  0.434365D+00  0.635781D+00  0.000000D+00
     13   0.877174D-01  0.000000D+00  0.755358D+00  0.171159D+00  0.000000D+00
     14   0.605624D-01  0.000000D+00 -0.235588D-02  0.297832D+00  0.000000D+00
     15   0.000000D+00 -0.577220D-01  0.000000D+00  0.000000D+00 -0.300411D+00
     16   0.000000D+00  0.633863D-01  0.000000D+00  0.000000D+00 -0.199143D-01
               636           637           638           639           640 
      1  -0.131079D+03 -0.131073D+03 -0.131063D+03 -0.130995D+03 -0.130831D+03
      2   0.505027D-02  0.145636D-01  0.000000D+00  0.000000D+00 -0.595002D-01
      3   0.354099D-01  0.385562D-02  0.000000D+00  0.000000D+00 -0.533187D-01
      4   0.000000D+00  0.000000D+00 -0.547712D-01 -0.171723D-01  0.000000D+00
      5  -0.999680D-02 -0.419538D-01  0.000000D+00  0.000000D+00  0.205275D+00
      6  -0.101267D+00 -0.735920D-02  0.000000D+00  0.000000D+00  0.157150D+00
      7   0.000000D+00  0.000000D+00  0.124123D+00  0.788005D-01  0.000000D+00
      8   0.000000D+00  0.000000D+00  0.519644D-01 -0.128378D-02  0.000000D+00
      9   0.000000D+00  0.000000D+00 -0.155856D+00  0.110347D+00  0.000000D+00
     10  -0.225448D-01  0.183569D-01  0.000000D+00  0.000000D+00 -0.170416D+00
     11  -0.110399D+00  0.429355D-01  0.000000D+00  0.000000D+00 -0.769805D-01
     12   0.276002D+00  0.108581D-01  0.000000D+00  0.000000D+00  0.300268D+00
     13  -0.217590D+00  0.506544D+00  0.000000D+00  0.000000D+00  0.150770D-01
     14   0.302625D-01 -0.750733D-01  0.000000D+00  0.000000D+00  0.592783D-01
     15   0.000000D+00  0.000000D+00 -0.206894D+00  0.585984D-01  0.000000D+00
     16   0.000000D+00  0.000000D+00  0.925719D-01  0.362963D+00  0.000000D+00
 Unable to Open any file for archive entry.
 1\1\GINC-HEL13\SP\RwB97XD TD-FC\def2SVP\C2H7N1\PRAKRITI\14-Aug-2021\0\
 \#P TD(Nstates=10000) wB97XD/def2SVP SCF(maxcycles=100) Int(Grid=ultra
 fine)\\xGDB7_00001_tier4.com\\0,1\C,0,-0.026047,-0.217143,1.209876\N,0
 ,-0.026047,0.570772,0.\C,0,-0.026047,-0.217143,-1.209876\H,0,0.013735,
 0.440621,2.090832\H,0,0.813545,-0.943661,1.286149\H,0,-0.961368,-0.797
 172,1.277991\H,0,0.763067,1.210735,0.\H,0,-0.961368,-0.797172,-1.27799
 1\H,0,0.813545,-0.943661,-1.286149\H,0,0.013735,0.440621,-2.090832\\Ve
 rsion=EM64L-G16RevC.01\State=1-A'\HF=-135.0228934\RMSD=4.883e-09\PG=CS
  [SG(H1N1),X(C2H6)]\\@
 The archive entry for this job was punched.


 IN THE UNIVERSE THE DIFFICULT THINGS ARE DONE AS IF THEY WERE EASY.

                                                          -- LAO-TSU
 Job cpu time:       0 days  0 hours  4 minutes 33.2 seconds.
 Elapsed time:       0 days  0 hours  0 minutes 34.4 seconds.
 File lengths (MBytes):  RWF=    519 Int=      0 D2E=      0 Chk=     99 Scr=      1
 Normal termination of Gaussian 16 at Sat Aug 14 07:23:29 2021.
