 Entering Gaussian System, Link 0=g16
 Input=xGDB7_000024_TDDFT.com
 Output=xGDB7_000024_TDDFT.log
 Initial command:
 /home/prakriti/g16/l1.exe "/scratch/prakriti/PBS_7434534.helios/Gau-180921.inp" -scrdir="/scratch/prakriti/PBS_7434534.helios/"
 Entering Link 1 = /home/prakriti/g16/l1.exe PID=    180922.
  
 Copyright (c) 1988-2019, Gaussian, Inc.  All Rights Reserved.
  
 This is part of the Gaussian(R) 16 program.  It is based on
 the Gaussian(R) 09 system (copyright 2009, Gaussian, Inc.),
 the Gaussian(R) 03 system (copyright 2003, Gaussian, Inc.),
 the Gaussian(R) 98 system (copyright 1998, Gaussian, Inc.),
 the Gaussian(R) 94 system (copyright 1995, Gaussian, Inc.),
 the Gaussian 92(TM) system (copyright 1992, Gaussian, Inc.),
 the Gaussian 90(TM) system (copyright 1990, Gaussian, Inc.),
 the Gaussian 88(TM) system (copyright 1988, Gaussian, Inc.),
 the Gaussian 86(TM) system (copyright 1986, Carnegie Mellon
 University), and the Gaussian 82(TM) system (copyright 1983,
 Carnegie Mellon University). Gaussian is a federally registered
 trademark of Gaussian, Inc.
  
 This software contains proprietary and confidential information,
 including trade secrets, belonging to Gaussian, Inc.
  
 This software is provided under written license and may be
 used, copied, transmitted, or stored only in accord with that
 written license.
  
 The following legend is applicable only to US Government
 contracts under FAR:
  
                    RESTRICTED RIGHTS LEGEND
  
 Use, reproduction and disclosure by the US Government is
 subject to restrictions as set forth in subparagraphs (a)
 and (c) of the Commercial Computer Software - Restricted
 Rights clause in FAR 52.227-19.
  
 Gaussian, Inc.
 340 Quinnipiac St., Bldg. 40, Wallingford CT 06492
  
  
 ---------------------------------------------------------------
 Warning -- This program may not be used in any manner that
 competes with the business of Gaussian, Inc. or will provide
 assistance to any competitor of Gaussian, Inc.  The licensee
 of this program is prohibited from giving any competitor of
 Gaussian, Inc. access to this program.  By using this program,
 the user acknowledges that Gaussian, Inc. is engaged in the
 business of creating and licensing software in the field of
 computational chemistry and represents and warrants to the
 licensee that it is not a competitor of Gaussian, Inc. and that
 it will not use this program in any manner prohibited above.
 ---------------------------------------------------------------
  

 Cite this work as:
 Gaussian 16, Revision C.01,
 M. J. Frisch, G. W. Trucks, H. B. Schlegel, G. E. Scuseria, 
 M. A. Robb, J. R. Cheeseman, G. Scalmani, V. Barone, 
 G. A. Petersson, H. Nakatsuji, X. Li, M. Caricato, A. V. Marenich, 
 J. Bloino, B. G. Janesko, R. Gomperts, B. Mennucci, H. P. Hratchian, 
 J. V. Ortiz, A. F. Izmaylov, J. L. Sonnenberg, D. Williams-Young, 
 F. Ding, F. Lipparini, F. Egidi, J. Goings, B. Peng, A. Petrone, 
 T. Henderson, D. Ranasinghe, V. G. Zakrzewski, J. Gao, N. Rega, 
 G. Zheng, W. Liang, M. Hada, M. Ehara, K. Toyota, R. Fukuda, 
 J. Hasegawa, M. Ishida, T. Nakajima, Y. Honda, O. Kitao, H. Nakai, 
 T. Vreven, K. Throssell, J. A. Montgomery, Jr., J. E. Peralta, 
 F. Ogliaro, M. J. Bearpark, J. J. Heyd, E. N. Brothers, K. N. Kudin, 
 V. N. Staroverov, T. A. Keith, R. Kobayashi, J. Normand, 
 K. Raghavachari, A. P. Rendell, J. C. Burant, S. S. Iyengar, 
 J. Tomasi, M. Cossi, J. M. Millam, M. Klene, C. Adamo, R. Cammi, 
 J. W. Ochterski, R. L. Martin, K. Morokuma, O. Farkas, 
 J. B. Foresman, and D. J. Fox, Gaussian, Inc., Wallingford CT, 2019.
 
 ******************************************
 Gaussian 16:  EM64L-G16RevC.01  3-Jul-2019
                14-Aug-2021 
 ******************************************
 %mem=8gb
 %nproc=8
 Will use up to    8 processors via shared memory.
 ----------------------------------------------------------------------
 #P TD(Nstates=10000) wB97XD/def2SVP SCF(maxcycles=100) Int(Grid=ultraf
 ine)
 ----------------------------------------------------------------------
 1/38=1,172=1/1;
 2/12=2,17=6,18=5,40=1/2;
 3/5=43,7=101,11=9,25=1,30=1,74=-58,75=-5/1,2,3,8;
 4//1;
 5/5=2,7=100,38=5/2;
 8/6=1,10=1,108=10000/1;
 9/41=10000,42=1,70=2/14;
 6/7=2,8=2,9=2,10=2/1;
 99/5=1,9=1/99;
 Leave Link    1 at Sat Aug 14 23:24:19 2021, MaxMem=  1073741824 cpu:               0.3 elap:               0.0
 (Enter /home/prakriti/g16/l101.exe)
 ---------------------
 xGDB7_00001_tier4.com
 ---------------------
 Symbolic Z-matrix:
 Charge =  0 Multiplicity = 1
 7                     1.11289  -0.17641  -0.04524 
 6                    -0.12248   0.41799   0.00113 
 7                    -1.27401  -0.1209    0.00727 
 1                     1.93538   0.37354   0.15646 
 1                     1.19315  -1.1749    0.0979 
 1                    -0.0624    1.51868   0.00353 
 1                    -1.20344  -1.14413   0.00114 
 
 ITRead=  0  0  0  0  0  0  0
 MicOpt= -1 -1 -1 -1 -1 -1 -1
 NAtoms=      7 NQM=        7 NQMF=       0 NMMI=      0 NMMIF=      0
                NMic=       0 NMicF=      0.
                    Isotopes and Nuclear Properties:
 (Nuclear quadrupole moments (NQMom) in fm**2, nuclear magnetic moments (NMagM)
  in nuclear magnetons)

  Atom         1           2           3           4           5           6           7
 IAtWgt=          14          12          14           1           1           1           1
 AtmWgt=  14.0030740  12.0000000  14.0030740   1.0078250   1.0078250   1.0078250   1.0078250
 NucSpn=           2           0           2           1           1           1           1
 AtZEff=  -0.0000000  -0.0000000  -0.0000000  -0.0000000  -0.0000000  -0.0000000  -0.0000000
 NQMom=    2.0440000   0.0000000   2.0440000   0.0000000   0.0000000   0.0000000   0.0000000
 NMagM=    0.4037610   0.0000000   0.4037610   2.7928460   2.7928460   2.7928460   2.7928460
 AtZNuc=   7.0000000   6.0000000   7.0000000   1.0000000   1.0000000   1.0000000   1.0000000
 Leave Link  101 at Sat Aug 14 23:24:19 2021, MaxMem=  1073741824 cpu:               0.6 elap:               0.1
 (Enter /home/prakriti/g16/l202.exe)
                          Input orientation:                          
 ---------------------------------------------------------------------
 Center     Atomic      Atomic             Coordinates (Angstroms)
 Number     Number       Type             X           Y           Z
 ---------------------------------------------------------------------
      1          7           0        1.112891   -0.176405   -0.045235
      2          6           0       -0.122478    0.417990    0.001125
      3          7           0       -1.274011   -0.120898    0.007267
      4          1           0        1.935384    0.373536    0.156455
      5          1           0        1.193153   -1.174898    0.097903
      6          1           0       -0.062396    1.518676    0.003527
      7          1           0       -1.203435   -1.144133    0.001137
 ---------------------------------------------------------------------
                    Distance matrix (angstroms):
                    1          2          3          4          5
     1  N    0.000000
     2  C    1.371711   0.000000
     3  N    2.388125   1.271403   0.000000
     4  H    1.009757   2.064195   3.250683   0.000000
     5  H    1.011889   2.068222   2.684405   1.718134   0.000000
     6  H    2.063244   1.102327   2.038683   2.307782   2.973323
     7  H    2.510780   1.899657   1.025684   3.489932   2.398738
                    6          7
     6  H    0.000000
     7  H    2.896986   0.000000
 Stoichiometry    CH4N2
 Framework group  C1[X(CH4N2)]
 Deg. of freedom    15
 Full point group                 C1      NOp   1
 Largest Abelian subgroup         C1      NOp   1
 Largest concise Abelian subgroup C1      NOp   1
                         Standard orientation:                         
 ---------------------------------------------------------------------
 Center     Atomic      Atomic             Coordinates (Angstroms)
 Number     Number       Type             X           Y           Z
 ---------------------------------------------------------------------
      1          7           0        1.112891   -0.176405   -0.045235
      2          6           0       -0.122478    0.417990    0.001125
      3          7           0       -1.274011   -0.120898    0.007267
      4          1           0        1.935384    0.373535    0.156455
      5          1           0        1.193153   -1.174898    0.097903
      6          1           0       -0.062395    1.518676    0.003527
      7          1           0       -1.203435   -1.144133    0.001137
 ---------------------------------------------------------------------
 Rotational constants (GHZ):          63.5043508          10.7715528           9.2289843
 Leave Link  202 at Sat Aug 14 23:24:19 2021, MaxMem=  1073741824 cpu:               0.1 elap:               0.0
 (Enter /home/prakriti/g16/l301.exe)
 Standard basis: def2SVP (5D, 7F)
 Ernie: Thresh=  0.10000D-02 Tol=  0.10000D-05 Strict=F.
 There are    65 symmetry adapted cartesian basis functions of A   symmetry.
 There are    62 symmetry adapted basis functions of A   symmetry.
    62 basis functions,   103 primitive gaussians,    65 cartesian basis functions
    12 alpha electrons       12 beta electrons
       nuclear repulsion energy        71.9844694832 Hartrees.
 IExCor= 4639 DFT=T Ex+Corr=wB97XD ExCW=0 ScaHFX=  1.000000
 ScaDFX=  1.000000  1.000000  1.000000  1.000000 ScalE2=  1.000000  1.000000
 IRadAn=      5 IRanWt=     -1 IRanGd=            0 ICorTp=0 IEmpDi=121
 HFx  wShort=  0.000000 wLong=  0.200000 cFull=  0.222036 cShort=  0.000000 cLong=  0.777964
 DFx  wShort=  0.000000 wLong=  0.200000 cFull=  0.000000 cShort=  0.000000 cLong=  1.000000
 NAtoms=    7 NActive=    7 NUniq=    7 SFac= 1.00D+00 NAtFMM=   60 NAOKFM=F Big=F
 Integral buffers will be    131072 words long.
 Raffenetti 1 integral format.
 Two-electron integral symmetry is turned on.
 R6Disp:  Grimme-D2 Dispersion energy=       -0.0013057925 Hartrees.
 Nuclear repulsion after empirical dispersion term =       71.9831636908 Hartrees.
 Leave Link  301 at Sat Aug 14 23:24:19 2021, MaxMem=  1073741824 cpu:               0.4 elap:               0.1
 (Enter /home/prakriti/g16/l302.exe)
 NPDir=0 NMtPBC=     1 NCelOv=     1 NCel=       1 NClECP=     1 NCelD=      1
         NCelK=      1 NCelE2=     1 NClLst=     1 CellRange=     0.0.
 One-electron integrals computed using PRISM.
 One-electron integral symmetry used in STVInt
   1 Symmetry operations used in ECPInt.
 ECPInt:  NShTT=     465 NPrTT=    1647 LenC2=     466 LenP2D=    1502.
 LDataN:  DoStor=T MaxTD1= 4 Len=   56
 NBasis=    62 RedAO= T EigKep=  6.08D-03  NBF=    62
 NBsUse=    62 1.00D-06 EigRej= -1.00D+00 NBFU=    62
 Precomputing XC quadrature grid using
 IXCGrd= 4 IRadAn=           5 IRanWt=          -1 IRanGd=           0 AccXCQ= 0.00D+00.
 Generated NRdTot=       0 NPtTot=           0 NUsed=           0 NTot=          32
 NSgBfM=    65    65    65    65    65 MxSgAt=     7 MxSgA2=     7.
 Leave Link  302 at Sat Aug 14 23:24:19 2021, MaxMem=  1073741824 cpu:               1.0 elap:               0.1
 (Enter /home/prakriti/g16/l303.exe)
 DipDrv:  MaxL=1.
 Leave Link  303 at Sat Aug 14 23:24:19 2021, MaxMem=  1073741824 cpu:               0.2 elap:               0.0
 (Enter /home/prakriti/g16/l308.exe)
 Leave Link  308 at Sat Aug 14 23:24:19 2021, MaxMem=  1073741824 cpu:               0.2 elap:               0.0
 (Enter /home/prakriti/g16/l401.exe)
 ExpMin= 1.22D-01 ExpMax= 1.71D+03 ExpMxC= 2.58D+02 IAcc=3 IRadAn=         5 AccDes= 0.00D+00
 Harris functional with IExCor= 4639 and IRadAn=       5 diagonalized for initial guess.
 HarFok:  IExCor= 4639 AccDes= 0.00D+00 IRadAn=         5 IDoV= 1 UseB2=F ITyADJ=14
 ICtDFT=  3500011 ScaDFX=  1.000000  1.000000  1.000000  1.000000
 FoFCou: FMM=F IPFlag=           0 FMFlag=      100000 FMFlg1=           0
         NFxFlg=           0 DoJE=T BraDBF=F KetDBF=T FulRan=T
         wScrn=  0.000000 ICntrl=       500 IOpCl=  0 I1Cent=   200000004 NGrid=           0
         NMat0=    1 NMatS0=      1 NMatT0=    0 NMatD0=    1 NMtDS0=    0 NMtDT0=    0
 Petite list used in FoFCou.
 Harris En= -143.469063103388    
 JPrj=0 DoOrth=F DoCkMO=F.
 Leave Link  401 at Sat Aug 14 23:24:20 2021, MaxMem=  1073741824 cpu:               2.2 elap:               0.3
 (Enter /home/prakriti/g16/l502.exe)
 Keep R1 ints in memory in canonical form, NReq=11056438.
 FoFCou: FMM=F IPFlag=           0 FMFlag=           0 FMFlg1=           0
         NFxFlg=           0 DoJE=F BraDBF=F KetDBF=F FulRan=T
         wScrn=  0.000000 ICntrl=       600 IOpCl=  0 I1Cent=           0 NGrid=           0
         NMat0=    1 NMatS0=   1953 NMatT0=    0 NMatD0=    1 NMtDS0=    0 NMtDT0=    0
 Symmetry not used in FoFCou.
 Two-electron integral symmetry not used.
 Closed shell SCF:
 Using DIIS extrapolation, IDIIS=  1040.
 NGot=  1073741824 LenX=  1069915680 LenY=  1069911014
 Requested convergence on RMS density matrix=1.00D-08 within 100 cycles.
 Requested convergence on MAX density matrix=1.00D-06.
 Requested convergence on             energy=1.00D-06.
 No special actions if energy rises.
 Integral accuracy reduced to 1.0D-05 until final iterations.

 Cycle   1  Pass 0  IDiag  1:
 E= -149.816827628643    
 DIIS: error= 3.01D-02 at cycle   1 NSaved=   1.
 NSaved= 1 IEnMin= 1 EnMin= -149.816827628643     IErMin= 1 ErrMin= 3.01D-02
 ErrMax= 3.01D-02  0.00D+00 EMaxC= 1.00D-01 BMatC= 5.93D-02 BMatP= 5.93D-02
 IDIUse=3 WtCom= 6.99D-01 WtEn= 3.01D-01
 Coeff-Com:  0.100D+01
 Coeff-En:   0.100D+01
 Coeff:      0.100D+01
 Gap=     0.446 Goal=   None    Shift=    0.000
 GapD=    0.446 DampG=2.000 DampE=0.500 DampFc=1.0000 IDamp=-1.
 RMSDP=4.47D-03 MaxDP=4.85D-02              OVMax= 1.13D-01

 Cycle   2  Pass 0  IDiag  1:
 E= -149.826571218983     Delta-E=       -0.009743590340 Rises=F Damp=F
 DIIS: error= 1.65D-02 at cycle   2 NSaved=   2.
 NSaved= 2 IEnMin= 2 EnMin= -149.826571218983     IErMin= 2 ErrMin= 1.65D-02
 ErrMax= 1.65D-02  0.00D+00 EMaxC= 1.00D-01 BMatC= 1.75D-02 BMatP= 5.93D-02
 IDIUse=3 WtCom= 8.35D-01 WtEn= 1.65D-01
 Coeff-Com:  0.288D+00 0.712D+00
 Coeff-En:   0.305D+00 0.695D+00
 Coeff:      0.291D+00 0.709D+00
 Gap=     0.492 Goal=   None    Shift=    0.000
 RMSDP=2.67D-03 MaxDP=4.47D-02 DE=-9.74D-03 OVMax= 7.09D-02

 Cycle   3  Pass 0  IDiag  1:
 E= -149.834806701620     Delta-E=       -0.008235482637 Rises=F Damp=F
 DIIS: error= 1.20D-02 at cycle   3 NSaved=   3.
 NSaved= 3 IEnMin= 3 EnMin= -149.834806701620     IErMin= 3 ErrMin= 1.20D-02
 ErrMax= 1.20D-02  0.00D+00 EMaxC= 1.00D-01 BMatC= 7.83D-03 BMatP= 1.75D-02
 IDIUse=3 WtCom= 8.80D-01 WtEn= 1.20D-01
 Coeff-Com:  0.294D-02 0.400D+00 0.597D+00
 Coeff-En:   0.000D+00 0.326D+00 0.674D+00
 Coeff:      0.259D-02 0.391D+00 0.607D+00
 Gap=     0.440 Goal=   None    Shift=    0.000
 RMSDP=1.08D-03 MaxDP=2.17D-02 DE=-8.24D-03 OVMax= 3.64D-02

 Cycle   4  Pass 0  IDiag  1:
 E= -149.841537100143     Delta-E=       -0.006730398524 Rises=F Damp=F
 DIIS: error= 5.01D-04 at cycle   4 NSaved=   4.
 NSaved= 4 IEnMin= 4 EnMin= -149.841537100143     IErMin= 4 ErrMin= 5.01D-04
 ErrMax= 5.01D-04  0.00D+00 EMaxC= 1.00D-01 BMatC= 3.11D-05 BMatP= 7.83D-03
 IDIUse=3 WtCom= 9.95D-01 WtEn= 5.01D-03
 Coeff-Com: -0.303D-02 0.351D-01 0.968D-01 0.871D+00
 Coeff-En:   0.000D+00 0.000D+00 0.000D+00 0.100D+01
 Coeff:     -0.302D-02 0.349D-01 0.963D-01 0.872D+00
 Gap=     0.440 Goal=   None    Shift=    0.000
 RMSDP=1.31D-04 MaxDP=1.94D-03 DE=-6.73D-03 OVMax= 2.15D-03

 Cycle   5  Pass 0  IDiag  1:
 E= -149.841570073781     Delta-E=       -0.000032973637 Rises=F Damp=F
 DIIS: error= 1.84D-04 at cycle   5 NSaved=   5.
 NSaved= 5 IEnMin= 5 EnMin= -149.841570073781     IErMin= 5 ErrMin= 1.84D-04
 ErrMax= 1.84D-04  0.00D+00 EMaxC= 1.00D-01 BMatC= 3.17D-06 BMatP= 3.11D-05
 IDIUse=3 WtCom= 9.98D-01 WtEn= 1.84D-03
 Coeff-Com: -0.383D-03-0.273D-01-0.251D-01 0.224D+00 0.829D+00
 Coeff-En:   0.000D+00 0.000D+00 0.000D+00 0.000D+00 0.100D+01
 Coeff:     -0.382D-03-0.272D-01-0.251D-01 0.223D+00 0.830D+00
 Gap=     0.440 Goal=   None    Shift=    0.000
 RMSDP=5.10D-05 MaxDP=6.16D-04 DE=-3.30D-05 OVMax= 1.03D-03

 Cycle   6  Pass 0  IDiag  1:
 E= -149.841574497698     Delta-E=       -0.000004423917 Rises=F Damp=F
 DIIS: error= 7.49D-05 at cycle   6 NSaved=   6.
 NSaved= 6 IEnMin= 6 EnMin= -149.841574497698     IErMin= 6 ErrMin= 7.49D-05
 ErrMax= 7.49D-05  0.00D+00 EMaxC= 1.00D-01 BMatC= 4.95D-07 BMatP= 3.17D-06
 IDIUse=1 WtCom= 1.00D+00 WtEn= 0.00D+00
 Coeff-Com:  0.157D-03-0.130D-01-0.168D-01-0.373D-01 0.260D+00 0.806D+00
 Coeff:      0.157D-03-0.130D-01-0.168D-01-0.373D-01 0.260D+00 0.806D+00
 Gap=     0.440 Goal=   None    Shift=    0.000
 RMSDP=2.33D-05 MaxDP=3.15D-04 DE=-4.42D-06 OVMax= 3.70D-04

 Cycle   7  Pass 0  IDiag  1:
 E= -149.841575188614     Delta-E=       -0.000000690917 Rises=F Damp=F
 DIIS: error= 2.14D-05 at cycle   7 NSaved=   7.
 NSaved= 7 IEnMin= 7 EnMin= -149.841575188614     IErMin= 7 ErrMin= 2.14D-05
 ErrMax= 2.14D-05  0.00D+00 EMaxC= 1.00D-01 BMatC= 4.36D-08 BMatP= 4.95D-07
 IDIUse=1 WtCom= 1.00D+00 WtEn= 0.00D+00
 Coeff-Com:  0.398D-04-0.114D-02-0.144D-02-0.316D-01-0.165D-01 0.158D+00
 Coeff-Com:  0.893D+00
 Coeff:      0.398D-04-0.114D-02-0.144D-02-0.316D-01-0.165D-01 0.158D+00
 Coeff:      0.893D+00
 Gap=     0.440 Goal=   None    Shift=    0.000
 RMSDP=7.97D-06 MaxDP=9.44D-05 DE=-6.91D-07 OVMax= 1.20D-04

 Initial convergence to 1.0D-05 achieved.  Increase integral accuracy.
 Cycle   8  Pass 1  IDiag  1:
 E= -149.841562856852     Delta-E=        0.000012331763 Rises=F Damp=F
 DIIS: error= 3.89D-05 at cycle   1 NSaved=   1.
 NSaved= 1 IEnMin= 1 EnMin= -149.841562856852     IErMin= 1 ErrMin= 3.89D-05
 ErrMax= 3.89D-05  0.00D+00 EMaxC= 1.00D-01 BMatC= 6.77D-08 BMatP= 6.77D-08
 IDIUse=1 WtCom= 1.00D+00 WtEn= 0.00D+00
 Coeff-Com:  0.100D+01
 Coeff:      0.100D+01
 Gap=     0.440 Goal=   None    Shift=    0.000
 RMSDP=7.97D-06 MaxDP=9.44D-05 DE= 1.23D-05 OVMax= 7.18D-05

 Cycle   9  Pass 1  IDiag  1:
 E= -149.841562911559     Delta-E=       -0.000000054707 Rises=F Damp=F
 DIIS: error= 6.70D-06 at cycle   2 NSaved=   2.
 NSaved= 2 IEnMin= 2 EnMin= -149.841562911559     IErMin= 2 ErrMin= 6.70D-06
 ErrMax= 6.70D-06  0.00D+00 EMaxC= 1.00D-01 BMatC= 5.53D-09 BMatP= 6.77D-08
 IDIUse=1 WtCom= 1.00D+00 WtEn= 0.00D+00
 Coeff-Com:  0.841D-01 0.916D+00
 Coeff:      0.841D-01 0.916D+00
 Gap=     0.440 Goal=   None    Shift=    0.000
 RMSDP=1.64D-06 MaxDP=3.76D-05 DE=-5.47D-08 OVMax= 3.20D-05

 Cycle  10  Pass 1  IDiag  1:
 E= -149.841562914567     Delta-E=       -0.000000003008 Rises=F Damp=F
 DIIS: error= 5.14D-06 at cycle   3 NSaved=   3.
 NSaved= 3 IEnMin= 3 EnMin= -149.841562914567     IErMin= 3 ErrMin= 5.14D-06
 ErrMax= 5.14D-06  0.00D+00 EMaxC= 1.00D-01 BMatC= 3.35D-09 BMatP= 5.53D-09
 IDIUse=1 WtCom= 1.00D+00 WtEn= 0.00D+00
 Coeff-Com: -0.456D-01 0.432D+00 0.614D+00
 Coeff:     -0.456D-01 0.432D+00 0.614D+00
 Gap=     0.440 Goal=   None    Shift=    0.000
 RMSDP=8.16D-07 MaxDP=1.58D-05 DE=-3.01D-09 OVMax= 2.04D-05

 Cycle  11  Pass 1  IDiag  1:
 E= -149.841562917416     Delta-E=       -0.000000002849 Rises=F Damp=F
 DIIS: error= 1.47D-06 at cycle   4 NSaved=   4.
 NSaved= 4 IEnMin= 4 EnMin= -149.841562917416     IErMin= 4 ErrMin= 1.47D-06
 ErrMax= 1.47D-06  0.00D+00 EMaxC= 1.00D-01 BMatC= 1.28D-10 BMatP= 3.35D-09
 IDIUse=1 WtCom= 1.00D+00 WtEn= 0.00D+00
 Coeff-Com: -0.217D-01 0.145D+00 0.251D+00 0.626D+00
 Coeff:     -0.217D-01 0.145D+00 0.251D+00 0.626D+00
 Gap=     0.440 Goal=   None    Shift=    0.000
 RMSDP=1.89D-07 MaxDP=3.72D-06 DE=-2.85D-09 OVMax= 6.37D-06

 Cycle  12  Pass 1  IDiag  1:
 E= -149.841562917537     Delta-E=       -0.000000000121 Rises=F Damp=F
 DIIS: error= 3.46D-07 at cycle   5 NSaved=   5.
 NSaved= 5 IEnMin= 5 EnMin= -149.841562917537     IErMin= 5 ErrMin= 3.46D-07
 ErrMax= 3.46D-07  0.00D+00 EMaxC= 1.00D-01 BMatC= 1.68D-11 BMatP= 1.28D-10
 IDIUse=1 WtCom= 1.00D+00 WtEn= 0.00D+00
 Coeff-Com: -0.259D-03-0.212D-01-0.168D-01 0.230D+00 0.809D+00
 Coeff:     -0.259D-03-0.212D-01-0.168D-01 0.230D+00 0.809D+00
 Gap=     0.440 Goal=   None    Shift=    0.000
 RMSDP=9.56D-08 MaxDP=9.62D-07 DE=-1.21D-10 OVMax= 1.59D-06

 Cycle  13  Pass 1  IDiag  1:
 E= -149.841562917555     Delta-E=       -0.000000000018 Rises=F Damp=F
 DIIS: error= 1.56D-07 at cycle   6 NSaved=   6.
 NSaved= 6 IEnMin= 6 EnMin= -149.841562917555     IErMin= 6 ErrMin= 1.56D-07
 ErrMax= 1.56D-07  0.00D+00 EMaxC= 1.00D-01 BMatC= 1.30D-12 BMatP= 1.68D-11
 IDIUse=1 WtCom= 1.00D+00 WtEn= 0.00D+00
 Coeff-Com:  0.228D-02-0.235D-01-0.334D-01 0.224D-01 0.266D+00 0.766D+00
 Coeff:      0.228D-02-0.235D-01-0.334D-01 0.224D-01 0.266D+00 0.766D+00
 Gap=     0.440 Goal=   None    Shift=    0.000
 RMSDP=3.32D-08 MaxDP=5.06D-07 DE=-1.80D-11 OVMax= 8.10D-07

 Cycle  14  Pass 1  IDiag  1:
 E= -149.841562917557     Delta-E=       -0.000000000002 Rises=F Damp=F
 DIIS: error= 3.00D-08 at cycle   7 NSaved=   7.
 NSaved= 7 IEnMin= 7 EnMin= -149.841562917557     IErMin= 7 ErrMin= 3.00D-08
 ErrMax= 3.00D-08  0.00D+00 EMaxC= 1.00D-01 BMatC= 1.47D-13 BMatP= 1.30D-12
 IDIUse=1 WtCom= 1.00D+00 WtEn= 0.00D+00
 Coeff-Com:  0.549D-03-0.351D-02-0.607D-02-0.144D-01-0.328D-01 0.210D+00
 Coeff-Com:  0.846D+00
 Coeff:      0.549D-03-0.351D-02-0.607D-02-0.144D-01-0.328D-01 0.210D+00
 Coeff:      0.846D+00
 Gap=     0.440 Goal=   None    Shift=    0.000
 RMSDP=1.18D-08 MaxDP=1.19D-07 DE=-1.88D-12 OVMax= 2.51D-07

 Cycle  15  Pass 1  IDiag  1:
 E= -149.841562917557     Delta-E=        0.000000000000 Rises=F Damp=F
 DIIS: error= 8.98D-09 at cycle   8 NSaved=   8.
 NSaved= 8 IEnMin= 7 EnMin= -149.841562917557     IErMin= 8 ErrMin= 8.98D-09
 ErrMax= 8.98D-09  0.00D+00 EMaxC= 1.00D-01 BMatC= 6.33D-15 BMatP= 1.47D-13
 IDIUse=1 WtCom= 1.00D+00 WtEn= 0.00D+00
 Coeff-Com: -0.209D-03 0.227D-02 0.315D-02-0.206D-02-0.326D-01-0.599D-01
 Coeff-Com: -0.285D-02 0.109D+01
 Coeff:     -0.209D-03 0.227D-02 0.315D-02-0.206D-02-0.326D-01-0.599D-01
 Coeff:     -0.285D-02 0.109D+01
 Gap=     0.440 Goal=   None    Shift=    0.000
 RMSDP=4.59D-09 MaxDP=5.29D-08 DE= 2.84D-13 OVMax= 1.22D-07

 SCF Done:  E(RwB97XD) =  -149.841562918     A.U. after   15 cycles
            NFock= 15  Conv=0.46D-08     -V/T= 2.0100
 KE= 1.483599266140D+02 PE=-4.929195206402D+02 EE= 1.227348674178D+02
 Leave Link  502 at Sat Aug 14 23:24:21 2021, MaxMem=  1073741824 cpu:              15.0 elap:               1.9
 (Enter /home/prakriti/g16/l801.exe)
 DoSCS=F DFT=T ScalE2(SS,OS)=  1.000000  1.000000
 ExpMin= 1.22D-01 ExpMax= 1.71D+03 ExpMxC= 2.58D+02 IAcc=3 IRadAn=         5 AccDes= 0.00D+00
 HarFok:  IExCor=  205 AccDes= 0.00D+00 IRadAn=         5 IDoV=-2 UseB2=F ITyADJ=14
 ICtDFT= 12500011 ScaDFX=  1.000000  1.000000  1.000000  1.000000
 Largest valence mixing into a core orbital is  7.08D-05
 Largest core mixing into a valence orbital is  2.92D-05
 Range of M.O.s used for correlation:     4    62
 NBasis=    62 NAE=    12 NBE=    12 NFC=     3 NFV=     0
 NROrb=     59 NOA=     9 NOB=     9 NVA=    50 NVB=    50
 Leave Link  801 at Sat Aug 14 23:24:22 2021, MaxMem=  1073741824 cpu:               0.5 elap:               0.1
 (Enter /home/prakriti/g16/l914.exe)
 RHF ground state
 Keep R1, R2, and R3 ints in memory in canonical form, NReq=196512294.
 FoFCou: FMM=F IPFlag=           0 FMFlag=           0 FMFlg1=           0
         NFxFlg=           0 DoJE=F BraDBF=F KetDBF=F FulRan=T
         wScrn=  0.000000 ICntrl=       600 IOpCl=  0 I1Cent=           0 NGrid=           0
         NMat0=    1 NMatS0=   1953 NMatT0=    0 NMatD0=    1 NMtDS0=    0 NMtDT0=    0
 Symmetry not used in FoFCou.
 Two-electron integral symmetry not used.
 MDV=  1073741824 DFT=T DoStab=F Mixed=T DoRPA=T DoScal=F NonHer=T
 Making orbital integer symmetry assigments:
 Orbital symmetries:
       Occupied  (A) (A) (A) (A) (A) (A) (A) (A) (A) (A) (A) (A)
       Virtual   (A) (A) (A) (A) (A) (A) (A) (A) (A) (A) (A) (A)
                 (A) (A) (A) (A) (A) (A) (A) (A) (A) (A) (A) (A)
                 (A) (A) (A) (A) (A) (A) (A) (A) (A) (A) (A) (A)
                 (A) (A) (A) (A) (A) (A) (A) (A) (A) (A) (A) (A)
                 (A) (A)
   450 initial guesses have been made.
 Convergence on wavefunction:    0.001000000000000
 Davidson Disk Diagonalization:  ConvIn= 1.00D-03 SkipCon=T Conv= 1.00D-03.
 Max sub-space:  2700 roots to seek:   900 dimension of matrix:          900
 *** WARNING: Number of orthogonal guesses is          450
 Iteration     1 Dimension   450 NMult     0 NNew    450
 CISAX will form   450 AO SS matrices at one time.
 NMat=   450 NSing=   450 JSym2X= 0.
 New state      1 was old state      3
 New state      3 was old state      1
 New state      4 was old state      5
 New state      5 was old state      6
 New state      6 was old state      7
 New state      7 was old state      4
 New state     10 was old state     13
 New state     11 was old state     10
 New state     12 was old state     11
 New state     13 was old state     12
 New state     16 was old state     18
 New state     17 was old state     16
 New state     18 was old state     17
 New state     19 was old state     22
 New state     20 was old state     21
 New state     21 was old state     19
 New state     22 was old state     20
 New state     23 was old state     25
 New state     24 was old state     26
 New state     25 was old state     23
 New state     26 was old state     24
 New state     28 was old state     29
 New state     29 was old state     28
 New state     30 was old state     32
 New state     31 was old state     30
 New state     32 was old state     36
 New state     33 was old state     31
 New state     34 was old state     38
 New state     35 was old state     34
 New state     36 was old state     33
 New state     37 was old state     35
 New state     38 was old state     42
 New state     40 was old state     37
 New state     41 was old state     40
 New state     42 was old state     41
 New state     43 was old state     45
 New state     44 was old state     43
 New state     45 was old state     46
 New state     46 was old state     47
 New state     47 was old state     44
 New state     48 was old state     50
 New state     49 was old state     53
 New state     50 was old state     48
 New state     51 was old state     49
 New state     52 was old state     51
 New state     53 was old state     54
 New state     54 was old state     57
 New state     55 was old state     56
 New state     56 was old state     52
 New state     57 was old state     55
 New state     59 was old state     63
 New state     60 was old state     59
 New state     61 was old state     62
 New state     62 was old state     61
 New state     63 was old state     60
 New state     64 was old state     67
 New state     65 was old state     64
 New state     66 was old state     65
 New state     67 was old state     69
 New state     68 was old state     66
 New state     69 was old state     72
 New state     70 was old state     71
 New state     71 was old state     68
 New state     72 was old state     70
 New state     74 was old state     78
 New state     75 was old state     74
 New state     76 was old state     79
 New state     78 was old state     80
 New state     79 was old state     76
 New state     80 was old state     75
 New state     81 was old state     86
 New state     82 was old state     85
 New state     83 was old state     87
 New state     84 was old state     83
 New state     85 was old state     81
 New state     86 was old state     82
 New state     87 was old state     89
 New state     89 was old state     93
 New state     90 was old state     84
 New state     91 was old state     92
 New state     92 was old state     90
 New state     93 was old state     91
 New state     94 was old state     98
 New state     95 was old state     96
 New state     96 was old state     99
 New state     97 was old state    106
 New state     98 was old state     95
 New state     99 was old state     97
 New state    100 was old state    104
 New state    101 was old state    103
 New state    102 was old state    100
 New state    103 was old state    108
 New state    104 was old state    109
 New state    105 was old state    102
 New state    106 was old state    110
 New state    107 was old state    105
 New state    108 was old state    113
 New state    109 was old state    107
 New state    110 was old state    111
 New state    111 was old state    101
 New state    113 was old state    114
 New state    114 was old state    116
 New state    115 was old state    122
 New state    116 was old state    120
 New state    119 was old state    121
 New state    120 was old state    123
 New state    121 was old state    119
 New state    122 was old state    127
 New state    123 was old state    128
 New state    124 was old state    126
 New state    126 was old state    132
 New state    127 was old state    124
 New state    128 was old state    129
 New state    129 was old state    130
 New state    130 was old state    131
 New state    131 was old state    136
 New state    132 was old state    135
 New state    133 was old state    140
 New state    134 was old state    137
 New state    135 was old state    134
 New state    136 was old state    133
 New state    137 was old state    141
 New state    138 was old state    143
 New state    139 was old state    138
 New state    140 was old state    145
 New state    141 was old state    142
 New state    142 was old state    139
 New state    143 was old state    146
 New state    145 was old state    147
 New state    146 was old state    148
 New state    147 was old state    150
 New state    148 was old state    149
 New state    149 was old state    153
 New state    150 was old state    152
 New state    152 was old state    158
 New state    153 was old state    156
 New state    154 was old state    159
 New state    156 was old state    162
 New state    158 was old state    154
 New state    159 was old state    160
 New state    160 was old state    161
 New state    161 was old state    165
 New state    162 was old state    163
 New state    163 was old state    167
 New state    164 was old state    166
 New state    165 was old state    164
 New state    166 was old state    168
 New state    167 was old state    169
 New state    168 was old state    171
 New state    169 was old state    170
 New state    170 was old state    180
 New state    171 was old state    174
 New state    172 was old state    173
 New state    173 was old state    175
 New state    174 was old state    172
 New state    175 was old state    176
 New state    176 was old state    177
 New state    177 was old state    178
 New state    178 was old state    179
 New state    179 was old state    189
 New state    180 was old state    182
 New state    181 was old state    186
 New state    182 was old state    181
 New state    183 was old state    184
 New state    184 was old state    187
 New state    186 was old state    183
 New state    187 was old state    190
 New state    188 was old state    191
 New state    189 was old state    192
 New state    190 was old state    188
 New state    191 was old state    193
 New state    192 was old state    198
 New state    193 was old state    194
 New state    194 was old state    196
 New state    195 was old state    201
 New state    196 was old state    195
 New state    198 was old state    200
 New state    200 was old state    202
 New state    201 was old state    204
 New state    202 was old state    203
 New state    203 was old state    210
 New state    204 was old state    205
 New state    205 was old state    209
 New state    209 was old state    213
 New state    210 was old state    211
 New state    211 was old state    212
 New state    212 was old state    216
 New state    213 was old state    214
 New state    214 was old state    218
 No map to state    215
 New state    216 was old state    215
 New state    218 was old state    221
 New state    221 was old state    226
 New state    222 was old state    223
 New state    223 was old state    229
 New state    224 was old state    222
 New state    225 was old state    224
 New state    226 was old state    225
 New state    229 was old state    230
 New state    230 was old state    234
 New state    232 was old state    233
 New state    233 was old state    232
 New state    234 was old state    238
 New state    236 was old state    237
 New state    237 was old state    236
 New state    238 was old state    241
 New state    239 was old state    240
 New state    240 was old state    242
 New state    241 was old state    239
 New state    242 was old state    251
 New state    248 was old state    250
 New state    249 was old state    248
 New state    250 was old state    252
 New state    251 was old state    249
 New state    252 was old state    255
 New state    253 was old state    254
 New state    254 was old state    257
 New state    255 was old state    253
 New state    257 was old state    258
 New state    258 was old state    259
 New state    259 was old state    260
 New state    260 was old state    261
 New state    261 was old state    265
 New state    262 was old state    263
 New state    263 was old state    262
 New state    264 was old state    266
 No map to state    265
 New state    266 was old state    264
 New state    268 was old state    270
 New state    269 was old state    268
 New state    270 was old state    269
 New state    281 was old state    282
 New state    282 was old state    281
 New state    286 was old state    287
 New state    287 was old state    288
 New state    288 was old state    286
 New state    289 was old state    290
 New state    290 was old state    289
 New state    293 was old state    295
 New state    294 was old state    293
 New state    295 was old state    296
 New state    296 was old state    299
 New state    298 was old state    294
 New state    299 was old state    298
 New state    300 was old state    302
 New state    301 was old state    303
 New state    302 was old state    304
 New state    303 was old state    306
 New state    304 was old state    300
 New state    305 was old state    301
 New state    306 was old state    305
 New state    309 was old state    312
 New state    310 was old state    311
 New state    311 was old state    309
 New state    312 was old state    313
 New state    313 was old state    310
 New state    314 was old state    317
 New state    315 was old state    316
 New state    316 was old state    314
 New state    317 was old state    315
 New state    327 was old state    328
 New state    328 was old state    327
 New state    329 was old state    330
 New state    330 was old state    332
 New state    331 was old state    329
 New state    332 was old state    333
 New state    333 was old state    331
 New state    335 was old state    338
 New state    337 was old state    335
 New state    338 was old state    337
 New state    348 was old state    350
 New state    350 was old state    351
 New state    351 was old state    348
 New state    356 was old state    358
 New state    358 was old state    359
 New state    359 was old state    356
 New state    361 was old state    362
 New state    362 was old state    361
 New state    365 was old state    366
 New state    366 was old state    365
 New state    368 was old state    369
 New state    369 was old state    368
 New state    371 was old state    372
 New state    372 was old state    371
 New state    378 was old state    379
 New state    379 was old state    378
 New state    382 was old state    383
 New state    383 was old state    382
 New state    385 was old state    386
 New state    386 was old state    385
 New state    388 was old state    389
 New state    389 was old state    388
 New state    392 was old state    394
 New state    393 was old state    392
 New state    394 was old state    395
 New state    395 was old state    393
 New state    396 was old state    397
 New state    397 was old state    396
 New state    402 was old state    403
 New state    403 was old state    404
 New state    404 was old state    402
 New state    407 was old state    408
 New state    408 was old state    407
 New state    410 was old state    411
 New state    411 was old state    410
 New state    414 was old state    415
 New state    415 was old state    414
 New state    423 was old state    424
 New state    424 was old state    423
 New state    426 was old state    427
 New state    427 was old state    428
 New state    428 was old state    426
 New state    429 was old state    430
 New state    430 was old state    429
 New state    432 was old state    433
 New state    433 was old state    432
 New state    443 was old state    444
 New state    444 was old state    443
 Excitation Energies [eV] at current iteration:
 Root      1 :     6.619229591004123
 Root      2 :     7.317327434809028
 Root      3 :     7.861156527213763
 Root      4 :     7.936398093430607
 Root      5 :     8.491778551179573
 Root      6 :     9.110232231486430
 Root      7 :     9.165971283292082
 Root      8 :     9.772570185167210
 Root      9 :     9.965968633139903
 Root     10 :    10.508938781531060
 Root     11 :    11.004578535979860
 Root     12 :    11.106974766025160
 Root     13 :    11.287322604130260
 Root     14 :    11.733705688497160
 Root     15 :    12.264161098975650
 Root     16 :    12.657770835461550
 Root     17 :    12.821740640441860
 Root     18 :    13.054023466200030
 Root     19 :    13.337723727233310
 Root     20 :    13.542788315941280
 Root     21 :    13.755521252482070
 Root     22 :    13.897342077722020
 Root     23 :    14.420715327233030
 Root     24 :    14.674515758421680
 Root     25 :    14.779581515958820
 Root     26 :    14.992632105791700
 Root     27 :    15.297686944811480
 Root     28 :    15.427365681664640
 Root     29 :    15.659693826026030
 Root     30 :    16.346881319206480
 Root     31 :    16.423303474491730
 Root     32 :    16.867938986448110
 Root     33 :    16.895952113125890
 Root     34 :    17.468580215337270
 Root     35 :    17.491929921203600
 Root     36 :    17.550487122180870
 Root     37 :    17.826110495349840
 Root     38 :    17.976232531059900
 Root     39 :    18.062601522210790
 Root     40 :    18.101048640597540
 Root     41 :    18.352681197583590
 Root     42 :    18.640744675995830
 Root     43 :    19.027648239215920
 Root     44 :    19.247489967040620
 Root     45 :    19.291973094725100
 Root     46 :    19.562529485769010
 Root     47 :    20.078649591606650
 Root     48 :    20.285289625384180
 Root     49 :    20.331934471142590
 Root     50 :    20.548102122365650
 Root     51 :    20.606107699965550
 Root     52 :    20.912954617356450
 Root     53 :    21.325044672909000
 Root     54 :    21.436042917085010
 Root     55 :    21.665954225969530
 Root     56 :    21.928775681149990
 Root     57 :    22.148080980454370
 Root     58 :    22.667467515426040
 Root     59 :    22.679291046009240
 Root     60 :    22.848586501170050
 Root     61 :    22.941562443730880
 Root     62 :    23.043610234263860
 Root     63 :    23.112955910103600
 Root     64 :    23.224367998917010
 Root     65 :    23.312433080740580
 Root     66 :    23.445782978021380
 Root     67 :    23.932748759032970
 Root     68 :    24.220644776168690
 Root     69 :    24.396242925009520
 Root     70 :    24.429650423578160
 Root     71 :    24.515517807657170
 Root     72 :    24.791623305564050
 Root     73 :    24.812889046570410
 Root     74 :    25.048661057237710
 Root     75 :    25.179363016640570
 Root     76 :    25.460762063488100
 Root     77 :    25.535877318347910
 Root     78 :    25.705563792633260
 Root     79 :    25.865575101769490
 Root     80 :    25.915446850623160
 Root     81 :    26.213858473667670
 Root     82 :    26.452077208388970
 Root     83 :    26.584483653184940
 Root     84 :    26.615916132532360
 Root     85 :    26.746640877038140
 Root     86 :    26.828414978567170
 Root     87 :    26.998798705146260
 Root     88 :    27.085852724441500
 Root     89 :    27.188443495127300
 Root     90 :    27.286635400786040
 Root     91 :    27.407714312623200
 Root     92 :    27.456592173029640
 Root     93 :    27.549549601455200
 Root     94 :    27.672824204080910
 Root     95 :    27.820311529002310
 Root     96 :    27.944914728203130
 Root     97 :    27.989306459534070
 Root     98 :    28.015603668151750
 Root     99 :    28.180270472896550
 Root    100 :    28.417192750190050
 Root    101 :    28.634440066739970
 Root    102 :    28.721245743900310
 Root    103 :    29.044277689687780
 Root    104 :    29.139127220484340
 Root    105 :    29.188561259463420
 Root    106 :    29.277057606417660
 Root    107 :    29.317612827590390
 Root    108 :    29.469371636212160
 Root    109 :    29.739867130303280
 Root    110 :    29.960256405433090
 Root    111 :    30.158476436347690
 Root    112 :    30.346258424299060
 Root    113 :    30.402800472222350
 Root    114 :    30.709157406321200
 Root    115 :    30.812373070299130
 Root    116 :    30.965811548119340
 Root    117 :    31.161281297368770
 Root    118 :    31.348201504865600
 Root    119 :    31.478277979991780
 Root    120 :    31.510396896297890
 Root    121 :    31.564501477095400
 Root    122 :    31.884253043534930
 Root    123 :    31.972130889552390
 Root    124 :    32.216874223329260
 Root    125 :    32.269766019769830
 Root    126 :    32.330801041847620
 Root    127 :    32.354735825931010
 Root    128 :    32.403326171262130
 Root    129 :    32.757235482870230
 Root    130 :    32.934129290256920
 Root    131 :    32.978365912057510
 Root    132 :    33.408100679664720
 Root    133 :    33.423592927355030
 Root    134 :    33.535004391530120
 Root    135 :    33.682905714017050
 Root    136 :    33.853792319781550
 Root    137 :    34.038418915846470
 Root    138 :    34.079269662499340
 Root    139 :    34.284569387319480
 Root    140 :    34.394836560572910
 Root    141 :    34.661638807561260
 Root    142 :    34.807817316383980
 Root    143 :    35.079401183739270
 Root    144 :    35.170354064483200
 Root    145 :    35.233898527957950
 Root    146 :    35.285001474416260
 Root    147 :    35.581473737302090
 Root    148 :    35.761268650393650
 Root    149 :    35.949350688212170
 Root    150 :    35.985200090377120
 Root    151 :    36.252189255455860
 Root    152 :    36.502564135225950
 Root    153 :    36.525769762161640
 Root    154 :    36.685925134951980
 Root    155 :    36.823065594174640
 Root    156 :    37.119295435777910
 Root    157 :    37.349180543405260
 Root    158 :    37.498797866396950
 Root    159 :    37.684754100030540
 Root    160 :    37.957478482282010
 Root    161 :    38.146815717561720
 Root    162 :    38.275630997907730
 Root    163 :    38.434080695899970
 Root    164 :    38.499928833028110
 Root    165 :    38.889309520825070
 Root    166 :    39.021569554634690
 Root    167 :    39.094515873736700
 Root    168 :    39.116802323949350
 Root    169 :    39.170807973861460
 Root    170 :    39.418816694911100
 Root    171 :    39.684932910156980
 Root    172 :    39.770891960250780
 Root    173 :    39.918926817646390
 Root    174 :    40.281156662085860
 Root    175 :    40.434458760573610
 Root    176 :    40.665685770754630
 Root    177 :    40.738141996498560
 Root    178 :    40.889174365344450
 Root    179 :    41.579819291570170
 Root    180 :    41.589879511704600
 Root    181 :    41.675495051400210
 Root    182 :    41.903646296884280
 Root    183 :    41.984011307284650
 Root    184 :    42.228404271991350
 Root    185 :    42.447730901706270
 Root    186 :    42.556491758432190
 Root    187 :    42.696387171066600
 Root    188 :    42.990416430437960
 Root    189 :    43.010275954425650
 Root    190 :    43.104476956282950
 Root    191 :    43.240624669889430
 Root    192 :    43.501064099122470
 Root    193 :    43.769030508389250
 Root    194 :    44.168279276546730
 Root    195 :    44.278954428303750
 Root    196 :    44.382198684454720
 Root    197 :    44.477582339235560
 Root    198 :    44.613968467248790
 Root    199 :    44.760771604708420
 Root    200 :    44.901111138997060
 Root    201 :    45.223619710665040
 Root    202 :    45.279766382282930
 Root    203 :    45.319206434831420
 Root    204 :    45.520281366223230
 Root    205 :    46.011182975512530
 Root    206 :    46.185292754056090
 Root    207 :    46.465757109397370
 Root    208 :    46.745677155721400
 Root    209 :    47.076425249469160
 Root    210 :    47.211354596453600
 Root    211 :    47.299260027807310
 Root    212 :    47.717950088827840
 Root    213 :    47.956313440456440
 Root    214 :    48.065638821208220
 Root    215 :    48.111100918652680
 Root    216 :    48.185424032857110
 Root    217 :    48.631778993676650
 Root    218 :    49.373023625074350
 Root    219 :    49.509427194761880
 Root    220 :    49.623061985800250
 Root    221 :    50.009517175950780
 Root    222 :    50.343022553510660
 Root    223 :    50.403962368130610
 Root    224 :    50.671238942530540
 Root    225 :    50.754881011988080
 Root    226 :    51.032541901738800
 Root    227 :    51.274219208761680
 Root    228 :    51.309137310652830
 Root    229 :    51.562815443332300
 Root    230 :    51.896686711467050
 Root    231 :    52.248738606849390
 Root    232 :    52.292101729674290
 Root    233 :    52.676263846160150
 Root    234 :    52.802962485439170
 Root    235 :    52.976256061579020
 Root    236 :    53.424488508447180
 Root    237 :    53.667460193910740
 Root    238 :    53.852105341314580
 Root    239 :    53.916866420022560
 Root    240 :    54.229942980410420
 Root    241 :    54.297304742256170
 Root    242 :    54.502503365844030
 Root    243 :    54.980934832020900
 Root    244 :    55.212097047535520
 Root    245 :    55.222365547824420
 Root    246 :    55.298760508801340
 Root    247 :    55.328563935095050
 Root    248 :    55.902287666746020
 Root    249 :    56.100902558393950
 Root    250 :    56.388705791869620
 Root    251 :    56.398586596977560
 Root    252 :    56.422852899874020
 Root    253 :    56.974075235011010
 Root    254 :    57.229383505452880
 Root    255 :    57.311429670530660
 Root    256 :    57.520512934125050
 Root    257 :    57.874029062732020
 Root    258 :    57.985736718895440
 Root    259 :    58.382185130144560
 Root    260 :    58.642881449029190
 Root    261 :    58.713357663185180
 Root    262 :    58.856205074381280
 Root    263 :    58.977765735105610
 Root    264 :    59.046651436854720
 Root    265 :    59.203149484059130
 Root    266 :    59.290455764501420
 Root    267 :    59.494899689209690
 Root    268 :    59.790285997481340
 Root    269 :    59.880658389143520
 Root    270 :    60.067585548566380
 Root    271 :    60.270362096715680
 Root    272 :    60.476199810051450
 Root    273 :    60.804566742701620
 Root    274 :    60.936989456305210
 Root    275 :    60.992771262398510
 Root    276 :    61.218434318359170
 Root    277 :    61.298686058193930
 Root    278 :    61.513627703974840
 Root    279 :    61.803258709075610
 Root    280 :    62.035306660904740
 Root    281 :    62.524741608405690
 Root    282 :    62.752142354072700
 Root    283 :    62.835071435054470
 Root    284 :    63.171180895711060
 Root    285 :    63.229656362955830
 Root    286 :    63.288834935452840
 Root    287 :    63.398341141312910
 Root    288 :    63.741393026856110
 Root    289 :    63.888355947275470
 Root    290 :    64.078616946467580
 Root    291 :    64.250565791295570
 Root    292 :    64.468558632973040
 Root    293 :    65.046972598809870
 Root    294 :    65.344615704843530
 Root    295 :    65.583055035442980
 Root    296 :    65.733231016334270
 Root    297 :    65.865043458749000
 Root    298 :    65.962579390626600
 Root    299 :    66.057647851822720
 Root    300 :    66.366643493628500
 Root    301 :    66.775929920664940
 Root    302 :    66.884699296469990
 Root    303 :    67.027111778322620
 Root    304 :    67.100871530542020
 Root    305 :    67.213416386347290
 Root    306 :    67.291198323926740
 Root    307 :    68.202391199575390
 Root    308 :    68.230283138652010
 Root    309 :    69.063398422121050
 Root    310 :    69.309464125600500
 Root    311 :    69.389900615283340
 Root    312 :    69.525122058941150
 Root    313 :    69.695496546678700
 Root    314 :    69.884646507748440
 Root    315 :    69.989219850074990
 Root    316 :    70.118674556771130
 Root    317 :    70.233296630334650
 Root    318 :    70.524661364760040
 Root    319 :    70.667137588471580
 Root    320 :    70.817230198487200
 Root    321 :    71.318789997846200
 Root    322 :    71.687569504998450
 Root    323 :    72.050445695757690
 Root    324 :    72.349983944425560
 Root    325 :    72.742196723682370
 Root    326 :    72.991118034397200
 Root    327 :    73.198002577940190
 Root    328 :    73.224216210394120
 Root    329 :    73.389685053340430
 Root    330 :    74.042844464123060
 Root    331 :    74.315442811014790
 Root    332 :    74.372320722953290
 Root    333 :    74.455400563761430
 Root    334 :    74.510859338863950
 Root    335 :    74.931424978863500
 Root    336 :    75.018632618412140
 Root    337 :    75.322405789286320
 Root    338 :    75.431406632089850
 Root    339 :    75.853213571422640
 Root    340 :    76.034995923578220
 Root    341 :    76.334368738811220
 Root    342 :    76.387316247714540
 Root    343 :    76.699592289151080
 Root    344 :    77.091331827533280
 Root    345 :    77.855633681318220
 Root    346 :    77.995069223903540
 Root    347 :    78.057425500739640
 Root    348 :    78.447413728389550
 Root    349 :    78.540887047029710
 Root    350 :    78.606602054802750
 Root    351 :    78.792043837561510
 Root    352 :    79.006698908881860
 Root    353 :    79.369762534930660
 Root    354 :    80.077470867239140
 Root    355 :    80.259999350325730
 Root    356 :    80.447765840021760
 Root    357 :    80.520468341507940
 Root    358 :    81.055115458077650
 Root    359 :    81.118507087296140
 Root    360 :    81.528860924437940
 Root    361 :    82.097784457557050
 Root    362 :    82.211530196387670
 Root    363 :    82.362090920314570
 Root    364 :    82.470563208201360
 Root    365 :    82.690305956297620
 Root    366 :    82.858161444179910
 Root    367 :    83.088610186747330
 Root    368 :    83.424388003150180
 Root    369 :    83.647129722889590
 Root    370 :    84.332897508762060
 Root    371 :    84.576354404479050
 Root    372 :    84.743157407181730
 Root    373 :    84.832047841567500
 Root    374 :    84.997989407247730
 Root    375 :    85.065937802146930
 Root    376 :    85.138391564417050
 Root    377 :    85.734322742513800
 Root    378 :    85.939921925853230
 Root    379 :    86.019761864202860
 Root    380 :    86.204080597706980
 Root    381 :    86.833288646769940
 Root    382 :    87.040275053004350
 Root    383 :    87.231703493191430
 Root    384 :    87.519716016807860
 Root    385 :    87.981866554094650
 Root    386 :    88.260370807088250
 Root    387 :    89.078530254621310
 Root    388 :    89.468251150238330
 Root    389 :    89.582276474542910
 Root    390 :    89.951112278096720
 Root    391 :    90.089553327417820
 Root    392 :    90.334755869560570
 Root    393 :    90.532147593286030
 Root    394 :    90.622200981333040
 Root    395 :    90.795929188000530
 Root    396 :    91.298194736214940
 Root    397 :    91.579397790999010
 Root    398 :    91.640241170902460
 Root    399 :    92.086018764084870
 Root    400 :    92.580161959199810
 Root    401 :    92.639872545180240
 Root    402 :    92.775928446928280
 Root    403 :    93.057042061159480
 Root    404 :    93.112717482742740
 Root    405 :    93.469933327697460
 Root    406 :    93.837340096832080
 Root    407 :    94.258848494478300
 Root    408 :    94.327595572820580
 Root    409 :    95.102561369790950
 Root    410 :    95.290746130512450
 Root    411 :    95.427579206302510
 Root    412 :    95.718925828955260
 Root    413 :    96.163506600372660
 Root    414 :    96.658059404265440
 Root    415 :    96.791390555302430
 Root    416 :    98.085355222112260
 Root    417 :    98.611956900063650
 Root    418 :    98.951703377951720
 Root    419 :    99.018925798914740
 Root    420 :    99.046073651300110
 Root    421 :    99.361845172373550
 Root    422 :    99.903005966557800
 Root    423 :   100.281400675230600
 Root    424 :   100.308373580897100
 Root    425 :   100.942027929041100
 Root    426 :   101.064223276560000
 Root    427 :   101.681179200155500
 Root    428 :   101.722884436239800
 Root    429 :   102.216344577204800
 Root    430 :   102.434608374841400
 Root    431 :   103.004410736641500
 Root    432 :   103.580707172699200
 Root    433 :   103.854891887397700
 Root    434 :   103.900832880729500
 Root    435 :   104.974134970077500
 Root    436 :   105.371772946613600
 Root    437 :   106.738186831751300
 Root    438 :   107.291024210871300
 Root    439 :   107.758771144429900
 Root    440 :   108.287021043542800
 Root    441 :   108.478908423413400
 Root    442 :   108.716803371183900
 Root    443 :   109.674915861449000
 Root    444 :   110.006119271633200
 Root    445 :   110.819833722242600
 Root    446 :   111.125878471201200
 Root    447 :   115.590178880215800
 Root    448 :   117.150755040313400
 Root    449 :   118.679721422455000
 Root    450 :   119.436020018493200
 Convergence achieved for final wavefunctions.
 ***********************************************************************
 Excited states from <AA,BB:AA,BB> singles matrix:
 ***********************************************************************
 
 1PDM for each excited state written to RWF  633
 Ground to excited state transition densities written to RWF  633
 Ground to excited state transition electric dipole moments (Au):
       state          X           Y           Z        Dip. S.      Osc.
         1         0.0628      0.0089      0.2644      0.0739      0.0120
         2        -0.2465     -0.0382     -0.0447      0.0642      0.0115
         3        -0.8754     -0.1899      0.0899      0.8106      0.1561
         4         0.1335     -0.0009      0.0463      0.0200      0.0039
         5        -0.4288      0.5964     -0.0064      0.5396      0.1123
         6        -0.5359     -0.1976     -0.1853      0.3606      0.0805
         7         0.8811      0.3123     -0.1182      0.8879      0.1994
         8        -0.2792      0.0344     -0.0457      0.0812      0.0194
         9        -0.0798     -0.0708     -0.0479      0.0137      0.0033
        10        -0.0158     -0.0162     -0.0391      0.0020      0.0005
        11        -0.1139      0.4026     -0.0801      0.1815      0.0489
        12        -0.1806     -0.2285      0.1514      0.1077      0.0293
        13        -0.1192     -0.4715     -0.2467      0.2974      0.0822
        14        -0.0030     -0.0230      0.0646      0.0047      0.0014
        15        -0.2231     -0.4408     -0.0269      0.2449      0.0736
        16        -0.0891      0.0389     -0.2280      0.0614      0.0191
        17         0.1265     -1.0999      0.0461      1.2278      0.3857
        18         0.0359     -0.0328      0.1379      0.0214      0.0068
        19        -0.0077      0.0630      0.0926      0.0126      0.0041
        20         0.4881      0.0362     -0.0534      0.2424      0.0804
        21         0.0399     -0.0609     -0.0648      0.0095      0.0032
        22         0.5982     -0.2218      0.0252      0.4077      0.1388
        23        -0.0261      0.0419      0.1296      0.0192      0.0068
        24        -0.0607      0.0085     -0.0511      0.0064      0.0023
        25        -0.3510     -0.4928     -0.0466      0.3682      0.1333
        26         0.2142      0.3528     -0.0190      0.1707      0.0627
        27         0.5733      0.3022     -0.0094      0.4201      0.1575
        28        -0.4559     -0.4256     -0.0676      0.3935      0.1487
        29         0.2721      0.2891     -0.0070      0.1577      0.0605
        30         0.0364      0.0681      0.4152      0.1783      0.0714
        31         0.2341      0.3344     -0.0439      0.1685      0.0678
        32        -0.2647      0.4438     -0.0958      0.2762      0.1141
        33        -0.3682      0.5749      0.0581      0.4694      0.1943
        34         0.2131     -0.3005     -0.2716      0.2095      0.0897
        35        -0.1696      0.0695     -0.6540      0.4613      0.1977
        36        -0.1098     -0.1752      0.3720      0.1812      0.0779
        37        -0.4506      0.1282      0.0242      0.2201      0.0961
        38         0.0277     -0.0174      0.1613      0.0271      0.0119
        39         0.3515      0.1822     -0.0098      0.1568      0.0694
        40         0.3500      0.0853      0.1241      0.1452      0.0644
        41        -0.0705      0.2822     -0.1097      0.0967      0.0435
        42        -0.3369      0.1450     -0.0496      0.1370      0.0626
        43         0.2713     -0.0228     -0.0380      0.0756      0.0352
        44        -0.6414     -0.0566      0.0106      0.4147      0.1955
        45        -0.0861     -0.0423      0.1465      0.0307      0.0145
        46         0.0875      0.0307      0.0231      0.0091      0.0044
        47        -0.1756     -0.0512      0.0032      0.0335      0.0165
        48         0.1201     -0.2372      0.0808      0.0772      0.0384
        49         0.1460      0.0733      0.2602      0.0944      0.0470
        50         0.4068      0.1905     -0.1025      0.2123      0.1069
        51        -0.1682     -0.4026      0.0681      0.1951      0.0985
        52        -0.0107     -0.0724     -0.7187      0.5219      0.2674
        53         0.4905      0.0380     -0.0470      0.2442      0.1276
        54         0.0885     -0.0080      0.2332      0.0623      0.0327
        55        -0.1215      0.0030     -0.0177      0.0151      0.0080
        56        -0.0213      0.1535     -0.0129      0.0242      0.0130
        57         0.1632     -0.0138     -0.0335      0.0279      0.0152
        58         0.2312     -0.4518     -0.1409      0.2775      0.1541
        59        -0.1439      0.2518     -0.2361      0.1398      0.0777
        60         0.0368     -0.0236     -0.1285      0.0184      0.0103
        61        -0.0184      0.0689     -0.2316      0.0587      0.0330
        62        -0.0315     -0.1310     -0.0384      0.0196      0.0111
        63         0.0261      0.1377      0.0158      0.0199      0.0113
        64         0.1153      0.0369     -0.3391      0.1297      0.0738
        65         0.2104      0.1507      0.1699      0.0959      0.0548
        66        -0.1574     -0.0637     -0.0072      0.0289      0.0166
        67        -0.0048      0.0200      0.2470      0.0614      0.0360
        68        -0.3588      0.0463     -0.0356      0.1322      0.0784
        69        -0.3929     -0.0144      0.1005      0.1647      0.0984
        70        -0.0549     -0.0731     -0.0797      0.0147      0.0088
        71        -0.1241     -0.2635      0.0334      0.0859      0.0516
        72         0.0115      0.0229      0.0257      0.0013      0.0008
        73         0.4246     -0.1696      0.0122      0.2092      0.1272
        74         0.0507     -0.0245      0.1032      0.0138      0.0085
        75        -0.3590      0.1225      0.0079      0.1440      0.0888
        76        -0.0123      0.0019      0.0990      0.0100      0.0062
        77        -0.6416      0.2601      0.0289      0.4801      0.3004
        78         0.0692     -0.0097      0.0479      0.0072      0.0045
        79        -0.0457     -0.0028      0.0198      0.0025      0.0016
        80         0.1673      0.5591     -0.0300      0.3415      0.2168
        81         0.1129     -0.0004      0.0738      0.0182      0.0117
        82         0.2933      0.1083     -0.0520      0.1004      0.0651
        83         0.0006     -0.0282     -0.1199      0.0152      0.0099
        84        -0.0279     -0.0118     -0.0667      0.0054      0.0035
        85         0.2778      0.0024      0.0165      0.0774      0.0507
        86         0.1450     -0.1066     -0.0071      0.0324      0.0213
        87        -0.0200     -0.0098      0.1994      0.0402      0.0266
        88         0.0559     -0.0645     -0.1190      0.0214      0.0142
        89         0.0997      0.1549      0.1796      0.0662      0.0441
        90        -0.1829     -0.1493      0.1715      0.0852      0.0569
        91        -0.0431      0.0048      0.0019      0.0019      0.0013
        92         0.1742      0.1142      0.0223      0.0439      0.0295
        93        -0.3892     -0.2785     -0.0164      0.2293      0.1548
        94         0.0724     -0.2681      0.0830      0.0840      0.0570
        95         0.0145     -0.0311     -0.0990      0.0110      0.0075
        96        -0.0907      0.1742     -0.1313      0.0558      0.0382
        97         0.0819     -0.0416     -0.1488      0.0306      0.0210
        98        -0.3652      0.3296      0.0596      0.2456      0.1686
        99         0.5845      0.0788      0.0851      0.3551      0.2452
       100        -0.1796     -0.2041      0.0033      0.0739      0.0515
       101        -0.2473     -0.0193      0.0094      0.0616      0.0432
       102        -0.1043     -0.0995      0.0074      0.0208      0.0146
       103         0.1988      0.5703      0.0074      0.3648      0.2596
       104        -0.0042     -0.2311     -0.0308      0.0544      0.0388
       105        -0.2856     -0.0968     -0.0232      0.0915      0.0654
       106         0.0797     -0.0241     -0.0974      0.0164      0.0118
       107        -0.1560     -0.2322     -0.0134      0.0784      0.0563
       108        -0.2459      0.2866      0.0085      0.1427      0.1030
       109         0.0892      0.0242      0.0354      0.0098      0.0071
       110         0.2018     -0.1774     -0.0212      0.0726      0.0533
       111         0.1391      0.0683     -0.0238      0.0246      0.0182
       112        -0.4461      0.0068     -0.0211      0.1995      0.1483
       113         0.0665      0.0294      0.0006      0.0053      0.0039
       114         0.0156     -0.0352      0.1287      0.0181      0.0136
       115        -0.0936     -0.0715      0.0651      0.0181      0.0137
       116        -0.0421      0.0484      0.5245      0.2792      0.2118
       117         0.0448      0.2436     -0.0312      0.0623      0.0476
       118         0.1199      0.2314     -0.0254      0.0686      0.0527
       119         0.0475     -0.1182     -0.2016      0.0569      0.0439
       120        -0.0312      0.0189     -0.2294      0.0540      0.0417
       121         0.0691     -0.0899      0.0606      0.0165      0.0128
       122         0.0769      0.4721      0.0360      0.2301      0.1797
       123         0.2729     -0.3028      0.0335      0.1673      0.1310
       124        -0.0601     -0.3606      0.0082      0.1337      0.1056
       125        -0.2214      0.0113     -0.0143      0.0493      0.0390
       126         0.1464     -0.0771     -0.1052      0.0384      0.0304
       127        -0.0601     -0.0173     -0.0894      0.0119      0.0094
       128        -0.0776      0.2160      0.0562      0.0558      0.0443
       129        -0.1542      0.0646      0.0055      0.0280      0.0225
       130         0.1249     -0.0372      0.0267      0.0177      0.0143
       131        -0.0504      0.0156      0.0407      0.0044      0.0036
       132         0.0213      0.0748      0.0466      0.0082      0.0067
       133        -0.0500     -0.0407      0.0745      0.0097      0.0079
       134        -0.0292      0.1091     -0.0180      0.0131      0.0107
       135        -0.0177     -0.1418      0.0014      0.0204      0.0169
       136        -0.0500      0.0672      0.0085      0.0071      0.0059
       137         0.0530     -0.0946      0.3560      0.1385      0.1155
       138         0.0683     -0.0041     -0.1021      0.0151      0.0126
       139        -0.2314     -0.1565     -0.1388      0.0973      0.0818
       140        -0.0599     -0.2685     -0.2465      0.1364      0.1150
       141        -0.1984      0.0648     -0.0239      0.0441      0.0375
       142        -0.0543     -0.0950      0.0427      0.0138      0.0118
       143         0.0622     -0.2622     -0.0323      0.0736      0.0633
       144         0.0463      0.1642     -0.0920      0.0376      0.0324
       145        -0.0624      0.0176     -0.1345      0.0223      0.0192
       146         0.0445     -0.0605     -0.0618      0.0095      0.0082
       147        -0.0099      0.0055     -0.0164      0.0004      0.0003
       148         0.0457      0.1111      0.0011      0.0144      0.0126
       149         0.0590     -0.0918     -0.0174      0.0122      0.0108
       150        -0.3081     -0.1612      0.1023      0.1314      0.1158
       151         0.1289      0.4110     -0.1439      0.2063      0.1832
       152        -0.1686     -0.1452      0.1990      0.0891      0.0797
       153         0.0460      0.0376      0.2202      0.0520      0.0466
       154         0.0192      0.0433      0.0363      0.0036      0.0032
       155        -0.0650      0.0789     -0.0205      0.0109      0.0098
       156         0.0174     -0.1028      0.0055      0.0109      0.0099
       157        -0.0167      0.0112     -0.0381      0.0019      0.0017
       158        -0.0427      0.0426     -0.0007      0.0036      0.0033
       159        -0.0478     -0.0880      0.0085      0.0101      0.0093
       160        -0.0584     -0.1652     -0.0070      0.0307      0.0286
       161         0.0314      0.0311     -0.2390      0.0591      0.0552
       162        -0.0245     -0.1120      0.1331      0.0309      0.0289
       163        -0.0769     -0.0746      0.0450      0.0135      0.0127
       164        -0.0158     -0.0671     -0.0248      0.0054      0.0051
       165        -0.0551      0.0775      0.0789      0.0153      0.0145
       166        -0.0189     -0.0464      0.2698      0.0753      0.0720
       167         0.0914      0.0457      0.0810      0.0170      0.0163
       168         0.0788     -0.0434     -0.0177      0.0084      0.0081
       169         0.1191      0.0564     -0.0387      0.0189      0.0181
       170        -0.1931     -0.0473     -0.0979      0.0491      0.0474
       171         0.2164     -0.1778      0.0126      0.0786      0.0764
       172         0.1366      0.3758      0.0762      0.1657      0.1615
       173         0.3709     -0.2874      0.0321      0.2212      0.2163
       174         0.2809     -0.3249     -0.0298      0.1853      0.1829
       175         0.0653     -0.0644      0.1732      0.0384      0.0380
       176         0.1014     -0.1169     -0.0061      0.0240      0.0239
       177        -0.0390      0.0576      0.0791      0.0111      0.0111
       178        -0.1070      0.0194      0.0066      0.0119      0.0119
       179         0.0245      0.1220     -0.0751      0.0211      0.0215
       180         0.0776      0.0751      0.0731      0.0170      0.0173
       181         0.0025      0.1557     -0.2363      0.0801      0.0818
       182         0.0451     -0.2558      0.0495      0.0699      0.0718
       183        -0.2222     -0.3505     -0.0807      0.1787      0.1838
       184         0.0504     -0.2304     -0.1590      0.0809      0.0837
       185        -0.0265     -0.2049     -0.0051      0.0427      0.0444
       186        -0.1270      0.2569      0.0372      0.0835      0.0871
       187         0.0022     -0.0356      0.3151      0.1006      0.1052
       188         0.0355     -0.2603      0.0079      0.0691      0.0728
       189        -0.2098      0.1381     -0.1989      0.1027      0.1082
       190         0.0592     -0.0456     -0.0689      0.0103      0.0109
       191         0.0789     -0.0230      0.1543      0.0306      0.0324
       192        -0.0214     -0.0481     -0.0989      0.0125      0.0134
       193         0.0792     -0.0741      0.0786      0.0179      0.0192
       194        -0.0233      0.3045      0.0029      0.0932      0.1009
       195         0.0669      0.0102     -0.0767      0.0105      0.0113
       196         0.0939      0.0862      0.0975      0.0258      0.0280
       197        -0.1768     -0.1030     -0.0537      0.0447      0.0488
       198        -0.0141     -0.0861     -0.4645      0.2234      0.2442
       199         0.0767      0.1259     -0.1259      0.0376      0.0412
       200         0.0089      0.0685      0.0890      0.0127      0.0140
       201        -0.0950     -0.1081      0.1640      0.0476      0.0527
       202        -0.1059      0.0168     -0.0449      0.0135      0.0150
       203         0.1065     -0.1209     -0.0925      0.0345      0.0383
       204        -0.1899     -0.1637     -0.0058      0.0629      0.0701
       205         0.0270     -0.1939     -0.0814      0.0449      0.0507
       206        -0.0130     -0.0684      0.1297      0.0217      0.0245
       207         0.0775     -0.0374     -0.0944      0.0163      0.0186
       208         0.0513     -0.0895     -0.0418      0.0124      0.0142
       209        -0.1001      0.0665     -0.0383      0.0159      0.0183
       210        -0.0064      0.0605     -0.0291      0.0046      0.0053
       211         0.0481      0.0819      0.0756      0.0147      0.0171
       212         0.0176      0.0326      0.5728      0.3295      0.3852
       213         0.0249     -0.0205      0.0554      0.0041      0.0048
       214         0.0149     -0.0890      0.4002      0.1683      0.1982
       215         0.0438     -0.0230     -0.0159      0.0027      0.0032
       216        -0.0278     -0.0847     -0.0249      0.0086      0.0101
       217        -0.0490     -0.0273      0.0706      0.0081      0.0097
       218         0.1518      0.0676      0.5123      0.2901      0.3509
       219         0.2530     -0.1095     -0.2528      0.1399      0.1697
       220        -0.0155      0.0756     -0.2760      0.0821      0.0998
       221         0.1229      0.0696     -0.4544      0.2265      0.2775
       222         0.0292      0.0825      0.0123      0.0078      0.0096
       223        -0.0049     -0.0118     -0.2023      0.0411      0.0507
       224         0.0312      0.1289     -0.3170      0.1181      0.1466
       225         0.2164     -0.2300     -0.0671      0.1042      0.1296
       226         0.1180     -0.1543     -0.1008      0.0479      0.0599
       227         0.0304     -0.0176      0.2431      0.0603      0.0758
       228         0.0737      0.0370     -0.2592      0.0740      0.0930
       229        -0.0148      0.1332     -0.0429      0.0198      0.0250
       230        -0.2563      0.1413     -0.0028      0.0857      0.1089
       231        -0.0222      0.0105      0.1352      0.0189      0.0242
       232        -0.0133     -0.0145     -0.1316      0.0177      0.0227
       233         0.0081     -0.0131     -0.1181      0.0142      0.0183
       234        -0.1209      0.0146      0.0157      0.0151      0.0195
       235         0.0225     -0.0518     -0.2058      0.0455      0.0591
       236         0.0391     -0.1234     -0.0123      0.0169      0.0221
       237        -0.0839     -0.0864     -0.0225      0.0150      0.0197
       238        -0.0814     -0.0155      0.0380      0.0083      0.0110
       239         0.0005      0.0055     -0.0025      0.0000      0.0000
       240         0.1268      0.0586      0.1138      0.0325      0.0432
       241         0.1204     -0.0297     -0.0659      0.0197      0.0262
       242        -0.0841     -0.0757     -0.0318      0.0138      0.0184
       243        -0.0183     -0.0247      0.0594      0.0045      0.0060
       244        -0.0228     -0.0776     -0.0080      0.0066      0.0089
       245         0.0923      0.0716      0.0585      0.0171      0.0231
       246         0.0439      0.0932     -0.1460      0.0319      0.0433
       247        -0.0555      0.0094     -0.1779      0.0348      0.0472
       248         0.0099     -0.0380      0.1026      0.0121      0.0165
       249         0.0288      0.0112      0.1147      0.0141      0.0194
       250        -0.0372     -0.0067      0.0194      0.0018      0.0025
       251        -0.0499      0.0482      0.0406      0.0065      0.0089
       252        -0.0734      0.0334     -0.0756      0.0122      0.0169
       253        -0.1805      0.0629     -0.0753      0.0422      0.0589
       254         0.0119     -0.0110      0.2084      0.0437      0.0612
       255        -0.0235     -0.0534     -0.0507      0.0060      0.0084
       256         0.1385      0.0574     -0.1237      0.0378      0.0532
       257         0.1078      0.0560      0.2394      0.0721      0.1022
       258         0.0212      0.0375     -0.1914      0.0385      0.0547
       259        -0.0221     -0.0373     -0.1785      0.0337      0.0483
       260         0.0067     -0.0264      0.0311      0.0017      0.0025
       261        -0.0027     -0.0824     -0.0578      0.0101      0.0146
       262         0.0204     -0.0040      0.0662      0.0048      0.0069
       263         0.0617     -0.0342      0.0577      0.0083      0.0120
       264        -0.0475      0.0215     -0.0538      0.0056      0.0081
       265        -0.0349     -0.0076      0.1646      0.0284      0.0411
       266         0.1158     -0.0168      0.0344      0.0149      0.0216
       267        -0.0112     -0.0079     -0.0253      0.0008      0.0012
       268         0.1592     -0.0064     -0.0574      0.0287      0.0420
       269        -0.0637     -0.0073     -0.1401      0.0237      0.0348
       270        -0.1660      0.0962      0.0279      0.0376      0.0553
       271        -0.0956      0.0737     -0.0234      0.0151      0.0223
       272        -0.0620      0.0498      0.1356      0.0247      0.0366
       273        -0.0287      0.0027      0.0114      0.0010      0.0014
       274         0.0835      0.0361     -0.0005      0.0083      0.0123
       275         0.0833     -0.0757     -0.0303      0.0136      0.0203
       276         0.0036      0.0249      0.0027      0.0006      0.0010
       277         0.0570      0.0193     -0.0496      0.0061      0.0091
       278         0.0151      0.0122      0.0015      0.0004      0.0006
       279         0.0244     -0.0124     -0.2152      0.0470      0.0712
       280         0.0461      0.0760     -0.0044      0.0079      0.0120
       281        -0.0671     -0.0374     -0.0793      0.0122      0.0187
       282         0.0160     -0.0539     -0.0677      0.0077      0.0119
       283         0.0454      0.0252     -0.2380      0.0593      0.0913
       284         0.1018     -0.0353     -0.0020      0.0116      0.0180
       285        -0.0118     -0.0326     -0.0680      0.0058      0.0090
       286        -0.0040     -0.0007     -0.1367      0.0187      0.0290
       287        -0.0042      0.1322     -0.0944      0.0264      0.0410
       288         0.0399     -0.0876      0.0077      0.0093      0.0146
       289        -0.0402     -0.0362     -0.1284      0.0194      0.0304
       290        -0.0691     -0.1468     -0.0850      0.0335      0.0526
       291        -0.0402     -0.1059      0.2263      0.0640      0.1008
       292        -0.0073     -0.0457     -0.1826      0.0355      0.0561
       293         0.0204     -0.0366      0.0705      0.0067      0.0107
       294        -0.0530      0.0692     -0.0102      0.0077      0.0123
       295         0.0054     -0.0249     -0.0442      0.0026      0.0042
       296        -0.0163     -0.0362     -0.0020      0.0016      0.0025
       297        -0.0707      0.0144     -0.0203      0.0056      0.0091
       298        -0.0789     -0.0040      0.2058      0.0486      0.0785
       299        -0.0119      0.0018     -0.0600      0.0037      0.0061
       300         0.0272     -0.0794      0.0306      0.0080      0.0130
       301        -0.0152     -0.0135      0.0004      0.0004      0.0007
       302         0.0097      0.0044     -0.0567      0.0033      0.0055
       303         0.0266     -0.0079      0.0302      0.0017      0.0028
       304        -0.0159      0.0003     -0.0348      0.0015      0.0024
       305         0.0017     -0.0168     -0.0977      0.0098      0.0162
       306         0.1062     -0.0933      0.0511      0.0226      0.0373
       307         0.0662      0.0209     -0.0211      0.0053      0.0088
       308        -0.0309      0.0116     -0.1721      0.0307      0.0514
       309        -0.0384     -0.0362     -0.0090      0.0029      0.0049
       310         0.0156     -0.0359      0.0198      0.0019      0.0033
       311        -0.0468     -0.0286      0.0693      0.0078      0.0133
       312        -0.0390      0.0799      0.0209      0.0083      0.0142
       313        -0.0659      0.0596      0.0363      0.0092      0.0157
       314        -0.0340      0.0001     -0.0507      0.0037      0.0064
       315         0.0538     -0.0750     -0.0407      0.0102      0.0175
       316         0.0572      0.0591     -0.0060      0.0068      0.0117
       317         0.0386     -0.0737      0.0116      0.0071      0.0121
       318        -0.0082      0.0749      0.0659      0.0100      0.0173
       319        -0.0438      0.1209      0.0499      0.0190      0.0330
       320        -0.0089      0.0029     -0.1729      0.0300      0.0520
       321         0.0592     -0.0763      0.0285      0.0101      0.0177
       322         0.0311     -0.0421     -0.1048      0.0137      0.0241
       323         0.0489     -0.0218      0.0606      0.0065      0.0115
       324        -0.0009     -0.0431      0.0065      0.0019      0.0034
       325         0.0355     -0.0246     -0.0555      0.0050      0.0088
       326        -0.0011      0.0155      0.0146      0.0005      0.0008
       327        -0.0143      0.0228     -0.0016      0.0007      0.0013
       328        -0.0130     -0.0329      0.0157      0.0015      0.0027
       329        -0.0397      0.0812     -0.0043      0.0082      0.0147
       330         0.0019      0.0786      0.0130      0.0064      0.0115
       331        -0.0460     -0.0176     -0.0024      0.0024      0.0044
       332         0.0028      0.0595     -0.0280      0.0043      0.0079
       333        -0.0650     -0.1699      0.1418      0.0532      0.0970
       334         0.0538     -0.0972     -0.1363      0.0309      0.0564
       335         0.0030     -0.0236      0.0341      0.0017      0.0032
       336        -0.0976     -0.0486      0.0180      0.0122      0.0224
       337         0.0077      0.0277      0.1829      0.0343      0.0632
       338         0.0324     -0.0685      0.0488      0.0081      0.0150
       339         0.0018     -0.0274      0.0162      0.0010      0.0019
       340        -0.0033     -0.0499     -0.0480      0.0048      0.0090
       341        -0.0060      0.0353     -0.0880      0.0090      0.0169
       342         0.0125     -0.0273     -0.0250      0.0015      0.0029
       343        -0.1903      0.0724      0.0562      0.0446      0.0838
       344         0.1385     -0.0706      0.1199      0.0385      0.0728
       345         0.0642     -0.1094      0.0140      0.0163      0.0311
       346        -0.1284     -0.0067     -0.0852      0.0238      0.0455
       347        -0.0364     -0.0637     -0.0274      0.0061      0.0117
       348         0.1139     -0.1437      0.0807      0.0401      0.0771
[...]
     14  -0.800000D-01 -0.263384D-01  0.398127D-01 -0.249062D+00 -0.371845D+00
     15  -0.645999D+00  0.303994D+00 -0.399658D-01  0.704925D+00  0.578820D+00
     16   0.235908D-01  0.983691D-01 -0.115693D+00  0.220478D-01 -0.107968D+00
               381           382           383           384           385 
      1  -0.146650D+03 -0.146643D+03 -0.146636D+03 -0.146625D+03 -0.146608D+03
      2   0.154902D-01 -0.837908D-02 -0.182851D-01  0.114928D-01  0.674873D-01
      3   0.216622D-01 -0.481930D-01  0.547219D-01 -0.594722D-01 -0.711019D-02
      4  -0.843936D-01 -0.104287D+00 -0.875697D-01  0.454604D-01  0.147810D-02
      5  -0.410486D-01  0.469931D-01  0.740376D-01 -0.492844D-01 -0.189776D+00
      6  -0.624573D-01  0.145640D+00 -0.155603D+00  0.118822D+00  0.238719D-01
      7   0.228315D+00  0.257679D+00  0.229019D+00 -0.121099D+00 -0.932856D-01
      8  -0.143448D-01 -0.104496D+00 -0.665898D-01  0.371525D-03 -0.650389D-01
      9  -0.171231D+00  0.488797D+00  0.421867D+00 -0.101480D+00 -0.856836D-01
     10   0.350299D-01 -0.507446D-01 -0.179969D+00 -0.516140D-01  0.442417D+00
     11   0.865289D-01  0.434831D+00 -0.564754D+00  0.156580D+01  0.237032D+00
     12   0.452765D-01 -0.947159D-01 -0.365535D-01  0.316372D+00 -0.946653D-01
     13   0.253235D-01  0.478170D-01 -0.219576D-02 -0.787915D-01  0.391118D-02
     14   0.170367D+00 -0.462414D-01 -0.231800D+00  0.578132D-01  0.344124D+00
     15   0.194306D+00 -0.882160D+00 -0.599117D+00  0.177361D+00  0.211762D+00
     16   0.410003D-01 -0.105658D+00 -0.180785D+00 -0.584875D-01 -0.908186D-01
               386           387           388           389           390 
      1  -0.146598D+03 -0.146568D+03 -0.146554D+03 -0.146549D+03 -0.146536D+03
      2  -0.143192D-02 -0.437214D-01 -0.466246D-01 -0.545575D-01  0.319510D-01
      3  -0.345894D-02  0.157405D-01 -0.990833D-02 -0.134469D-01 -0.782834D-03
      4  -0.132409D+00  0.619397D-01 -0.397111D-01  0.336614D-01 -0.780572D-01
      5  -0.277400D-01  0.152776D+00  0.142797D+00  0.156080D+00 -0.953233D-01
      6   0.173502D-01 -0.146874D-01  0.518550D-01  0.276039D-01  0.442831D-02
      7   0.323166D+00 -0.186632D+00  0.114297D+00 -0.171822D+00  0.200859D+00
      8  -0.175653D+00  0.518700D-01  0.151823D-01 -0.356931D-01 -0.128964D+00
      9  -0.216391D+00  0.239363D+00 -0.270800D+00  0.157181D+01  0.407178D+00
     10  -0.200421D+00 -0.714136D-01  0.347206D+00  0.122636D-01  0.225202D-01
     11   0.538426D+00  0.107723D+01 -0.183277D+00 -0.451658D+00 -0.227683D+00
     12   0.172856D+00 -0.265558D+00 -0.446963D-01  0.901727D-01 -0.299639D-01
     13  -0.904609D-01  0.147739D-01 -0.158272D+00  0.123932D+00 -0.837943D-01
     14  -0.354046D+00  0.189432D-01  0.181216D+00 -0.397757D-01  0.102817D+00
     15   0.771197D-01 -0.125004D+00  0.336115D+00 -0.180863D+01 -0.553044D+00
     16  -0.150749D+00  0.726812D-01  0.121242D+00  0.325644D-01 -0.152271D+00
               391           392           393           394           395 
      1  -0.146531D+03 -0.146522D+03 -0.146515D+03 -0.146511D+03 -0.146505D+03
      2  -0.810217D-02  0.582411D-01 -0.652776D-01  0.200503D-01  0.283873D-01
      3  -0.565680D-01  0.433694D-01 -0.229596D-01 -0.409274D-01 -0.381445D-02
      4  -0.831933D-01  0.978435D-03  0.260564D-02 -0.280084D-01 -0.115043D+00
      5   0.274915D-01 -0.196878D+00  0.201211D+00 -0.500762D-01 -0.980383D-01
      6   0.156225D+00 -0.124037D+00  0.441541D-01  0.137053D+00  0.392159D-02
      7   0.253448D+00 -0.521281D-02 -0.141217D-01  0.852717D-01  0.326593D+00
      8  -0.113768D+00  0.140249D-01  0.237580D-01 -0.694568D-01 -0.124050D+00
      9   0.690728D-01  0.164715D+00 -0.135962D+00  0.209520D+00 -0.113457D+01
     10  -0.866469D-01  0.908634D-01 -0.269600D+00  0.197566D+00 -0.148562D+00
     11  -0.963604D+00  0.872315D+00 -0.267902D+00 -0.216112D+00 -0.428770D+00
     12   0.120421D+00 -0.139878D+00  0.137625D+00  0.119356D-01 -0.993771D-02
     13  -0.316150D-01 -0.537663D-01  0.436775D-01  0.363849D-01 -0.119926D+00
     14  -0.241805D+00  0.123656D+00 -0.458343D+00  0.319815D+00 -0.774370D-03
     15  -0.551109D-01 -0.212217D+00  0.194644D+00 -0.180764D+00  0.114784D+01
     16  -0.891311D-01 -0.298475D-01 -0.524217D-01 -0.364969D+00 -0.168308D+00
               396           397           398           399           400 
      1  -0.146486D+03 -0.146476D+03 -0.146474D+03 -0.146457D+03 -0.146439D+03
      2   0.454188D-02  0.220148D-01 -0.226192D-01  0.627223D-01  0.524295D-01
      3   0.236889D-01  0.637295D-01  0.346431D-01 -0.296284D-01  0.404790D-01
      4   0.277823D-01  0.206052D-01  0.545312D-01  0.469003D-01  0.804343D-02
      5  -0.177848D-01 -0.103250D-02  0.541942D-01 -0.210006D+00 -0.169114D+00
      6  -0.433241D-01 -0.228608D+00 -0.115377D+00  0.510989D-01 -0.120253D+00
      7  -0.669555D-01 -0.435872D-01 -0.154818D+00 -0.158409D+00 -0.280402D-01
      8   0.251341D-01  0.298029D-01  0.730022D-01  0.645253D-01  0.645293D-01
      9  -0.190144D+00 -0.133288D+00  0.695133D+00 -0.193176D+00  0.873114D-02
     10  -0.379822D-01  0.319516D+00 -0.826160D-01 -0.179511D+00  0.536223D+00
     11  -0.229828D+00 -0.873376D+00  0.119035D+00 -0.882610D+00 -0.202137D+00
     12  -0.954277D-01  0.270000D+00  0.508481D-01  0.803414D-01 -0.104421D+00
     13  -0.107720D+00 -0.709666D-01  0.683368D-01 -0.128472D-01  0.901755D-01
     14  -0.560273D-01  0.628091D+00 -0.451420D-02 -0.170355D-01  0.615591D+00
     15   0.173416D+00  0.147420D+00 -0.722856D+00  0.415859D+00 -0.143864D+00
     16   0.400629D-01  0.896210D-01  0.166618D+00  0.478135D-01  0.140385D+00
               401           402           403           404           405 
      1  -0.146437D+03 -0.146432D+03 -0.146422D+03 -0.146420D+03 -0.146407D+03
      2   0.232323D-01  0.291697D-01 -0.108685D-01  0.412492D-01 -0.115309D-01
      3  -0.102414D+00  0.406654D-01  0.147279D+00  0.374380D-01  0.555423D-01
      4  -0.191639D-01 -0.253635D-01 -0.105891D-01 -0.278439D-01 -0.112308D-01
      5  -0.766145D-01 -0.828539D-01  0.500464D-01 -0.123313D+00  0.345863D-01
      6   0.365652D+00 -0.117284D+00 -0.451648D+00 -0.103372D+00 -0.150291D+00
      7   0.640379D-01  0.744356D-01  0.319423D-01  0.971594D-01  0.297008D-01
      8   0.174880D-01  0.450026D-02 -0.540963D-01 -0.938512D-01 -0.469376D-02
      9  -0.459101D-01  0.321254D+00  0.281195D+00 -0.793114D+00 -0.608548D-01
     10  -0.222997D+00  0.623664D+00  0.989041D-01  0.419317D+00  0.176861D+00
     11  -0.479026D+00  0.177194D+00  0.109730D+01 -0.148433D+00  0.826819D-01
     12  -0.161433D+00 -0.545417D-01 -0.436108D-02 -0.805838D-01 -0.362033D-01
     13  -0.108556D+00  0.934811D-01 -0.211918D-01  0.438755D-01 -0.172243D+00
     14  -0.157901D-01  0.775465D+00  0.125958D+00  0.796626D+00  0.176648D+00
     15   0.120811D-01 -0.240404D+00 -0.305048D+00  0.915565D+00 -0.322533D-02
     16   0.232282D-02 -0.749999D-01 -0.566845D-01 -0.130775D+00 -0.594445D-01
               406           407           408           409           410 
      1  -0.146393D+03 -0.146378D+03 -0.146375D+03 -0.146347D+03 -0.146340D+03
      2   0.451422D-02  0.208513D-01 -0.581840D-01  0.454762D-01 -0.232262D-01
      3   0.344597D-02  0.141196D-03 -0.670250D-01 -0.105169D-02  0.312374D-01
      4   0.462256D-01 -0.172981D+00  0.389528D-02 -0.102558D-03  0.543617D-01
      5  -0.522143D-02 -0.728967D-01  0.173947D+00 -0.168918D+00  0.582424D-01
      6  -0.889045D-02 -0.224475D-01  0.228741D+00 -0.112717D-01 -0.119901D+00
      7  -0.125197D+00  0.443042D+00 -0.148283D-01 -0.859448D-02 -0.200497D+00
      8  -0.246876D-01 -0.224467D+00  0.227052D-01  0.381118D-01  0.110948D+00
      9  -0.143324D+00 -0.414961D+00 -0.451780D-01  0.357425D+00  0.111659D+00
     10   0.854494D-01  0.136178D-01  0.249317D+00  0.179820D+00 -0.187708D+00
     11  -0.320134D+00 -0.312121D+00 -0.104597D+00 -0.113813D+01  0.211372D+00
     12  -0.155747D-01  0.345218D-01 -0.122305D+00 -0.114528D+00  0.197139D-03
     13  -0.111970D+00 -0.117694D+00  0.119665D+00  0.173633D+00  0.508321D-01
     14   0.627545D-01  0.146393D+00  0.139923D+00  0.478171D+00 -0.191353D+00
     15   0.162932D+00  0.328752D+00  0.739962D-01 -0.367121D+00 -0.136869D+00
     16  -0.207797D+00 -0.352692D+00 -0.272658D-01  0.259092D-01 -0.146231D+00
               411           412           413           414           415 
      1  -0.146335D+03 -0.146324D+03 -0.146308D+03 -0.146289D+03 -0.146285D+03
      2   0.395319D-01  0.248323D-01  0.411707D-02  0.295695D-01  0.433357D-01
      3   0.309193D-01  0.562670D-01  0.124791D-01 -0.239220D-01 -0.851998D-01
      4   0.109046D-01 -0.331112D-01 -0.189910D-01 -0.111159D-01  0.175630D-01
      5  -0.139524D+00 -0.906676D-01 -0.343882D-01 -0.100695D+00 -0.153358D+00
      6  -0.104882D+00 -0.165004D+00 -0.405078D-01  0.825135D-01  0.276347D+00
      7  -0.498789D-01  0.888547D-01  0.482169D-01  0.324669D-01 -0.582809D-01
      8  -0.858234D-03 -0.880095D-02 -0.374686D-01 -0.793453D-02  0.225640D-01
      9  -0.617348D-01  0.146055D+00 -0.192267D+00  0.319778D-01  0.122332D+00
     10   0.221744D+00  0.183940D-01 -0.126216D+00 -0.737340D-02  0.325891D+00
     11  -0.245311D-01 -0.402504D-01 -0.709806D+00  0.298315D+00  0.123279D+01
     12   0.808414D-01 -0.241123D-01 -0.188241D+00 -0.166690D-01  0.281426D+00
     13   0.278151D-01 -0.110875D+00  0.773500D-01  0.182707D-02  0.108814D-02
     14   0.229194D+00  0.191268D+00 -0.317902D+00 -0.242901D-01  0.443685D+00
     15   0.135541D+00 -0.160681D+00  0.246977D+00  0.129980D-01 -0.159337D+00
     16  -0.617011D-01  0.658016D-02 -0.691842D-01  0.991161D-02 -0.371667D-01
               416           417           418           419           420 
      1  -0.146237D+03 -0.146218D+03 -0.146205D+03 -0.146203D+03 -0.146202D+03
      2   0.304569D-01  0.525877D-01  0.455090D-02  0.732675D-03 -0.304271D-01
      3   0.210938D-01  0.967552D-01  0.190507D-01 -0.233864D-01 -0.586613D-01
      4  -0.165182D-02  0.225518D-01 -0.281925D-01 -0.853165D-02 -0.260109D-01
      5  -0.733168D-01 -0.116076D+00 -0.198206D-01  0.134348D-01  0.105294D+00
      6  -0.713397D-01 -0.324159D+00 -0.620378D-01  0.693099D-01  0.185738D+00
      7   0.133622D-01 -0.795036D-01  0.112664D+00  0.792205D-01  0.856745D-01
      8   0.772214D-02  0.190668D-01  0.796353D-02 -0.546038D-01 -0.233697D-03
      9  -0.550648D-01  0.211755D+00 -0.232551D-01  0.361667D+00 -0.116128D+00
     10   0.182723D+00 -0.207632D+00 -0.141249D+00  0.836321D-01  0.229359D+00
     11   0.706164D+00 -0.228121D+00 -0.536602D+00  0.259446D-02  0.183942D+00
     12   0.188031D+00  0.153300D+00 -0.274848D-01  0.393775D-01 -0.194448D-01
     13   0.243605D-01  0.130365D+00  0.124338D+00 -0.688717D-01  0.872350D-01
     14   0.142189D+00 -0.726540D-01  0.112104D-01  0.460723D-01  0.103269D+00
     15   0.961180D-02 -0.228048D+00  0.924262D-01 -0.356830D+00  0.540257D-01
     16   0.594175D-01  0.805393D-01  0.714572D-01  0.661598D-02 -0.890902D-01
               421           422           423           424           425 
      1  -0.146190D+03 -0.146170D+03 -0.146156D+03 -0.146155D+03 -0.146132D+03
      2   0.571899D-01  0.104698D+00 -0.415100D-01  0.104612D+00 -0.484871D-01
      3  -0.367240D-01  0.932912D-01  0.175833D-01 -0.155870D-02 -0.127451D-01
      4  -0.112331D-01 -0.183706D-01 -0.135519D-01  0.117226D-01  0.233324D-02
      5  -0.237276D+00 -0.371371D+00  0.141359D+00 -0.352711D+00  0.152203D+00
      6   0.121596D+00 -0.369179D+00 -0.948824D-01  0.536784D-01  0.310671D-01
      7   0.206251D-01  0.665811D-01  0.378560D-01 -0.736253D-01  0.881795D-02
      8  -0.361933D-01 -0.297849D-01 -0.983424D-02  0.356123D-01 -0.378100D-02
      9   0.898047D-02 -0.101695D+00  0.988327D-01  0.303125D+00 -0.600181D-01
     10  -0.101939D+01  0.175402D+00 -0.755911D-01  0.866047D-01 -0.257390D+00
     11  -0.785436D+00  0.256793D+01  0.271262D+00 -0.526074D+00 -0.268184D-01
     12   0.159044D+00  0.744718D-01  0.793113D-01 -0.201043D+00  0.713692D-01
     13  -0.781887D-01 -0.124262D-01  0.348214D-01 -0.660035D-01  0.108088D+00
     14  -0.111126D+01  0.265009D+00 -0.624798D-01  0.216379D+00 -0.409432D+00
     15   0.302584D-01  0.673604D-01 -0.180816D+00 -0.220421D+00 -0.102074D-01
     16   0.702668D-02  0.217811D-01 -0.918026D-01 -0.721377D-01  0.353655D-01
               426           427           428           429           430 
      1  -0.146128D+03 -0.146105D+03 -0.146103D+03 -0.146085D+03 -0.146077D+03
      2  -0.149023D-01 -0.978904D-02  0.230646D-01  0.262695D-01  0.458532D-02
      3   0.549851D-02  0.889709D-02  0.235085D-01 -0.549453D-01  0.740686D-01
      4  -0.858063D-02  0.243341D-01 -0.144955D-01 -0.146504D-02 -0.853924D-02
      5   0.752524D-01 -0.183754D-01 -0.145875D+00 -0.574174D-01 -0.211748D-01
      6  -0.312888D-01 -0.693115D-02 -0.562515D-01  0.183896D+00 -0.224531D+00
      7   0.389710D-01 -0.687942D-01  0.455807D-01  0.164685D-02  0.255292D-01
      8  -0.426032D-01 -0.266022D-01 -0.896553D-02  0.236822D-01 -0.227684D-01
      9  -0.352684D-02 -0.352835D-02  0.354125D-01  0.197580D-01 -0.900321D-01
     10  -0.174438D+00 -0.166987D+00 -0.797950D+00 -0.147720D+00 -0.770093D-01
     11  -0.531787D+00 -0.189753D+00  0.174835D+00 -0.193635D+00 -0.145073D+01
     12  -0.945915D-02  0.296571D-01  0.101671D+00  0.167795D+00  0.215037D-01
     13   0.304923D+00 -0.305927D-01 -0.450517D-01 -0.230826D+00  0.423963D-01
     14  -0.283200D+00 -0.582428D-01 -0.906879D+00 -0.291196D+00 -0.107999D+00
     15   0.178743D-02 -0.413405D-01  0.137761D-02 -0.428535D-02  0.150116D+00
     16  -0.240957D-01 -0.151173D-01  0.411467D-01  0.354286D-01  0.132121D-01
               431           432           433           434           435 
      1  -0.146056D+03 -0.146035D+03 -0.146025D+03 -0.146023D+03 -0.145984D+03
      2   0.156027D-01 -0.271078D-01  0.687242D-01  0.411950D-01  0.632009D-02
      3  -0.300694D-02 -0.141878D-02 -0.106264D-01 -0.216702D-02 -0.102508D-01
      4   0.155966D-01 -0.417267D-02 -0.192109D-01  0.352121D-01 -0.159552D-01
      5  -0.456638D-01  0.625060D-01 -0.257345D+00 -0.151315D+00 -0.535511D-02
      6   0.125453D-01  0.133647D-01  0.382698D-01 -0.113069D-01  0.302953D-01
      7  -0.417042D-01  0.964653D-02  0.284417D-01 -0.360958D-01  0.565074D-01
      8   0.124323D-01  0.518988D-02 -0.279379D-01  0.264517D-01 -0.260699D-01
      9  -0.163810D+00  0.795807D-01 -0.770987D-02 -0.251092D-01 -0.153224D+00
     10   0.943937D-01  0.897438D-02 -0.617333D+00 -0.390774D+00 -0.100251D+00
     11  -0.772703D-01  0.689071D-01  0.768315D+00  0.246797D+00  0.365645D+00
     12   0.220494D-01 -0.507470D-03 -0.160770D+00 -0.821705D-01  0.223085D-01
     13  -0.161910D-01 -0.408868D-01 -0.215191D-01 -0.149391D-01  0.158032D+00
     14   0.157153D+00  0.893073D-01 -0.659441D+00 -0.367725D+00 -0.290321D+00
     15   0.127349D+00 -0.442601D-01  0.197301D-01  0.535994D-02  0.893221D-01
     16   0.133328D-01 -0.227030D-01 -0.214894D-01  0.981083D-01 -0.944856D-02
               436           437           438           439           440 
      1  -0.145969D+03 -0.145919D+03 -0.145899D+03 -0.145882D+03 -0.145862D+03
      2  -0.101319D-01 -0.167251D-01 -0.651287D-02 -0.303397D-03 -0.860219D-01
      3  -0.266387D-01 -0.779327D-01 -0.167940D-02 -0.275118D-01  0.394568D-01
      4   0.310273D-02  0.911229D-02 -0.981188D-02 -0.393213D-02 -0.368405D-02
      5   0.146630D-02  0.709607D-01  0.310498D-01 -0.149583D-01  0.358160D+00
      6   0.102254D+00  0.280492D+00  0.166028D-01  0.741618D-01 -0.166485D+00
      7  -0.180382D-01 -0.263994D-01  0.304430D-01  0.180727D-01  0.283921D-01
      8   0.499634D-02  0.884854D-02 -0.153952D-01 -0.649163D-02 -0.346221D-01
      9   0.546638D-01  0.467089D-01 -0.800233D-01 -0.533328D-01 -0.649261D-01
     10   0.363352D-01 -0.523185D+00 -0.101666D+00  0.359277D-01 -0.826643D+00
     11  -0.835654D+00  0.659760D+00  0.354299D+00  0.784966D+00  0.222533D-01
     12  -0.255696D+00 -0.210252D+00 -0.830790D-01 -0.540779D-01  0.180987D+00
     13  -0.318629D-01 -0.351630D-01  0.749224D-01 -0.985739D-02  0.390403D-01
     14   0.806681D-03 -0.476819D+00 -0.849746D-01 -0.151432D+00 -0.910335D+00
     15  -0.109540D-01 -0.668224D-01  0.483902D-01  0.132519D-01  0.223826D-02
     16  -0.313052D-01 -0.887172D-02 -0.253023D-01  0.148836D-02  0.687647D-01
               441           442           443           444           445 
      1  -0.145855D+03 -0.145846D+03 -0.145811D+03 -0.145799D+03 -0.145769D+03
      2   0.394353D-01  0.558519D-01  0.438211D-01 -0.498848D-01 -0.775165D-02
      3   0.189222D-01  0.888885D-02  0.119977D-01 -0.248780D-02 -0.246075D-01
      4   0.127274D-01  0.116176D-01  0.206743D-01 -0.424717D-02  0.495825D-02
      5  -0.149371D+00 -0.233954D+00 -0.148898D+00  0.184168D+00  0.355714D-01
      6  -0.618699D-01 -0.786259D-01 -0.381746D-01  0.717621D-02  0.623752D-01
      7  -0.493744D-01 -0.546158D-01 -0.698961D-01  0.193974D-01 -0.682180D-02
      8   0.239859D-01  0.719415D-02  0.200000D-01  0.483000D-02 -0.151147D-02
      9   0.105679D+00  0.135398D+00  0.144811D+00 -0.479859D-01  0.596325D-02
     10   0.266022D+00 -0.469746D+00 -0.137581D+00  0.452018D+00 -0.157599D+00
     11  -0.659199D+00 -0.125538D+01 -0.933679D-01  0.573199D+00  0.575698D+00
     12  -0.932956D-01  0.404296D+00 -0.925493D-02 -0.128378D+00  0.198460D+00
     13  -0.588265D-01  0.646512D-02 -0.211540D+00  0.468672D-01 -0.112399D+00
     14   0.376840D+00 -0.279322D+00 -0.174892D+00  0.284789D+00 -0.241805D-01
     15  -0.338144D-01 -0.374585D-01 -0.103249D+00 -0.286562D-01 -0.187497D-01
     16   0.635221D-02  0.704125D-01  0.303371D-01 -0.328232D-01 -0.469182D-02
               446           447           448           449           450 
      1  -0.145758D+03 -0.145594D+03 -0.145536D+03 -0.145480D+03 -0.145452D+03
      2  -0.597745D-02 -0.577999D-02 -0.274881D-01  0.322570D-01  0.991028D-02
      3   0.120439D+00  0.347962D-01 -0.303279D-01 -0.868551D-02  0.575735D-02
      4  -0.895024D-03 -0.545537D-03 -0.447553D-03  0.167445D-02  0.876273D-03
      5   0.221762D-01  0.389565D-01  0.100173D+00 -0.876381D-01 -0.287197D-01
      6  -0.408725D+00 -0.117588D+00  0.102768D+00  0.289753D-01 -0.444300D-01
      7   0.127230D-01  0.388702D-02  0.549966D-03 -0.726005D-02 -0.659761D-02
      8  -0.249981D-01 -0.715471D-03  0.943647D-02  0.103504D-01 -0.409794D-02
      9  -0.495424D-01 -0.815273D-02 -0.238367D-02  0.239824D-01  0.205109D-01
     10  -0.439412D+00  0.269408D+00  0.254551D+00  0.294140D+00 -0.320607D+00
     11   0.551972D+00  0.174242D+00 -0.111825D+00 -0.355043D+00 -0.828091D+00
     12   0.373643D-01  0.181713D+00 -0.975004D-02 -0.618997D-01  0.167843D+00
     13  -0.301871D-01  0.634757D-01  0.423248D-01  0.371686D-01  0.761386D-01
     14  -0.428397D+00  0.182778D+00  0.453837D-01  0.319753D+00 -0.187486D+00
     15   0.238645D-01 -0.136655D-01 -0.169531D-01  0.100623D-02  0.219942D-01
     16   0.655656D-01  0.167630D-01 -0.234699D-01 -0.191845D-01  0.361573D-01
 Unable to Open any file for archive entry.
 1\1\GINC-HEL25\SP\RwB97XD TD-FC\def2SVP\C1H4N2\PRAKRITI\14-Aug-2021\0\
 \#P TD(Nstates=10000) wB97XD/def2SVP SCF(maxcycles=100) Int(Grid=ultra
 fine)\\xGDB7_00001_tier4.com\\0,1\N,0,1.112891,-0.176405,-0.045235\C,0
 ,-0.122478,0.41799,0.001125\N,0,-1.274011,-0.120898,0.007267\H,0,1.935
 384,0.373536,0.156455\H,0,1.193153,-1.174898,0.097903\H,0,-0.062396,1.
 518676,0.003527\H,0,-1.203435,-1.144133,0.001137\\Version=EM64L-G16Rev
 C.01\State=1-A\HF=-149.8415629\RMSD=4.592e-09\PG=C01 [X(C1H4N2)]\\@
 The archive entry for this job was punched.


 Time has a wonderful way of weeding out the trivial.
                                -- Richard Ben Sapir
 Job cpu time:       0 days  0 hours  3 minutes 17.1 seconds.
 Elapsed time:       0 days  0 hours  0 minutes 24.9 seconds.
 File lengths (MBytes):  RWF=    257 Int=      0 D2E=      0 Chk=     47 Scr=      1
 Normal termination of Gaussian 16 at Sat Aug 14 23:24:44 2021.
