 Entering Gaussian System, Link 0=g16
 Input=xGDB7_000015_TDDFT.com
 Output=xGDB7_000015_TDDFT.log
 Initial command:
 /home/prakriti/g16/l1.exe "/scratch/prakriti/PBS_7434525.helios/Gau-193918.inp" -scrdir="/scratch/prakriti/PBS_7434525.helios/"
 Entering Link 1 = /home/prakriti/g16/l1.exe PID=    193919.
  
 Copyright (c) 1988-2019, Gaussian, Inc.  All Rights Reserved.
  
 This is part of the Gaussian(R) 16 program.  It is based on
 the Gaussian(R) 09 system (copyright 2009, Gaussian, Inc.),
 the Gaussian(R) 03 system (copyright 2003, Gaussian, Inc.),
 the Gaussian(R) 98 system (copyright 1998, Gaussian, Inc.),
 the Gaussian(R) 94 system (copyright 1995, Gaussian, Inc.),
 the Gaussian 92(TM) system (copyright 1992, Gaussian, Inc.),
 the Gaussian 90(TM) system (copyright 1990, Gaussian, Inc.),
 the Gaussian 88(TM) system (copyright 1988, Gaussian, Inc.),
 the Gaussian 86(TM) system (copyright 1986, Carnegie Mellon
 University), and the Gaussian 82(TM) system (copyright 1983,
 Carnegie Mellon University). Gaussian is a federally registered
 trademark of Gaussian, Inc.
  
 This software contains proprietary and confidential information,
 including trade secrets, belonging to Gaussian, Inc.
  
 This software is provided under written license and may be
 used, copied, transmitted, or stored only in accord with that
 written license.
  
 The following legend is applicable only to US Government
 contracts under FAR:
  
                    RESTRICTED RIGHTS LEGEND
  
 Use, reproduction and disclosure by the US Government is
 subject to restrictions as set forth in subparagraphs (a)
 and (c) of the Commercial Computer Software - Restricted
 Rights clause in FAR 52.227-19.
  
 Gaussian, Inc.
 340 Quinnipiac St., Bldg. 40, Wallingford CT 06492
  
  
 ---------------------------------------------------------------
 Warning -- This program may not be used in any manner that
 competes with the business of Gaussian, Inc. or will provide
 assistance to any competitor of Gaussian, Inc.  The licensee
 of this program is prohibited from giving any competitor of
 Gaussian, Inc. access to this program.  By using this program,
 the user acknowledges that Gaussian, Inc. is engaged in the
 business of creating and licensing software in the field of
 computational chemistry and represents and warrants to the
 licensee that it is not a competitor of Gaussian, Inc. and that
 it will not use this program in any manner prohibited above.
 ---------------------------------------------------------------
  

 Cite this work as:
 Gaussian 16, Revision C.01,
 M. J. Frisch, G. W. Trucks, H. B. Schlegel, G. E. Scuseria, 
 M. A. Robb, J. R. Cheeseman, G. Scalmani, V. Barone, 
 G. A. Petersson, H. Nakatsuji, X. Li, M. Caricato, A. V. Marenich, 
 J. Bloino, B. G. Janesko, R. Gomperts, B. Mennucci, H. P. Hratchian, 
 J. V. Ortiz, A. F. Izmaylov, J. L. Sonnenberg, D. Williams-Young, 
 F. Ding, F. Lipparini, F. Egidi, J. Goings, B. Peng, A. Petrone, 
 T. Henderson, D. Ranasinghe, V. G. Zakrzewski, J. Gao, N. Rega, 
 G. Zheng, W. Liang, M. Hada, M. Ehara, K. Toyota, R. Fukuda, 
 J. Hasegawa, M. Ishida, T. Nakajima, Y. Honda, O. Kitao, H. Nakai, 
 T. Vreven, K. Throssell, J. A. Montgomery, Jr., J. E. Peralta, 
 F. Ogliaro, M. J. Bearpark, J. J. Heyd, E. N. Brothers, K. N. Kudin, 
 V. N. Staroverov, T. A. Keith, R. Kobayashi, J. Normand, 
 K. Raghavachari, A. P. Rendell, J. C. Burant, S. S. Iyengar, 
 J. Tomasi, M. Cossi, J. M. Millam, M. Klene, C. Adamo, R. Cammi, 
 J. W. Ochterski, R. L. Martin, K. Morokuma, O. Farkas, 
 J. B. Foresman, and D. J. Fox, Gaussian, Inc., Wallingford CT, 2019.
 
 ******************************************
 Gaussian 16:  EM64L-G16RevC.01  3-Jul-2019
                14-Aug-2021 
 ******************************************
 %mem=8gb
 %nproc=8
 Will use up to    8 processors via shared memory.
 ----------------------------------------------------------------------
 #P TD(Nstates=10000) wB97XD/def2SVP SCF(maxcycles=100) Int(Grid=ultraf
 ine)
 ----------------------------------------------------------------------
 1/38=1,172=1/1;
 2/12=2,17=6,18=5,40=1/2;
 3/5=43,7=101,11=9,25=1,30=1,74=-58,75=-5/1,2,3,8;
 4//1;
 5/5=2,7=100,38=5/2;
 8/6=1,10=1,108=10000/1;
 9/41=10000,42=1,70=2/14;
 6/7=2,8=2,9=2,10=2/1;
 99/5=1,9=1/99;
 Leave Link    1 at Sat Aug 14 07:22:50 2021, MaxMem=  1073741824 cpu:               0.3 elap:               0.0
 (Enter /home/prakriti/g16/l101.exe)
 ---------------------
 xGDB7_00001_tier4.com
 ---------------------
 Symbolic Z-matrix:
 Charge =  0 Multiplicity = 1
 6                    -1.24414  -0.23575  -0.02792 
 6                     0.05307   0.55435   0.0546 
 7                     1.20258  -0.3202   -0.11851 
 1                    -2.11985   0.42504   0.05498 
 1                    -1.30763  -0.97611   0.78644 
 1                    -1.30043  -0.78069  -0.98168 
 1                     0.06348   1.13096   1.00438 
 1                     0.07027   1.3031   -0.75485 
 1                     1.25454  -0.98676   0.65037 
 1                     2.06797   0.21422  -0.09015 
 
 ITRead=  0  0  0  0  0  0  0  0  0  0
 MicOpt= -1 -1 -1 -1 -1 -1 -1 -1 -1 -1
 NAtoms=     10 NQM=       10 NQMF=       0 NMMI=      0 NMMIF=      0
                NMic=       0 NMicF=      0.
                    Isotopes and Nuclear Properties:
 (Nuclear quadrupole moments (NQMom) in fm**2, nuclear magnetic moments (NMagM)
  in nuclear magnetons)

  Atom         1           2           3           4           5           6           7           8           9          10
 IAtWgt=          12          12          14           1           1           1           1           1           1           1
 AtmWgt=  12.0000000  12.0000000  14.0030740   1.0078250   1.0078250   1.0078250   1.0078250   1.0078250   1.0078250   1.0078250
 NucSpn=           0           0           2           1           1           1           1           1           1           1
 AtZEff=  -0.0000000  -0.0000000  -0.0000000  -0.0000000  -0.0000000  -0.0000000  -0.0000000  -0.0000000  -0.0000000  -0.0000000
 NQMom=    0.0000000   0.0000000   2.0440000   0.0000000   0.0000000   0.0000000   0.0000000   0.0000000   0.0000000   0.0000000
 NMagM=    0.0000000   0.0000000   0.4037610   2.7928460   2.7928460   2.7928460   2.7928460   2.7928460   2.7928460   2.7928460
 AtZNuc=   6.0000000   6.0000000   7.0000000   1.0000000   1.0000000   1.0000000   1.0000000   1.0000000   1.0000000   1.0000000
 Leave Link  101 at Sat Aug 14 07:22:51 2021, MaxMem=  1073741824 cpu:               0.6 elap:               0.1
 (Enter /home/prakriti/g16/l202.exe)
                          Input orientation:                          
 ---------------------------------------------------------------------
 Center     Atomic      Atomic             Coordinates (Angstroms)
 Number     Number       Type             X           Y           Z
 ---------------------------------------------------------------------
      1          6           0       -1.244141   -0.235754   -0.027915
      2          6           0        0.053070    0.554353    0.054597
      3          7           0        1.202580   -0.320195   -0.118513
      4          1           0       -2.119845    0.425044    0.054983
      5          1           0       -1.307630   -0.976111    0.786441
      6          1           0       -1.300428   -0.780687   -0.981677
      7          1           0        0.063480    1.130960    1.004377
      8          1           0        0.070274    1.303101   -0.754854
      9          1           0        1.254541   -0.986760    0.650372
     10          1           0        2.067972    0.214222   -0.090146
 ---------------------------------------------------------------------
                    Distance matrix (angstroms):
                    1          2          3          4          5
     1  C    0.000000
     2  C    1.521129   0.000000
     3  N    2.449853   1.454708   0.000000
     4  H    1.100174   2.176759   3.409397   0.000000
     5  H    1.102422   2.174723   2.747785   1.777065   0.000000
     6  H    1.099901   2.165214   2.687407   1.788825   1.778900
     7  H    2.154857   1.111155   2.159695   2.483259   2.523329
     8  H    2.150396   1.102783   2.078975   2.494683   3.077177
     9  H    2.695829   2.042917   1.018918   3.705963   2.565804
    10  H    3.343119   2.048529   1.017502   4.195631   3.685103
                    6          7          8          9         10
     6  H    0.000000
     7  H    3.075557   0.000000
     8  H    2.504485   1.767646   0.000000
     9  H    3.038736   2.455338   2.936088   0.000000
    10  H    3.623643   2.460971   2.370294   1.628617   0.000000
 Stoichiometry    C2H7N
 Framework group  C1[X(C2H7N)]
 Deg. of freedom    24
 Full point group                 C1      NOp   1
 Largest Abelian subgroup         C1      NOp   1
 Largest concise Abelian subgroup C1      NOp   1
                         Standard orientation:                         
 ---------------------------------------------------------------------
 Center     Atomic      Atomic             Coordinates (Angstroms)
 Number     Number       Type             X           Y           Z
 ---------------------------------------------------------------------
      1          6           0       -1.244141   -0.235754   -0.027915
      2          6           0        0.053070    0.554353    0.054597
      3          7           0        1.202580   -0.320195   -0.118513
      4          1           0       -2.119845    0.425044    0.054983
      5          1           0       -1.307630   -0.976111    0.786441
      6          1           0       -1.300428   -0.780687   -0.981677
      7          1           0        0.063480    1.130960    1.004377
      8          1           0        0.070274    1.303101   -0.754854
      9          1           0        1.254541   -0.986760    0.650372
     10          1           0        2.067972    0.214222   -0.090146
 ---------------------------------------------------------------------
 Rotational constants (GHZ):          32.8119153           8.9405665           7.8599598
 Leave Link  202 at Sat Aug 14 07:22:51 2021, MaxMem=  1073741824 cpu:               0.1 elap:               0.0
 (Enter /home/prakriti/g16/l301.exe)
 Standard basis: def2SVP (5D, 7F)
 Ernie: Thresh=  0.10000D-02 Tol=  0.10000D-05 Strict=F.
 There are    80 symmetry adapted cartesian basis functions of A   symmetry.
 There are    77 symmetry adapted basis functions of A   symmetry.
    77 basis functions,   124 primitive gaussians,    80 cartesian basis functions
    13 alpha electrons       13 beta electrons
       nuclear repulsion energy        82.8945901699 Hartrees.
 IExCor= 4639 DFT=T Ex+Corr=wB97XD ExCW=0 ScaHFX=  1.000000
 ScaDFX=  1.000000  1.000000  1.000000  1.000000 ScalE2=  1.000000  1.000000
 IRadAn=      5 IRanWt=     -1 IRanGd=            0 ICorTp=0 IEmpDi=121
 HFx  wShort=  0.000000 wLong=  0.200000 cFull=  0.222036 cShort=  0.000000 cLong=  0.777964
 DFx  wShort=  0.000000 wLong=  0.200000 cFull=  0.000000 cShort=  0.000000 cLong=  1.000000
 NAtoms=   10 NActive=   10 NUniq=   10 SFac= 1.00D+00 NAtFMM=   60 NAOKFM=F Big=F
 Integral buffers will be    131072 words long.
 Raffenetti 1 integral format.
 Two-electron integral symmetry is turned on.
 R6Disp:  Grimme-D2 Dispersion energy=       -0.0032334560 Hartrees.
 Nuclear repulsion after empirical dispersion term =       82.8913567139 Hartrees.
 Leave Link  301 at Sat Aug 14 07:22:51 2021, MaxMem=  1073741824 cpu:               0.4 elap:               0.1
 (Enter /home/prakriti/g16/l302.exe)
 NPDir=0 NMtPBC=     1 NCelOv=     1 NCel=       1 NClECP=     1 NCelD=      1
         NCelK=      1 NCelE2=     1 NClLst=     1 CellRange=     0.0.
 One-electron integrals computed using PRISM.
 One-electron integral symmetry used in STVInt
   1 Symmetry operations used in ECPInt.
 ECPInt:  NShTT=     780 NPrTT=    2616 LenC2=     781 LenP2D=    2392.
 LDataN:  DoStor=T MaxTD1= 4 Len=   56
 NBasis=    77 RedAO= T EigKep=  3.27D-03  NBF=    77
 NBsUse=    77 1.00D-06 EigRej= -1.00D+00 NBFU=    77
 Precomputing XC quadrature grid using
 IXCGrd= 4 IRadAn=           5 IRanWt=          -1 IRanGd=           0 AccXCQ= 0.00D+00.
 Generated NRdTot=       0 NPtTot=           0 NUsed=           0 NTot=          32
 NSgBfM=    80    80    80    80    80 MxSgAt=    10 MxSgA2=    10.
 Leave Link  302 at Sat Aug 14 07:22:51 2021, MaxMem=  1073741824 cpu:               1.1 elap:               0.2
 (Enter /home/prakriti/g16/l303.exe)
 DipDrv:  MaxL=1.
 Leave Link  303 at Sat Aug 14 07:22:51 2021, MaxMem=  1073741824 cpu:               0.2 elap:               0.0
 (Enter /home/prakriti/g16/l308.exe)
 Leave Link  308 at Sat Aug 14 07:22:51 2021, MaxMem=  1073741824 cpu:               0.2 elap:               0.0
 (Enter /home/prakriti/g16/l401.exe)
 ExpMin= 1.22D-01 ExpMax= 1.71D+03 ExpMxC= 2.58D+02 IAcc=3 IRadAn=         5 AccDes= 0.00D+00
 Harris functional with IExCor= 4639 and IRadAn=       5 diagonalized for initial guess.
 HarFok:  IExCor= 4639 AccDes= 0.00D+00 IRadAn=         5 IDoV= 1 UseB2=F ITyADJ=14
 ICtDFT=  3500011 ScaDFX=  1.000000  1.000000  1.000000  1.000000
 FoFCou: FMM=F IPFlag=           0 FMFlag=      100000 FMFlg1=           0
         NFxFlg=           0 DoJE=T BraDBF=F KetDBF=T FulRan=T
         wScrn=  0.000000 ICntrl=       500 IOpCl=  0 I1Cent=   200000004 NGrid=           0
         NMat0=    1 NMatS0=      1 NMatT0=    0 NMatD0=    1 NMtDS0=    0 NMtDT0=    0
 Petite list used in FoFCou.
 Harris En= -128.600697914038    
 JPrj=0 DoOrth=F DoCkMO=F.
 Leave Link  401 at Sat Aug 14 07:22:51 2021, MaxMem=  1073741824 cpu:               2.9 elap:               0.4
 (Enter /home/prakriti/g16/l502.exe)
 Keep R1 ints in memory in canonical form, NReq=16506651.
 FoFCou: FMM=F IPFlag=           0 FMFlag=           0 FMFlg1=           0
         NFxFlg=           0 DoJE=F BraDBF=F KetDBF=F FulRan=T
         wScrn=  0.000000 ICntrl=       600 IOpCl=  0 I1Cent=           0 NGrid=           0
         NMat0=    1 NMatS0=   3003 NMatT0=    0 NMatD0=    1 NMtDS0=    0 NMtDT0=    0
 Symmetry not used in FoFCou.
 Two-electron integral symmetry not used.
 Closed shell SCF:
 Using DIIS extrapolation, IDIIS=  1040.
 NGot=  1073741824 LenX=  1064706070 LenY=  1064699229
 Requested convergence on RMS density matrix=1.00D-08 within 100 cycles.
 Requested convergence on MAX density matrix=1.00D-06.
 Requested convergence on             energy=1.00D-06.
 No special actions if energy rises.
 Integral accuracy reduced to 1.0D-05 until final iterations.

 Cycle   1  Pass 0  IDiag  1:
 E= -135.010282202344    
 DIIS: error= 3.70D-02 at cycle   1 NSaved=   1.
 NSaved= 1 IEnMin= 1 EnMin= -135.010282202344     IErMin= 1 ErrMin= 3.70D-02
 ErrMax= 3.70D-02  0.00D+00 EMaxC= 1.00D-01 BMatC= 5.51D-02 BMatP= 5.51D-02
 IDIUse=3 WtCom= 6.30D-01 WtEn= 3.70D-01
 Coeff-Com:  0.100D+01
 Coeff-En:   0.100D+01
 Coeff:      0.100D+01
 Gap=     0.450 Goal=   None    Shift=    0.000
 GapD=    0.450 DampG=2.000 DampE=0.500 DampFc=1.0000 IDamp=-1.
 RMSDP=2.59D-03 MaxDP=3.81D-02              OVMax= 4.67D-02

 Cycle   2  Pass 0  IDiag  1:
 E= -135.027600611973     Delta-E=       -0.017318409629 Rises=F Damp=F
 DIIS: error= 5.77D-03 at cycle   2 NSaved=   2.
 NSaved= 2 IEnMin= 2 EnMin= -135.027600611973     IErMin= 2 ErrMin= 5.77D-03
 ErrMax= 5.77D-03  0.00D+00 EMaxC= 1.00D-01 BMatC= 5.34D-03 BMatP= 5.51D-02
 IDIUse=3 WtCom= 9.42D-01 WtEn= 5.77D-02
 Coeff-Com:  0.144D+00 0.856D+00
 Coeff-En:   0.000D+00 0.100D+01
 Coeff:      0.136D+00 0.864D+00
 Gap=     0.452 Goal=   None    Shift=    0.000
 RMSDP=1.22D-03 MaxDP=3.94D-02 DE=-1.73D-02 OVMax= 2.57D-02

 Cycle   3  Pass 0  IDiag  1:
 E= -135.031409299607     Delta-E=       -0.003808687635 Rises=F Damp=F
 DIIS: error= 3.43D-03 at cycle   3 NSaved=   3.
 NSaved= 3 IEnMin= 3 EnMin= -135.031409299607     IErMin= 3 ErrMin= 3.43D-03
 ErrMax= 3.43D-03  0.00D+00 EMaxC= 1.00D-01 BMatC= 1.56D-03 BMatP= 5.34D-03
 IDIUse=3 WtCom= 9.66D-01 WtEn= 3.43D-02
 Coeff-Com: -0.144D-02 0.349D+00 0.653D+00
 Coeff-En:   0.000D+00 0.151D+00 0.849D+00
 Coeff:     -0.139D-02 0.342D+00 0.659D+00
 Gap=     0.451 Goal=   None    Shift=    0.000
 RMSDP=4.37D-04 MaxDP=1.26D-02 DE=-3.81D-03 OVMax= 9.92D-03

 Cycle   4  Pass 0  IDiag  1:
 E= -135.032978195723     Delta-E=       -0.001568896115 Rises=F Damp=F
 DIIS: error= 1.86D-04 at cycle   4 NSaved=   4.
 NSaved= 4 IEnMin= 4 EnMin= -135.032978195723     IErMin= 4 ErrMin= 1.86D-04
 ErrMax= 1.86D-04  0.00D+00 EMaxC= 1.00D-01 BMatC= 7.05D-06 BMatP= 1.56D-03
 IDIUse=3 WtCom= 9.98D-01 WtEn= 1.86D-03
 Coeff-Com: -0.911D-03 0.494D-01 0.122D+00 0.829D+00
 Coeff-En:   0.000D+00 0.000D+00 0.000D+00 0.100D+01
 Coeff:     -0.909D-03 0.493D-01 0.122D+00 0.830D+00
 Gap=     0.450 Goal=   None    Shift=    0.000
 RMSDP=4.65D-05 MaxDP=6.76D-04 DE=-1.57D-03 OVMax= 7.59D-04

 Cycle   5  Pass 0  IDiag  1:
 E= -135.032984582664     Delta-E=       -0.000006386942 Rises=F Damp=F
 DIIS: error= 1.03D-04 at cycle   5 NSaved=   5.
 NSaved= 5 IEnMin= 5 EnMin= -135.032984582664     IErMin= 5 ErrMin= 1.03D-04
 ErrMax= 1.03D-04  0.00D+00 EMaxC= 1.00D-01 BMatC= 1.31D-06 BMatP= 7.05D-06
 IDIUse=3 WtCom= 9.99D-01 WtEn= 1.03D-03
 Coeff-Com: -0.268D-03-0.182D-01-0.216D-01 0.284D+00 0.756D+00
 Coeff-En:   0.000D+00 0.000D+00 0.000D+00 0.000D+00 0.100D+01
 Coeff:     -0.268D-03-0.182D-01-0.215D-01 0.284D+00 0.756D+00
 Gap=     0.450 Goal=   None    Shift=    0.000
 RMSDP=2.22D-05 MaxDP=4.16D-04 DE=-6.39D-06 OVMax= 3.92D-04

 Cycle   6  Pass 0  IDiag  1:
 E= -135.032985845884     Delta-E=       -0.000001263220 Rises=F Damp=F
 DIIS: error= 2.41D-05 at cycle   6 NSaved=   6.
 NSaved= 6 IEnMin= 6 EnMin= -135.032985845884     IErMin= 6 ErrMin= 2.41D-05
 ErrMax= 2.41D-05  0.00D+00 EMaxC= 1.00D-01 BMatC= 9.11D-08 BMatP= 1.31D-06
 IDIUse=1 WtCom= 1.00D+00 WtEn= 0.00D+00
 Coeff-Com:  0.807D-04-0.993D-02-0.173D-01 0.848D-04 0.229D+00 0.798D+00
 Coeff:      0.807D-04-0.993D-02-0.173D-01 0.848D-04 0.229D+00 0.798D+00
 Gap=     0.450 Goal=   None    Shift=    0.000
 RMSDP=6.73D-06 MaxDP=1.31D-04 DE=-1.26D-06 OVMax= 1.41D-04

 Initial convergence to 1.0D-05 achieved.  Increase integral accuracy.
 Cycle   7  Pass 1  IDiag  1:
 E= -135.032989159607     Delta-E=       -0.000003313723 Rises=F Damp=F
 DIIS: error= 1.66D-05 at cycle   1 NSaved=   1.
 NSaved= 1 IEnMin= 1 EnMin= -135.032989159607     IErMin= 1 ErrMin= 1.66D-05
 ErrMax= 1.66D-05  0.00D+00 EMaxC= 1.00D-01 BMatC= 4.22D-08 BMatP= 4.22D-08
 IDIUse=1 WtCom= 1.00D+00 WtEn= 0.00D+00
 Coeff-Com:  0.100D+01
 Coeff:      0.100D+01
 Gap=     0.450 Goal=   None    Shift=    0.000
 RMSDP=6.73D-06 MaxDP=1.31D-04 DE=-3.31D-06 OVMax= 5.42D-05

 Cycle   8  Pass 1  IDiag  1:
 E= -135.032989200989     Delta-E=       -0.000000041382 Rises=F Damp=F
 DIIS: error= 3.09D-06 at cycle   2 NSaved=   2.
 NSaved= 2 IEnMin= 2 EnMin= -135.032989200989     IErMin= 2 ErrMin= 3.09D-06
 ErrMax= 3.09D-06  0.00D+00 EMaxC= 1.00D-01 BMatC= 2.08D-09 BMatP= 4.22D-08
 IDIUse=1 WtCom= 1.00D+00 WtEn= 0.00D+00
 Coeff-Com:  0.988D-02 0.990D+00
 Coeff:      0.988D-02 0.990D+00
 Gap=     0.450 Goal=   None    Shift=    0.000
 RMSDP=1.09D-06 MaxDP=1.79D-05 DE=-4.14D-08 OVMax= 2.21D-05

 Cycle   9  Pass 1  IDiag  1:
 E= -135.032989202883     Delta-E=       -0.000000001894 Rises=F Damp=F
 DIIS: error= 2.77D-06 at cycle   3 NSaved=   3.
 NSaved= 3 IEnMin= 3 EnMin= -135.032989202883     IErMin= 3 ErrMin= 2.77D-06
 ErrMax= 2.77D-06  0.00D+00 EMaxC= 1.00D-01 BMatC= 9.80D-10 BMatP= 2.08D-09
 IDIUse=1 WtCom= 1.00D+00 WtEn= 0.00D+00
 Coeff-Com: -0.496D-01 0.406D+00 0.644D+00
 Coeff:     -0.496D-01 0.406D+00 0.644D+00
 Gap=     0.450 Goal=   None    Shift=    0.000
 RMSDP=4.02D-07 MaxDP=8.19D-06 DE=-1.89D-09 OVMax= 8.00D-06

 Cycle  10  Pass 1  IDiag  1:
 E= -135.032989203901     Delta-E=       -0.000000001018 Rises=F Damp=F
 DIIS: error= 4.72D-07 at cycle   4 NSaved=   4.
 NSaved= 4 IEnMin= 4 EnMin= -135.032989203901     IErMin= 4 ErrMin= 4.72D-07
 ErrMax= 4.72D-07  0.00D+00 EMaxC= 1.00D-01 BMatC= 1.24D-11 BMatP= 9.80D-10
 IDIUse=1 WtCom= 1.00D+00 WtEn= 0.00D+00
 Coeff-Com: -0.877D-03-0.348D-01 0.648D-02 0.103D+01
 Coeff:     -0.877D-03-0.348D-01 0.648D-02 0.103D+01
 Gap=     0.450 Goal=   None    Shift=    0.000
 RMSDP=1.83D-07 MaxDP=3.86D-06 DE=-1.02D-09 OVMax= 5.19D-06

 Cycle  11  Pass 1  IDiag  1:
 E= -135.032989203943     Delta-E=       -0.000000000042 Rises=F Damp=F
 DIIS: error= 1.63D-07 at cycle   5 NSaved=   5.
 NSaved= 5 IEnMin= 5 EnMin= -135.032989203943     IErMin= 5 ErrMin= 1.63D-07
 ErrMax= 1.63D-07  0.00D+00 EMaxC= 1.00D-01 BMatC= 2.59D-12 BMatP= 1.24D-11
 IDIUse=1 WtCom= 1.00D+00 WtEn= 0.00D+00
 Coeff-Com:  0.492D-02-0.492D-01-0.664D-01 0.237D+00 0.874D+00
 Coeff:      0.492D-02-0.492D-01-0.664D-01 0.237D+00 0.874D+00
 Gap=     0.450 Goal=   None    Shift=    0.000
 RMSDP=7.02D-08 MaxDP=1.22D-06 DE=-4.23D-11 OVMax= 2.04D-06

 Cycle  12  Pass 1  IDiag  1:
 E= -135.032989203948     Delta-E=       -0.000000000005 Rises=F Damp=F
 DIIS: error= 7.79D-08 at cycle   6 NSaved=   6.
 NSaved= 6 IEnMin= 6 EnMin= -135.032989203948     IErMin= 6 ErrMin= 7.79D-08
 ErrMax= 7.79D-08  0.00D+00 EMaxC= 1.00D-01 BMatC= 4.00D-13 BMatP= 2.59D-12
 IDIUse=1 WtCom= 1.00D+00 WtEn= 0.00D+00
 Coeff-Com:  0.191D-02-0.139D-01-0.253D-01-0.286D-01 0.291D+00 0.775D+00
 Coeff:      0.191D-02-0.139D-01-0.253D-01-0.286D-01 0.291D+00 0.775D+00
 Gap=     0.450 Goal=   None    Shift=    0.000
 RMSDP=2.51D-08 MaxDP=5.84D-07 DE=-4.66D-12 OVMax= 7.32D-07

 Cycle  13  Pass 1  IDiag  1:
 E= -135.032989203949     Delta-E=       -0.000000000001 Rises=F Damp=F
 DIIS: error= 1.77D-08 at cycle   7 NSaved=   7.
 NSaved= 7 IEnMin= 7 EnMin= -135.032989203949     IErMin= 7 ErrMin= 1.77D-08
 ErrMax= 1.77D-08  0.00D+00 EMaxC= 1.00D-01 BMatC= 3.56D-14 BMatP= 4.00D-13
 IDIUse=1 WtCom= 1.00D+00 WtEn= 0.00D+00
 Coeff-Com: -0.251D-03 0.368D-02 0.359D-02-0.348D-01-0.795D-01 0.148D+00
 Coeff-Com:  0.960D+00
 Coeff:     -0.251D-03 0.368D-02 0.359D-02-0.348D-01-0.795D-01 0.148D+00
 Coeff:      0.960D+00
 Gap=     0.450 Goal=   None    Shift=    0.000
 RMSDP=9.88D-09 MaxDP=1.83D-07 DE=-1.14D-12 OVMax= 2.91D-07

 SCF Done:  E(RwB97XD) =  -135.032989204     A.U. after   13 cycles
            NFock= 13  Conv=0.99D-08     -V/T= 2.0119
 KE= 1.334390281137D+02 PE=-4.785288543455D+02 EE= 1.271654803139D+02
 Leave Link  502 at Sat Aug 14 07:22:54 2021, MaxMem=  1073741824 cpu:              20.8 elap:               2.7
 (Enter /home/prakriti/g16/l801.exe)
 DoSCS=F DFT=T ScalE2(SS,OS)=  1.000000  1.000000
 ExpMin= 1.22D-01 ExpMax= 1.71D+03 ExpMxC= 2.58D+02 IAcc=3 IRadAn=         5 AccDes= 0.00D+00
 HarFok:  IExCor=  205 AccDes= 0.00D+00 IRadAn=         5 IDoV=-2 UseB2=F ITyADJ=14
 ICtDFT= 12500011 ScaDFX=  1.000000  1.000000  1.000000  1.000000
 Largest valence mixing into a core orbital is  7.55D-05
 Largest core mixing into a valence orbital is  3.65D-05
 Range of M.O.s used for correlation:     4    77
 NBasis=    77 NAE=    13 NBE=    13 NFC=     3 NFV=     0
 NROrb=     74 NOA=    10 NOB=    10 NVA=    64 NVB=    64
 Leave Link  801 at Sat Aug 14 07:22:54 2021, MaxMem=  1073741824 cpu:               0.6 elap:               0.1
 (Enter /home/prakriti/g16/l914.exe)
 RHF ground state
 Keep R1, R2, and R3 ints in memory in canonical form, NReq=389068687.
 FoFCou: FMM=F IPFlag=           0 FMFlag=           0 FMFlg1=           0
         NFxFlg=           0 DoJE=F BraDBF=F KetDBF=F FulRan=T
         wScrn=  0.000000 ICntrl=       600 IOpCl=  0 I1Cent=           0 NGrid=           0
         NMat0=    1 NMatS0=   3003 NMatT0=    0 NMatD0=    1 NMtDS0=    0 NMtDT0=    0
 Symmetry not used in FoFCou.
 Two-electron integral symmetry not used.
 MDV=  1073741824 DFT=T DoStab=F Mixed=T DoRPA=T DoScal=F NonHer=T
 Making orbital integer symmetry assigments:
 Orbital symmetries:
       Occupied  (A) (A) (A) (A) (A) (A) (A) (A) (A) (A) (A) (A)
                 (A)
       Virtual   (A) (A) (A) (A) (A) (A) (A) (A) (A) (A) (A) (A)
                 (A) (A) (A) (A) (A) (A) (A) (A) (A) (A) (A) (A)
                 (A) (A) (A) (A) (A) (A) (A) (A) (A) (A) (A) (A)
                 (A) (A) (A) (A) (A) (A) (A) (A) (A) (A) (A) (A)
                 (A) (A) (A) (A) (A) (A) (A) (A) (A) (A) (A) (A)
                 (A) (A) (A) (A)
   640 initial guesses have been made.
 Convergence on wavefunction:    0.001000000000000
 Davidson Disk Diagonalization:  ConvIn= 1.00D-03 SkipCon=T Conv= 1.00D-03.
 Max sub-space:  3840 roots to seek:  1280 dimension of matrix:         1280
 *** WARNING: Number of orthogonal guesses is          640
 Iteration     1 Dimension   640 NMult     0 NNew    640
 CISAX will form   640 AO SS matrices at one time.
 NMat=   640 NSing=   640 JSym2X= 0.
 New state      2 was old state      3
 New state      3 was old state      2
 New state      5 was old state      6
 New state      6 was old state      8
 New state      7 was old state      5
 New state      8 was old state      7
 New state     12 was old state     19
 New state     13 was old state     12
 New state     14 was old state     15
 New state     15 was old state     13
 New state     18 was old state     14
 New state     19 was old state     18
 New state     20 was old state     21
 New state     21 was old state     22
 New state     22 was old state     20
 New state     24 was old state     25
 New state     25 was old state     26
 New state     26 was old state     24
 New state     28 was old state     34
 New state     29 was old state     31
 New state     30 was old state     29
 New state     31 was old state     28
 New state     32 was old state     30
 New state     34 was old state     32
 New state     37 was old state     40
 New state     38 was old state     42
 New state     39 was old state     38
 New state     40 was old state     39
 New state     41 was old state     37
 New state     42 was old state     47
 New state     43 was old state     48
 New state     44 was old state     45
 New state     45 was old state     44
 New state     46 was old state     43
 New state     47 was old state     46
 New state     48 was old state     41
 New state     55 was old state     58
 New state     56 was old state     61
 New state     57 was old state     55
 New state     58 was old state     60
 New state     59 was old state     56
 New state     60 was old state     57
 New state     61 was old state     59
 New state     62 was old state     64
 New state     63 was old state     62
 New state     64 was old state     63
 New state     65 was old state     68
 New state     66 was old state     67
 New state     67 was old state     71
 New state     68 was old state     66
 New state     69 was old state     65
 New state     70 was old state     69
 New state     71 was old state     70
 New state     73 was old state     74
 New state     74 was old state     80
 New state     75 was old state     73
 New state     76 was old state     77
 New state     77 was old state     81
 New state     78 was old state     82
 New state     79 was old state     76
 New state     80 was old state     85
 New state     81 was old state     86
 New state     82 was old state     75
 New state     83 was old state     78
 New state     85 was old state     90
 New state     86 was old state     88
 New state     87 was old state     92
 New state     88 was old state     83
 New state     89 was old state     93
 New state     90 was old state     91
 New state     91 was old state     89
 New state     92 was old state     87
 New state     93 was old state     96
 New state     95 was old state     97
 New state     96 was old state     99
 New state     97 was old state     95
 New state     98 was old state    106
 New state     99 was old state     98
 New state    100 was old state    101
 New state    101 was old state    100
 New state    102 was old state    105
 New state    103 was old state    102
 New state    105 was old state    109
 New state    106 was old state    107
 New state    107 was old state    103
 New state    109 was old state    112
 New state    110 was old state    111
 New state    111 was old state    110
 New state    112 was old state    119
 New state    113 was old state    115
 New state    114 was old state    113
 New state    115 was old state    117
 New state    116 was old state    114
 New state    117 was old state    120
 New state    118 was old state    116
 New state    119 was old state    121
 New state    120 was old state    118
 New state    121 was old state    122
 New state    122 was old state    123
 New state    123 was old state    127
 New state    125 was old state    128
 New state    126 was old state    125
 New state    127 was old state    130
 New state    128 was old state    133
 New state    130 was old state    132
 New state    131 was old state    134
 New state    132 was old state    137
 New state    133 was old state    139
 New state    134 was old state    126
 New state    135 was old state    142
 New state    136 was old state    141
 New state    137 was old state    136
 New state    139 was old state    135
 New state    140 was old state    144
 New state    141 was old state    148
 New state    142 was old state    150
 New state    143 was old state    155
 New state    144 was old state    145
 New state    145 was old state    157
 New state    146 was old state    143
 New state    148 was old state    153
 New state    149 was old state    146
 New state    150 was old state    151
 New state    151 was old state    164
 New state    153 was old state    154
 New state    154 was old state    162
 New state    155 was old state    161
 New state    156 was old state    158
 New state    157 was old state    159
 New state    158 was old state    140
 New state    159 was old state    156
 New state    160 was old state    149
 New state    161 was old state    160
 New state    162 was old state    168
 New state    163 was old state    166
 New state    164 was old state    165
 New state    165 was old state    167
 New state    166 was old state    170
 New state    167 was old state    163
 New state    168 was old state    171
 New state    169 was old state    177
 New state    170 was old state    173
 New state    171 was old state    175
 New state    173 was old state    176
 New state    174 was old state    178
 New state    175 was old state    174
 New state    176 was old state    179
 New state    177 was old state    180
 New state    178 was old state    181
 New state    179 was old state    185
 New state    180 was old state    182
 New state    181 was old state    183
 New state    182 was old state    184
 New state    183 was old state    186
 New state    184 was old state    188
 New state    185 was old state    187
 New state    186 was old state    190
 New state    187 was old state    189
 New state    188 was old state    191
 New state    189 was old state    193
 New state    190 was old state    198
 New state    191 was old state    195
 New state    192 was old state    194
 New state    193 was old state    192
 New state    194 was old state    197
 New state    195 was old state    203
 New state    196 was old state    199
 New state    197 was old state    200
 New state    198 was old state    196
 New state    199 was old state    205
 New state    200 was old state    204
 New state    201 was old state    202
 New state    202 was old state    201
 New state    203 was old state    206
 New state    204 was old state    210
 New state    205 was old state    207
 New state    206 was old state    208
 New state    207 was old state    211
 New state    208 was old state    212
 New state    210 was old state    213
 New state    211 was old state    226
 New state    212 was old state    216
 New state    213 was old state    215
 New state    215 was old state    217
 New state    216 was old state    232
 New state    217 was old state    229
 New state    218 was old state    219
 New state    219 was old state    220
 New state    220 was old state    224
 New state    221 was old state    222
 New state    222 was old state    221
 New state    223 was old state    225
 New state    224 was old state    223
 New state    225 was old state    218
 New state    226 was old state    235
 New state    229 was old state    230
 New state    230 was old state    233
 New state    231 was old state    234
 New state    232 was old state    231
 New state    233 was old state    236
 New state    234 was old state    237
 New state    235 was old state    239
 New state    236 was old state    240
 New state    237 was old state    238
 New state    238 was old state    242
 New state    239 was old state    241
 New state    240 was old state    243
 New state    241 was old state    244
 New state    242 was old state    246
 New state    243 was old state    248
 New state    244 was old state    247
 New state    245 was old state    249
 New state    246 was old state    245
 New state    247 was old state    250
 New state    248 was old state    251
 New state    249 was old state    253
 New state    250 was old state    254
 New state    251 was old state    252
 New state    252 was old state    255
 New state    253 was old state    256
 New state    254 was old state    258
 New state    255 was old state    263
 New state    256 was old state    260
 New state    257 was old state    259
 New state    258 was old state    257
 New state    259 was old state    261
 New state    260 was old state    264
 New state    261 was old state    262
 New state    262 was old state    269
 New state    263 was old state    265
 New state    264 was old state    266
 New state    265 was old state    267
 New state    266 was old state    270
 New state    267 was old state    271
 New state    269 was old state    272
 New state    270 was old state    273
 New state    271 was old state    277
 New state    272 was old state    275
 New state    273 was old state    274
 New state    274 was old state    276
 New state    275 was old state    284
 New state    276 was old state    281
 New state    277 was old state    286
 New state    281 was old state    283
 No map to state    282
 New state    283 was old state    282
 New state    284 was old state    285
 New state    285 was old state    288
 New state    286 was old state    291
 New state    288 was old state    293
 New state    289 was old state    296
 New state    290 was old state    289
 New state    291 was old state    292
 New state    292 was old state    294
 New state    293 was old state    297
 New state    294 was old state    298
 No map to state    296
 New state    297 was old state    303
 New state    298 was old state    290
 New state    302 was old state    307
 New state    303 was old state    304
 New state    304 was old state    305
 New state    305 was old state    302
 New state    307 was old state    308
 New state    308 was old state    310
 New state    310 was old state    311
 New state    311 was old state    313
 New state    312 was old state    314
 New state    313 was old state    312
 No map to state    314
 New state    316 was old state    318
 New state    317 was old state    319
 New state    318 was old state    317
 New state    319 was old state    316
 New state    322 was old state    324
 New state    323 was old state    322
 New state    324 was old state    323
 New state    325 was old state    328
 New state    326 was old state    325
 New state    327 was old state    326
 New state    328 was old state    327
 New state    331 was old state    332
 New state    332 was old state    334
 New state    333 was old state    331
 New state    334 was old state    333
 New state    335 was old state    337
 New state    336 was old state    338
 New state    337 was old state    335
 New state    338 was old state    339
 New state    339 was old state    336
 New state    340 was old state    341
 New state    341 was old state    342
 New state    342 was old state    343
 New state    343 was old state    340
 New state    345 was old state    350
 New state    346 was old state    345
 New state    347 was old state    348
 New state    348 was old state    351
 New state    350 was old state    353
 New state    351 was old state    346
 New state    352 was old state    347
 New state    353 was old state    352
 New state    355 was old state    357
 New state    356 was old state    355
 New state    357 was old state    356
 New state    358 was old state    362
 New state    359 was old state    360
 New state    360 was old state    364
 New state    361 was old state    363
 New state    362 was old state    359
 New state    363 was old state    358
 New state    364 was old state    361
 New state    365 was old state    370
 New state    366 was old state    365
 New state    369 was old state    371
 New state    370 was old state    369
 New state    371 was old state    366
 New state    377 was old state    379
 New state    379 was old state    377
 New state    380 was old state    381
 New state    381 was old state    385
 New state    383 was old state    384
 New state    384 was old state    383
 New state    385 was old state    387
 New state    386 was old state    389
 New state    387 was old state    386
 New state    388 was old state    391
 New state    389 was old state    388
 New state    390 was old state    395
 New state    391 was old state    392
 New state    392 was old state    390
 New state    393 was old state    394
 No map to state    394
 New state    395 was old state    393
 New state    396 was old state    399
 New state    397 was old state    396
 New state    398 was old state    401
 New state    399 was old state    398
 New state    400 was old state    410
 New state    401 was old state    402
 New state    402 was old state    403
 New state    403 was old state    400
 New state    404 was old state    405
 New state    405 was old state    404
 New state    407 was old state    408
 New state    408 was old state    407
 New state    409 was old state    413
 New state    410 was old state    411
 New state    411 was old state    412
 New state    412 was old state    409
 New state    413 was old state    415
 New state    415 was old state    416
 New state    416 was old state    420
 New state    417 was old state    419
 New state    418 was old state    417
 New state    419 was old state    418
 New state    420 was old state    421
 New state    421 was old state    422
 New state    422 was old state    423
 New state    423 was old state    425
 New state    425 was old state    427
 New state    427 was old state    428
 New state    428 was old state    432
 New state    429 was old state    430
 New state    430 was old state    437
 New state    431 was old state    433
 New state    432 was old state    434
 New state    433 was old state    431
 New state    434 was old state    435
 New state    435 was old state    429
 New state    436 was old state    438
 New state    437 was old state    439
 New state    438 was old state    436
 New state    439 was old state    440
 New state    440 was old state    441
 New state    441 was old state    444
 New state    444 was old state    446
 New state    445 was old state    449
 New state    446 was old state    448
 New state    447 was old state    451
 New state    448 was old state    447
 New state    449 was old state    454
 New state    450 was old state    445
 New state    451 was old state    452
 New state    452 was old state    453
 New state    453 was old state    457
 New state    454 was old state    450
 New state    455 was old state    456
 New state    456 was old state    455
 New state    457 was old state    459
 New state    458 was old state    460
 New state    459 was old state    461
 New state    460 was old state    458
 New state    461 was old state    464
 New state    462 was old state    463
 New state    463 was old state    462
 New state    464 was old state    469
 New state    465 was old state    466
 New state    466 was old state    465
 New state    468 was old state    473
 New state    469 was old state    470
 New state    470 was old state    468
 New state    473 was old state    474
 New state    474 was old state    475
 New state    475 was old state    477
 New state    476 was old state    478
 New state    477 was old state    481
 New state    478 was old state    479
 New state    479 was old state    480
 New state    480 was old state    483
 New state    481 was old state    476
 New state    482 was old state    486
 New state    483 was old state    484
 New state    484 was old state    487
 New state    485 was old state    488
 New state    486 was old state    482
 New state    487 was old state    490
 New state    488 was old state    489
 New state    489 was old state    493
 New state    490 was old state    485
 New state    493 was old state    494
 New state    494 was old state    502
 New state    497 was old state    498
 New state    498 was old state    499
 New state    499 was old state    500
 New state    500 was old state    497
 New state    501 was old state    503
 New state    502 was old state    501
 New state    503 was old state    504
 New state    504 was old state    505
 New state    505 was old state    512
 New state    506 was old state    508
 New state    507 was old state    509
 New state    508 was old state    507
 New state    509 was old state    506
 New state    511 was old state    513
 New state    512 was old state    514
 New state    513 was old state    511
 New state    514 was old state    516
 New state    515 was old state    517
 New state    516 was old state    518
 No map to state    517
 New state    518 was old state    519
 New state    519 was old state    515
 New state    520 was old state    522
 New state    522 was old state    520
 New state    526 was old state    530
 New state    527 was old state    528
 New state    528 was old state    527
 New state    529 was old state    526
 New state    530 was old state    529
 New state    533 was old state    535
 New state    534 was old state    533
 New state    535 was old state    539
 New state    536 was old state    534
 New state    538 was old state    536
 New state    539 was old state    538
 New state    552 was old state    554
 New state    553 was old state    552
 New state    554 was old state    553
 New state    557 was old state    558
 New state    558 was old state    561
 New state    560 was old state    557
 New state    561 was old state    560
 New state    564 was old state    565
 New state    565 was old state    564
 New state    567 was old state    568
 New state    568 was old state    569
 New state    569 was old state    570
 New state    570 was old state    571
 New state    571 was old state    572
 New state    572 was old state    567
 New state    573 was old state    574
 New state    574 was old state    577
 New state    575 was old state    573
 New state    576 was old state    578
 New state    577 was old state    575
 New state    578 was old state    580
 New state    579 was old state    576
 New state    580 was old state    579
 New state    584 was old state    587
 New state    586 was old state    584
 New state    587 was old state    586
 New state    588 was old state    592
 New state    589 was old state    591
 New state    591 was old state    589
 New state    592 was old state    588
 New state    593 was old state    594
 New state    594 was old state    597
 New state    596 was old state    593
 New state    597 was old state    596
 New state    598 was old state    599
 New state    599 was old state    598
 New state    602 was old state    603
 New state    603 was old state    604
 New state    604 was old state    602
 New state    605 was old state    606
 New state    606 was old state    605
 New state    608 was old state    609
 New state    609 was old state    608
 New state    610 was old state    612
 New state    611 was old state    615
 New state    612 was old state    610
 New state    613 was old state    611
 New state    614 was old state    613
 New state    615 was old state    617
 New state    616 was old state    614
 New state    617 was old state    616
 New state    620 was old state    621
 New state    621 was old state    620
 New state    625 was old state    626
 New state    626 was old state    625
 New state    627 was old state    629
 New state    628 was old state    627
 New state    629 was old state    628
 New state    630 was old state    631
 New state    631 was old state    630
 New state    633 was old state    634
 New state    634 was old state    633
 Excitation Energies [eV] at current iteration:
 Root      1 :     7.097454571394877
 Root      2 :     8.462945033402578
 Root      3 :     8.731265621187676
 Root      4 :     9.519025467491192
 Root      5 :     9.973303049295632
 Root      6 :    10.418368761889070
 Root      7 :    10.532048582841930
 Root      8 :    10.748105038004360
 Root      9 :    10.995570853401530
 Root     10 :    11.207713851068550
 Root     11 :    11.540221041648710
 Root     12 :    11.635785042312430
 Root     13 :    11.804214592793220
 Root     14 :    12.018126230593560
 Root     15 :    12.145143612755250
 Root     16 :    12.206144940316740
 Root     17 :    12.273447763450130
 Root     18 :    12.292164359235700
 Root     19 :    12.407916685133630
 Root     20 :    12.576066443974050
 Root     21 :    12.788424432685380
 Root     22 :    12.865137931954190
 Root     23 :    13.051845752576820
 Root     24 :    13.160055695905350
 Root     25 :    13.216165901621250
 Root     26 :    13.317944485759160
 Root     27 :    13.455447364715920
 Root     28 :    13.739445150815680
 Root     29 :    13.780565074481310
 Root     30 :    13.927861878444960
 Root     31 :    13.984076018773810
 Root     32 :    14.061939663958420
 Root     33 :    14.140346654637240
 Root     34 :    14.278743885553320
 Root     35 :    14.393524385892010
 Root     36 :    14.636650558973500
 Root     37 :    14.787116264798690
 Root     38 :    14.934818935496470
 Root     39 :    15.013652870619190
 Root     40 :    15.074641997240440
 Root     41 :    15.165494862545480
 Root     42 :    15.271379367117350
 Root     43 :    15.376757865761860
 Root     44 :    15.546109089268350
 Root     45 :    15.623929244478520
 Root     46 :    15.812693278242700
 Root     47 :    15.925275014170830
 Root     48 :    15.936257288096000
 Root     49 :    16.010552488297690
 Root     50 :    16.384497763749650
 Root     51 :    16.446700945026750
 Root     52 :    16.565072616180250
 Root     53 :    16.757717002673430
 Root     54 :    16.834506326227440
 Root     55 :    16.980077981105740
 Root     56 :    17.201074319047670
 Root     57 :    17.416679509827750
 Root     58 :    17.458940408340230
 Root     59 :    17.679791971202160
 Root     60 :    17.756630207872410
 Root     61 :    17.896487254414060
 Root     62 :    17.973343003172940
 Root     63 :    18.044588900774060
 Root     64 :    18.164465407354240
 Root     65 :    18.226405090880480
 Root     66 :    18.638783428843840
 Root     67 :    18.897982529675350
 Root     68 :    18.964055012647260
 Root     69 :    19.096361995811200
 Root     70 :    19.264796307615170
 Root     71 :    19.554878843280020
 Root     72 :    20.109757581352160
 Root     73 :    20.464664806275170
 Root     74 :    20.479286834658630
 Root     75 :    20.543396607374230
 Root     76 :    20.579448915896690
 Root     77 :    20.736099002273260
 Root     78 :    20.888528825390060
 Root     79 :    20.909698884192340
 Root     80 :    21.092890849030220
 Root     81 :    21.216273786829190
 Root     82 :    21.235891140094730
 Root     83 :    21.361918116112460
 Root     84 :    21.417682493137900
 Root     85 :    21.536762929423280
 Root     86 :    21.937783089140250
 Root     87 :    22.047682028716630
 Root     88 :    22.088284317680550
 Root     89 :    22.266714611147300
 Root     90 :    22.457216792082770
 Root     91 :    22.515704282101350
 Root     92 :    22.679997069411970
 Root     93 :    22.794890500178350
 Root     94 :    22.825857723797540
 Root     95 :    22.948024477381010
 Root     96 :    23.021108838854610
 Root     97 :    23.170383089820070
 Root     98 :    23.226128358061250
 Root     99 :    23.456800757558890
 Root    100 :    23.493608113170790
 Root    101 :    23.634979111960690
 Root    102 :    23.676302934021960
 Root    103 :    23.729861824463060
 Root    104 :    23.865193028218020
 Root    105 :    23.975074588634570
 Root    106 :    24.074247186076690
 Root    107 :    24.205831501030540
 Root    108 :    24.218918043818240
 Root    109 :    24.305742045578770
 Root    110 :    24.433397472283030
 Root    111 :    24.556999080473530
 Root    112 :    24.731768463605830
 Root    113 :    24.890255674644490
 Root    114 :    24.921563776294880
 Root    115 :    24.996921089501290
 Root    116 :    25.094211698038010
 Root    117 :    25.147908214536920
 Root    118 :    25.168660919516170
 Root    119 :    25.297821119682540
 Root    120 :    25.448391496630120
 Root    121 :    25.506795454038680
 Root    122 :    25.577758605595890
 Root    123 :    25.755843370714220
 Root    124 :    25.894554204006680
 Root    125 :    25.928902208533890
 Root    126 :    26.088419309671390
 Root    127 :    26.097941527062380
 Root    128 :    26.306343344738120
 Root    129 :    26.428206951394910
 Root    130 :    26.493166290965380
 Root    131 :    26.521004748054580
 Root    132 :    26.569614127378070
 Root    133 :    26.608823250185180
 Root    134 :    26.718106484246640
 Root    135 :    26.887657728525200
 Root    136 :    26.954393680619430
 Root    137 :    26.977930439256760
 Root    138 :    27.112211455412880
 Root    139 :    27.159325694692470
 Root    140 :    27.226040867227320
 Root    141 :    27.345456499052520
 Root    142 :    27.424286666383270
 Root    143 :    27.488958960859570
 Root    144 :    27.518910194982720
 Root    145 :    27.567547253787650
 Root    146 :    27.630239893913780
 Root    147 :    27.677037655890370
 Root    148 :    27.730445515713800
 Root    149 :    27.780633690655520
 Root    150 :    27.826854436926520
 Root    151 :    27.855962662983050
 Root    152 :    27.887034952127820
 Root    153 :    27.987905840997660
 Root    154 :    28.089799896173750
 Root    155 :    28.159959427745750
 Root    156 :    28.207946161508790
 Root    157 :    28.250742414885040
 Root    158 :    28.385342346407930
 Root    159 :    28.435913657399430
 Root    160 :    28.461102055254780
 Root    161 :    28.530005041189800
 Root    162 :    28.635839586388730
 Root    163 :    28.712521365256980
 Root    164 :    28.819183110003910
 Root    165 :    28.911431512540340
 Root    166 :    29.008463443996100
 Root    167 :    29.067269339830270
 Root    168 :    29.182955974245760
 Root    169 :    29.256372832372010
 Root    170 :    29.346884649720770
 Root    171 :    29.384184045837650
 Root    172 :    29.531175343083760
 Root    173 :    29.616443131374530
 Root    174 :    29.653591434610880
 Root    175 :    29.708242365647990
 Root    176 :    29.889289044888680
 Root    177 :    29.999972680653600
 Root    178 :    30.159299139296400
 Root    179 :    30.181339234271700
 Root    180 :    30.314547879709910
 Root    181 :    30.402379998276610
 Root    182 :    30.573127116052600
 Root    183 :    30.655057616556600
 Root    184 :    30.783669273484690
 Root    185 :    30.888312556543440
 Root    186 :    30.941247285642930
 Root    187 :    31.013078506796020
 Root    188 :    31.183474128944100
 Root    189 :    31.283232751330560
 Root    190 :    31.318458100378510
 Root    191 :    31.361996626750430
 Root    192 :    31.452054608631300
 Root    193 :    31.581448166421040
 Root    194 :    31.742313096901130
 Root    195 :    31.813143608575410
 Root    196 :    31.860473328286660
 Root    197 :    31.984097495397590
 Root    198 :    32.086829094947520
 Root    199 :    32.164277880029430
 Root    200 :    32.211368994690850
 Root    201 :    32.251833670880350
 Root    202 :    32.387452306619180
 Root    203 :    32.465410021220950
 Root    204 :    32.627765039552320
 Root    205 :    32.705979927948450
 Root    206 :    32.767085498794930
 Root    207 :    33.072335780692110
 Root    208 :    33.109107071882420
 Root    209 :    33.169457743701420
 Root    210 :    33.297925867026500
 Root    211 :    33.478468989525760
 Root    212 :    33.648865618044770
 Root    213 :    33.821237269078690
 Root    214 :    33.910851750491930
 Root    215 :    34.232323651562890
 Root    216 :    34.351769026967140
 Root    217 :    34.457317055021350
 Root    218 :    34.583898232474200
 Root    219 :    34.689088759615120
 Root    220 :    34.811345055858200
 Root    221 :    34.884472263786940
 Root    222 :    35.008866796217120
 Root    223 :    35.165249773208740
 Root    224 :    35.236404362919000
 Root    225 :    35.293473129433270
 Root    226 :    35.428753949299360
 Root    227 :    35.685120312949710
 Root    228 :    35.724641965359890
 Root    229 :    35.893576988825520
 Root    230 :    35.965087396955920
 Root    231 :    36.130177028360540
 Root    232 :    36.335621191787460
 Root    233 :    36.404431499520650
 Root    234 :    36.427992973977820
 Root    235 :    36.666973348750150
 Root    236 :    36.808333399054490
 Root    237 :    36.944368597819250
 Root    238 :    37.017436304129750
 Root    239 :    37.122920285003900
 Root    240 :    37.300794448932370
 Root    241 :    37.853570053678910
 Root    242 :    37.889878662046460
 Root    243 :    38.037466291391020
 Root    244 :    38.211243115653640
 Root    245 :    38.272341558892100
 Root    246 :    38.374931998183160
 Root    247 :    38.573104441202870
 Root    248 :    38.647801306727840
 Root    249 :    38.746582601390410
 Root    250 :    38.787847542303260
 Root    251 :    38.917270678730230
 Root    252 :    39.068982646514110
 Root    253 :    39.457720943639180
 Root    254 :    39.615737720207960
 Root    255 :    39.798489008460880
 Root    256 :    40.022390516869460
 Root    257 :    40.147243907098730
 Root    258 :    40.208745900599050
 Root    259 :    40.356979290077440
 Root    260 :    40.596726256301110
 Root    261 :    40.795561099246600
 Root    262 :    40.996805556078570
 Root    263 :    41.214472361223010
 Root    264 :    41.330016095047220
 Root    265 :    41.467199107878690
 Root    266 :    41.650577201336700
 Root    267 :    41.884316434280740
 Root    268 :    41.940862079334790
 Root    269 :    42.025344130285270
 Root    270 :    42.265627503273980
 Root    271 :    42.395983414393570
 Root    272 :    42.434906681510600
 Root    273 :    42.466270944471300
 Root    274 :    42.625078930206730
 Root    275 :    42.735658899373270
 Root    276 :    42.756544233971520
 Root    277 :    42.890945638609990
 Root    278 :    43.150844019293370
 Root    279 :    43.220835641584910
 Root    280 :    43.259357585389220
 Root    281 :    43.464071892089660
 Root    282 :    43.496162921233780
 Root    283 :    43.820921100874680
 Root    284 :    43.928570880577040
 Root    285 :    44.115536902789330
 Root    286 :    44.472558688891620
 Root    287 :    44.934016814709570
 Root    288 :    45.237604103023500
 Root    289 :    45.325264059238700
 Root    290 :    45.503791989486680
 Root    291 :    45.798860436215220
 Root    292 :    45.855685472049010
 Root    293 :    45.961628863285690
 Root    294 :    46.065824352023180
 Root    295 :    46.232480260213750
 Root    296 :    46.384113012085370
 Root    297 :    46.410586501305470
 Root    298 :    46.580942605993360
 Root    299 :    46.709192899591760
 Root    300 :    47.275780842635240
 Root    301 :    47.420084358891550
 Root    302 :    47.529777886160280
 Root    303 :    48.078353933667420
 Root    304 :    48.294288476626160
 Root    305 :    48.320252497298210
 Root    306 :    48.944613803288820
 Root    307 :    49.125764522102390
 Root    308 :    49.166038193191980
 Root    309 :    49.213094694622280
 Root    310 :    49.586834020518180
 Root    311 :    49.786891255079770
 Root    312 :    49.860181690525940
 Root    313 :    50.142224162978980
 Root    314 :    50.204954513490110
 Root    315 :    50.308981088080630
 Root    316 :    50.718192479252280
 Root    317 :    50.817605044439010
 Root    318 :    50.831472338447690
 Root    319 :    51.034558039067780
 Root    320 :    51.369425807803280
 Root    321 :    52.163515290639090
 Root    322 :    52.342803926672330
 Root    323 :    52.431570613969000
 Root    324 :    52.539278268951090
 Root    325 :    52.732533678326600
 Root    326 :    52.886888142802240
 Root    327 :    52.950555758442220
 Root    328 :    53.002862129714000
 Root    329 :    53.064598854570920
 Root    330 :    53.511147055043790
 Root    331 :    53.781177337851950
 Root    332 :    53.823030773782780
 Root    333 :    53.913586556049870
 Root    334 :    54.193730530163760
 Root    335 :    54.460241173646490
 Root    336 :    54.718242720592620
 Root    337 :    54.976334052950460
 Root    338 :    55.175338745363520
 Root    339 :    55.276855443903270
 Root    340 :    55.424222733361670
 Root    341 :    55.548646490646850
 Root    342 :    55.663639108299090
 Root    343 :    55.736163334832180
 Root    344 :    55.844960652919690
 Root    345 :    55.967409100577520
 Root    346 :    56.038737692731330
 Root    347 :    56.083303526414280
 Root    348 :    56.161980775872540
 Root    349 :    56.174391911212010
 Root    350 :    56.321018798921410
 Root    351 :    56.382611518877330
 Root    352 :    56.508074790996370
 Root    353 :    56.526383295263140
 Root    354 :    56.758248399463960
 Root    355 :    56.835079806995320
 Root    356 :    56.913435760886050
 Root    357 :    57.132775496614150
 Root    358 :    57.240556429923440
 Root    359 :    57.293664389432050
 Root    360 :    57.368243763838560
 Root    361 :    57.453887324939940
 Root    362 :    57.520452698883720
 Root    363 :    57.607899230067700
 Root    364 :    57.687061054817760
 Root    365 :    57.888314225190160
 Root    366 :    57.899712034767120
 Root    367 :    58.046504632487690
 Root    368 :    58.082565798379700
 Root    369 :    58.265734076292280
 Root    370 :    58.384097332682440
 Root    371 :    58.443317921272570
 Root    372 :    58.593430216290240
 Root    373 :    58.742034329655160
 Root    374 :    58.916258520267870
 Root    375 :    59.008538992890100
 Root    376 :    59.061814579085520
 Root    377 :    59.296744331954630
 Root    378 :    59.320254665984720
 Root    379 :    59.406018997151980
 Root    380 :    59.468313620901650
 Root    381 :    59.556429485813340
 Root    382 :    59.653201110706140
 Root    383 :    59.762861569134860
 Root    384 :    59.807309942542720
 Root    385 :    59.905028034441390
 Root    386 :    60.060572245926330
 Root    387 :    60.174307716369310
 Root    388 :    60.213378220202560
 Root    389 :    60.314757712381100
 Root    390 :    60.360762036921330
 Root    391 :    60.482995097043330
 Root    392 :    60.544261608702280
 Root    393 :    60.633926172520790
 Root    394 :    60.681989824251620
 Root    395 :    60.776542609199480
 Root    396 :    60.871602513261990
 Root    397 :    60.951458150286730
 Root    398 :    60.988949375742930
 Root    399 :    61.213201597635420
 Root    400 :    61.315239254268390
 Root    401 :    61.386952585808370
 Root    402 :    61.548271831863670
 Root    403 :    61.614865228920410
 Root    404 :    61.708460175653380
 Root    405 :    61.750054804474640
 Root    406 :    61.816078840264510
 Root    407 :    61.962796592156050
 Root    408 :    62.025119115922440
 Root    409 :    62.171092682466510
 Root    410 :    62.521030859887160
 Root    411 :    62.640921850280800
 Root    412 :    62.741679186999720
 Root    413 :    62.824067681103070
 Root    414 :    63.117109703462370
 Root    415 :    63.161507946758380
 Root    416 :    63.194692516406160
 Root    417 :    63.377834741961120
 Root    418 :    63.476795832446290
 Root    419 :    63.673019251114200
 Root    420 :    63.793699504261310
 Root    421 :    63.988414443975220
 Root    422 :    64.058727737220610
 Root    423 :    64.147578141319680
 Root    424 :    64.202276257886840
 Root    425 :    64.313578370197920
 Root    426 :    64.409914787381870
 Root    427 :    64.523850171939800
 Root    428 :    64.715613018795930
 Root    429 :    65.085093488295100
 Root    430 :    65.230619668767190
 Root    431 :    65.342571981657610
 Root    432 :    65.415171812341580
 Root    433 :    65.489427946592530
 Root    434 :    65.873237829575250
 Root    435 :    66.046640528969430
 Root    436 :    66.116087534401810
 Root    437 :    66.203563945304840
 Root    438 :    66.295535251320100
 Root    439 :    66.418783435401830
 Root    440 :    66.657757887749140
 Root    441 :    66.695386586058920
 Root    442 :    67.028173549541960
 Root    443 :    67.154868946645820
 Root    444 :    67.308780588146790
 Root    445 :    67.490099986504430
 Root    446 :    67.580758222409050
 Root    447 :    67.700964885391440
 Root    448 :    67.811300166739500
 Root    449 :    67.889236335880280
 Root    450 :    68.014202935707490
 Root    451 :    68.075652615748550
 Root    452 :    68.210650398265810
 Root    453 :    68.281375833892330
 Root    454 :    68.340937637948580
 Root    455 :    68.630853356408450
 Root    456 :    68.778281597165620
 Root    457 :    68.892486394401270
 Root    458 :    68.981601834172100
 Root    459 :    68.998749568190110
 Root    460 :    69.154054364478950
 Root    461 :    69.567792185273120
 Root    462 :    69.714961190337580
 Root    463 :    70.031092621103010
 Root    464 :    70.135807816723400
 Root    465 :    70.344178740658070
 Root    466 :    70.419041228839130
 Root    467 :    70.501988324718170
 Root    468 :    70.670415698466310
 Root    469 :    70.950910052784620
 Root    470 :    71.063351053507600
 Root    471 :    71.199636803852770
 Root    472 :    71.337152961529900
 Root    473 :    71.417351983693640
 Root    474 :    71.488834748834280
 Root    475 :    71.781982858546060
 Root    476 :    71.897292278484270
 Root    477 :    71.997521800283140
 Root    478 :    72.164876738180790
 Root    479 :    72.278025579435980
 Root    480 :    72.658051960173070
 Root    481 :    72.723259987611020
 Root    482 :    72.760163356137650
 Root    483 :    73.139641668222140
 Root    484 :    73.227832797132510
 Root    485 :    73.259228389133200
 Root    486 :    73.451739929217180
 Root    487 :    73.484591320218090
 Root    488 :    73.619718412816680
 Root    489 :    73.670520526545720
 Root    490 :    73.778154216274420
 Root    491 :    73.839873398301250
 Root    492 :    73.986387790648440
 Root    493 :    74.266127356917760
 Root    494 :    74.340042603356650
 Root    495 :    74.577841859897760
 Root    496 :    74.643882373553040
 Root    497 :    74.972156642009080
 Root    498 :    75.137825073303890
 Root    499 :    75.332016261313000
 Root    500 :    75.422750441465980
 Root    501 :    75.668391417085350
 Root    502 :    75.709663464085580
 Root    503 :    76.016110743022790
 Root    504 :    76.168309230767430
 Root    505 :    76.247118064026610
 Root    506 :    76.524469011150100
 Root    507 :    76.750484993994220
 Root    508 :    76.936205031578610
 Root    509 :    77.183360056414200
 Root    510 :    77.209817568341710
 Root    511 :    77.732263411550160
 Root    512 :    77.838536488247750
 Root    513 :    78.076963719381230
 Root    514 :    78.199809435981900
 Root    515 :    78.503013325765310
 Root    516 :    78.535714991234160
 Root    517 :    78.632462512248640
 Root    518 :    78.814255371885050
 Root    519 :    78.984522412925030
 Root    520 :    79.559311551841110
 Root    521 :    79.702064210872510
 Root    522 :    79.810363430516860
 Root    523 :    79.938829913862700
 Root    524 :    80.098877062763560
 Root    525 :    80.139335592184740
 Root    526 :    80.423505038708200
 Root    527 :    80.570367483308420
 Root    528 :    80.663764752432070
 Root    529 :    80.781777505960460
 Root    530 :    81.046708715765720
 Root    531 :    81.269907541781650
 Root    532 :    81.669712589518310
 Root    533 :    81.958548472978460
 Root    534 :    82.066345264447220
 Root    535 :    82.311021951292820
 Root    536 :    82.388045274081860
 Root    537 :    82.610242267762620
 Root    538 :    82.686297922469270
 Root    539 :    82.940494381676230
 Root    540 :    83.144401283674140
 Root    541 :    83.248059761659850
 Root    542 :    83.507014347301900
 Root    543 :    83.612892530485640
 Root    544 :    83.790832786362270
 Root    545 :    83.988312018495860
 Root    546 :    84.040281718229150
 Root    547 :    84.515989811731260
 Root    548 :    84.578437331106600
 Root    549 :    84.930983557826650
 Root    550 :    85.146153078121940
 Root    551 :    85.159428880567390
 Root    552 :    85.596848374504790
 Root    553 :    85.776468979509360
 Root    554 :    85.971450362797650
 Root    555 :    86.037365085861510
 Root    556 :    86.082513919601200
 Root    557 :    86.402688721766860
 Root    558 :    86.673153189189820
 Root    559 :    86.788796827895710
 Root    560 :    86.845819740885730
 Root    561 :    87.171372019182200
 Root    562 :    87.277291308229720
 Root    563 :    87.429027461336800
 Root    564 :    87.466176634889170
 Root    565 :    87.649504231484710
 Root    566 :    87.762442803147040
 Root    567 :    87.869082412151940
 Root    568 :    87.984294532705310
 Root    569 :    88.160413718282060
 Root    570 :    88.397669271846910
 Root    571 :    88.699673794149700
 Root    572 :    88.795716046099530
 Root    573 :    88.894214933814450
 Root    574 :    89.053537912860050
 Root    575 :    89.338107582295360
 Root    576 :    89.395847596801770
 Root    577 :    89.468421364398080
 Root    578 :    89.713128524348360
 Root    579 :    89.915615855188620
 Root    580 :    90.092145198549450
 Root    581 :    90.183687982122340
 Root    582 :    90.521660311925150
 Root    583 :    90.810920757840800
 Root    584 :    90.980330619087500
 Root    585 :    91.116332168831040
 Root    586 :    91.242778576503610
 Root    587 :    91.424786571367380
 Root    588 :    91.605936781533930
 Root    589 :    91.968176694560710
 Root    590 :    92.043913686810650
 Root    591 :    92.098449917896660
 Root    592 :    92.201605078630980
 Root    593 :    92.553489247606610
 Root    594 :    92.704567825567790
 Root    595 :    92.933693423480680
 Root    596 :    93.045910613322820
 Root    597 :    93.113333401481550
 Root    598 :    93.256154732385380
 Root    599 :    93.342245642043110
 Root    600 :    94.186547560974120
 Root    601 :    94.392376615893680
 Root    602 :    94.479653601812490
 Root    603 :    94.814559718161690
 Root    604 :    94.826254297419580
 Root    605 :    95.412854543654250
 Root    606 :    95.652070959271730
 Root    607 :    95.723588288165860
 Root    608 :    96.322841142567910
 Root    609 :    96.365837167336640
 Root    610 :    96.654188013536600
 Root    611 :    96.741800740608680
 Root    612 :    96.790543050437530
 Root    613 :    97.016600730781320
 Root    614 :    97.385755294508850
 Root    615 :    97.930201740047070
 Root    616 :    97.997143753254990
 Root    617 :    98.148181464959990
 Root    618 :    99.069245523059590
 Root    619 :    99.163898880915550
 Root    620 :    99.278659675554990
 Root    621 :    99.512371601698900
 Root    622 :   100.271102529292600
 Root    623 :   100.463573853846200
 Root    624 :   101.300720378021100
 Root    625 :   101.674959344605600
 Root    626 :   102.274649371397800
 Root    627 :   102.644061297675200
 Root    628 :   102.823665627362900
 Root    629 :   102.985050929428900
 Root    630 :   103.441180044326200
 Root    631 :   103.489816387495700
 Root    632 :   104.657001250916200
 Root    633 :   104.827057150953400
 Root    634 :   104.901048723475300
 Root    635 :   106.609222662108600
 Root    636 :   106.889426604474400
 Root    637 :   108.427236003504000
 Root    638 :   109.400699355915100
 Root    639 :   112.062083736580200
 Root    640 :   114.745570505943400
 Convergence achieved for final wavefunctions.
 ***********************************************************************
 Excited states from <AA,BB:AA,BB> singles matrix:
 ***********************************************************************
 
 1PDM for each excited state written to RWF  633
 Ground to excited state transition densities written to RWF  633
 Ground to excited state transition electric dipole moments (Au):
       state          X           Y           Z        Dip. S.      Osc.
         1        -0.2064      0.0478     -0.0595      0.0484      0.0084
         2        -0.0831     -0.2154      0.1888      0.0890      0.0184
         3        -0.1335      0.1422      0.2154      0.0844      0.0181
         4        -0.0065     -0.5600     -0.5873      0.6586      0.1536
         5         0.3123     -0.0248      0.0819      0.1049      0.0256
         6        -0.0259     -0.0853      0.0920      0.0164      0.0042
         7         0.0137     -0.0211     -0.0137      0.0008      0.0002
         8         0.3031     -0.0732      0.0321      0.0983      0.0259
         9        -0.1057      0.0624     -0.0507      0.0176      0.0047
        10        -0.6150      0.3347      0.0778      0.4963      0.1363
        11        -0.0206      0.0119      0.2989      0.0899      0.0254
        12        -0.2229     -0.1079      0.3169      0.1618      0.0461
        13         0.0204      0.9353     -0.7293      1.4071      0.4069
        14         0.4490     -0.2187      0.2488      0.3113      0.0917
        15        -0.0823     -0.2634     -0.4045      0.2398      0.0713
        16         0.1193      0.1104      0.1118      0.0389      0.0116
        17         0.1589      0.0614      0.2105      0.0733      0.0220
        18        -0.0067     -0.3148     -0.5503      0.4019      0.1210
        19        -0.2775     -0.2725      0.2996      0.2411      0.0733
        20        -0.0724      0.1209     -0.1121      0.0324      0.0100
        21        -0.2041     -0.4130     -0.3483      0.3335      0.1045
        22        -0.5256     -0.5523     -0.2358      0.6369      0.2008
        23        -0.1431      0.2177      0.3195      0.1700      0.0543
        24         0.4038      0.0640      0.0663      0.1715      0.0553
        25         0.1408     -0.3597      0.0036      0.1492      0.0483
        26         0.5501      0.3760     -0.2028      0.4851      0.1583
        27         1.1754     -0.2782      0.0814      1.4656      0.4831
        28         0.1874     -0.1925      0.2167      0.1191      0.0401
        29         0.3414      0.0748      0.4030      0.2846      0.0961
        30        -0.3408     -0.1124      0.4408      0.3231      0.1102
        31         0.0816      0.5467     -0.2501      0.3681      0.1261
        32        -0.0028      0.3812      0.1872      0.1804      0.0621
        33        -0.2658      0.1688     -0.2010      0.1395      0.0483
        34        -0.1735     -0.2594      0.0462      0.0995      0.0348
        35         0.1537      0.2049     -0.1323      0.0831      0.0293
        36         0.1391      0.0474      0.0910      0.0299      0.0107
        37         0.0399     -0.1046      0.4757      0.2388      0.0865
        38         0.2067      0.0611     -0.0642      0.0506      0.0185
        39         0.0388      0.1832     -0.0958      0.0442      0.0163
        40        -0.1941      0.0684     -0.1597      0.0679      0.0251
        41         0.2053     -0.0797     -0.3496      0.1707      0.0634
        42         0.4238      0.1616     -0.1599      0.2313      0.0865
        43         0.4351     -0.0730     -0.0620      0.1984      0.0748
        44         0.0945     -0.2508     -0.0156      0.0721      0.0274
        45        -0.0179      0.6566     -0.0811      0.4381      0.1677
        46        -0.2175      0.0318     -0.3019      0.1395      0.0540
        47         0.3268      0.1680      0.0551      0.1381      0.0539
        48         0.2000     -0.0690      0.4269      0.2270      0.0886
        49        -0.5501     -0.2775      0.0585      0.3831      0.1503
        50        -0.3764     -0.2198      0.0752      0.1956      0.0785
        51         0.6466     -0.1295     -0.0358      0.4362      0.1758
        52        -0.1643      0.2317     -0.2703      0.1537      0.0624
        53         0.1563     -0.0049      0.1029      0.0351      0.0144
        54        -0.0059     -0.1235     -0.2444      0.0750      0.0309
        55        -0.6200      0.1916      0.2336      0.4757      0.1979
        56        -0.0766      0.1228     -0.1327      0.0385      0.0162
        57         0.1700     -0.0290     -0.4391      0.2225      0.0950
        58         0.2309      0.3004     -0.0053      0.1436      0.0614
        59         0.1252      0.2031     -0.2005      0.0971      0.0421
        60         0.0626     -0.0534     -0.0267      0.0075      0.0033
        61        -0.2154      0.2328     -0.1601      0.1262      0.0553
        62         0.0696      0.1188     -0.0760      0.0247      0.0109
        63        -0.0167      0.0422      0.1328      0.0197      0.0087
        64        -0.0279     -0.0896      0.3233      0.1133      0.0504
        65         0.1630     -0.0623      0.1344      0.0485      0.0217
        66        -0.3195      0.0254     -0.0518      0.1054      0.0481
        67        -0.0809      0.3244      0.0648      0.1159      0.0537
        68         0.0216      0.0381      0.1476      0.0237      0.0110
        69        -0.1436      0.2079      0.1504      0.0864      0.0404
        70         0.0534      0.3759      0.1811      0.1769      0.0835
        71         0.1085      0.0493     -0.0549      0.0172      0.0082
        72        -0.1098      0.0344     -0.0356      0.0145      0.0071
        73         0.1040      0.1108     -0.1423      0.0433      0.0217
        74         0.0410     -0.0648     -0.0666      0.0103      0.0052
        75        -0.0661     -0.0435     -0.1259      0.0221      0.0111
        76         0.0515      0.0577     -0.0174      0.0063      0.0032
        77        -0.0121     -0.2262     -0.0491      0.0537      0.0273
        78        -0.3222     -0.0909     -0.0277      0.1128      0.0577
        79         0.2591      0.0134     -0.2562      0.1330      0.0681
        80        -0.0137     -0.3764      0.1544      0.1657      0.0856
        81        -0.0853      0.0614      0.0308      0.0120      0.0062
        82         0.0127      0.4826     -0.1212      0.2478      0.1289
        83        -0.0606      0.3569      0.0161      0.1313      0.0687
        84         0.1607      0.0523     -0.1686      0.0570      0.0299
        85        -0.0343      0.4869      0.3030      0.3301      0.1742
        86        -0.4113      0.1455      0.1678      0.2185      0.1174
        87        -0.1975     -0.1232     -0.2606      0.1221      0.0660
        88         0.3947      0.1429      0.1344      0.1943      0.1051
        89        -0.3104      0.0137     -0.1597      0.1220      0.0666
        90        -0.1380      0.2013     -0.0142      0.0598      0.0329
        91         0.1387      0.0723      0.0378      0.0259      0.0143
        92         0.1670     -0.0618      0.0487      0.0341      0.0189
        93        -0.2690     -0.1638     -0.0723      0.1044      0.0583
        94        -0.0445      0.1299      0.2193      0.0670      0.0374
        95        -0.0561     -0.3780     -0.1179      0.1599      0.0899
        96        -0.3336      0.2617     -0.3059      0.2733      0.1542
        97         0.1337      0.0002      0.1121      0.0304      0.0173
        98         0.0892     -0.1808     -0.2760      0.1168      0.0665
        99         0.0639     -0.0097     -0.0347      0.0054      0.0031
       100         0.0324      0.0158      0.0510      0.0039      0.0022
       101         0.2373     -0.1676     -0.0887      0.0923      0.0534
       102         0.1652      0.0834     -0.1002      0.0443      0.0257
       103        -0.1149      0.2909     -0.0950      0.1068      0.0621
       104         0.1437      0.1005     -0.0195      0.0311      0.0182
       105        -0.0214     -0.0643      0.1650      0.0318      0.0187
       106         0.2529     -0.3012      0.1878      0.1900      0.1120
       107         0.2266      0.3040     -0.0213      0.1442      0.0855
       108        -0.0834      0.0245     -0.2865      0.0896      0.0532
       109         0.1721      0.0726     -0.1904      0.0711      0.0424
       110         0.1635     -0.1160     -0.1635      0.0669      0.0400
       111         0.0203     -0.1063     -0.0775      0.0177      0.0107
       112        -0.0119     -0.0876     -0.0537      0.0107      0.0065
       113        -0.3123     -0.0565      0.0601      0.1043      0.0636
       114        -0.3588      0.0454      0.1771      0.1621      0.0990
       115        -0.1376      0.0488      0.0732      0.0267      0.0163
       116         0.0553      0.2072      0.3646      0.1789      0.1100
       117         0.2268     -0.1533     -0.2706      0.1481      0.0913
       118        -0.1812      0.0160      0.1167      0.0467      0.0288
       119         0.1161      0.0684     -0.1107      0.0304      0.0189
       120         0.0952     -0.0049     -0.1008      0.0193      0.0120
       121        -0.1905     -0.1677      0.0903      0.0726      0.0453
       122         0.0484      0.1014     -0.0771      0.0186      0.0116
       123        -0.1131      0.0034     -0.0545      0.0158      0.0100
       124         0.1897     -0.1165      0.3066      0.1436      0.0911
       125        -0.1181      0.1390     -0.1893      0.0691      0.0439
       126         0.2280      0.1181      0.1398      0.0855      0.0546
       127         0.1490     -0.1528     -0.1524      0.0688      0.0440
       128        -0.1882      0.2491     -0.1890      0.1332      0.0858
       129        -0.0734      0.1263     -0.1300      0.0382      0.0248
       130        -0.0409     -0.0644     -0.0568      0.0091      0.0059
       131         0.2317     -0.0580      0.1581      0.0820      0.0533
       132         0.0389     -0.1714      0.0751      0.0365      0.0238
       133        -0.0907      0.1447     -0.1138      0.0421      0.0275
       134         0.1695     -0.0838      0.0400      0.0373      0.0244
       135        -0.0196     -0.2706      0.0186      0.0740      0.0487
       136        -0.1124     -0.0983      0.1623      0.0486      0.0321
       137        -0.0389      0.1334      0.0232      0.0198      0.0131
       138         0.1455      0.3670     -0.0502      0.1584      0.1052
       139         0.0126      0.0870     -0.2091      0.0515      0.0342
       140         0.1437     -0.1307     -0.1082      0.0494      0.0330
       141         0.0015      0.0702      0.1244      0.0204      0.0137
       142         0.1893      0.1401      0.3338      0.1668      0.1121
       143        -0.1114      0.0508      0.0595      0.0185      0.0125
       144        -0.1467      0.1450      0.0782      0.0487      0.0328
       145        -0.2492      0.0664      0.0553      0.0696      0.0470
       146         0.0427      0.2172      0.0567      0.0522      0.0354
       147        -0.1365      0.3089      0.1059      0.1252      0.0849
[...]
     16  -0.210643D-01  0.636217D-02 -0.890363D-01 -0.192415D+00  0.127683D-01
               571           572           573           574           575 
      1  -0.131773D+03 -0.131770D+03 -0.131766D+03 -0.131760D+03 -0.131750D+03
      2   0.776447D-01  0.522301D-01  0.521714D-01  0.106986D+00 -0.370816D-01
      3  -0.435194D-01 -0.781386D-02  0.764843D-02 -0.119124D-01  0.300959D-01
      4   0.293573D-01  0.199938D-01  0.555217D-02 -0.796566D-02  0.181576D-02
      5  -0.238379D+00 -0.144488D+00 -0.107238D+00 -0.291949D+00  0.132054D+00
      6   0.896354D-01  0.736162D-02 -0.912579D-01  0.877873D-01 -0.531454D-01
      7  -0.107718D+00 -0.647035D-01  0.579281D-02  0.352868D-01  0.164370D-02
      8   0.347744D-01  0.364290D-01  0.858639D-01  0.419937D-01  0.797463D-01
      9  -0.860701D-01  0.165804D-02  0.159506D+00  0.134285D+00  0.222072D+00
     10  -0.141095D+00 -0.829424D-01 -0.480297D-01 -0.661489D-01 -0.386686D+00
     11  -0.137046D+00 -0.257809D+00  0.310227D+00  0.302845D+00 -0.137114D+00
     12   0.119051D+00  0.200245D-01 -0.961216D-02 -0.167358D+00  0.133744D-01
     13  -0.474089D-01  0.390695D-01  0.208512D+00  0.415500D-01  0.136762D+00
     14  -0.660709D-01 -0.171459D+00 -0.109988D+00  0.533661D-01 -0.467625D+00
     15   0.150905D+00 -0.502217D-02 -0.203010D+00 -0.412072D-01 -0.306121D+00
     16   0.199905D-01  0.875612D-02  0.128130D+00 -0.305469D-01  0.118742D+00
               576           577           578           579           580 
      1  -0.131748D+03 -0.131745D+03 -0.131736D+03 -0.131729D+03 -0.131722D+03
      2  -0.742580D-03  0.234170D-02  0.178572D-01 -0.322003D-01 -0.293475D-01
      3  -0.175712D-01  0.129927D-01 -0.753142D-01 -0.690966D-02 -0.860757D-01
      4   0.567510D-02  0.725163D-02 -0.192813D-02  0.136078D-01 -0.250267D-01
      5  -0.213067D-01  0.916764D-02 -0.685643D-01  0.103906D+00  0.101714D+00
      6   0.572004D-01  0.745656D-02  0.191600D+00  0.269890D-01  0.242518D+00
      7   0.258596D-02 -0.694732D-02  0.233434D-01 -0.195597D-01  0.681673D-01
      8  -0.194673D+00 -0.412573D-01  0.912770D-01 -0.405797D-02 -0.370741D-01
      9  -0.664502D-01  0.188947D+00 -0.114027D+00 -0.262597D+00 -0.297999D+00
     10  -0.369483D+00  0.318174D-01  0.158308D+00  0.213516D+00 -0.407384D+00
     11  -0.822995D+00  0.122134D+01  0.172592D+00  0.478867D+00  0.146715D+00
     12   0.352637D+00  0.326256D+00  0.271891D+00 -0.120697D-01 -0.702189D-01
     13  -0.998343D-01 -0.205640D-01 -0.103465D+00 -0.708911D-01 -0.127232D+00
     14  -0.308167D+00  0.514093D-01 -0.178552D-01 -0.561742D-01 -0.184192D-01
     15   0.141451D+00 -0.336845D+00  0.192886D+00  0.269879D+00  0.261479D+00
     16  -0.319512D-01  0.556704D-01  0.398841D-01 -0.420461D-01 -0.940790D-01
               581           582           583           584           585 
      1  -0.131719D+03 -0.131706D+03 -0.131696D+03 -0.131690D+03 -0.131685D+03
      2   0.406689D-01 -0.523501D-01  0.167101D-01 -0.763954D-02  0.604285D-03
      3   0.450654D-01  0.110978D-01 -0.727518D-02  0.335333D-01  0.403904D-01
      4   0.280660D-01 -0.396334D-02  0.953175D-02 -0.681245D-02 -0.428025D-01
      5  -0.134877D+00  0.171160D+00 -0.500020D-01  0.395612D-01 -0.747268D-02
      6  -0.109058D+00 -0.271879D-01  0.105730D-01 -0.104890D+00 -0.136976D+00
      7  -0.870659D-01  0.474008D-02 -0.355321D-01  0.340896D-01  0.116142D+00
      8   0.537420D-01  0.227257D-01 -0.325813D-01 -0.578666D-01 -0.988327D-01
      9  -0.866730D-01  0.726118D-01  0.523140D+00 -0.349516D+00 -0.738757D-01
     10   0.214223D+00  0.354031D+00 -0.308091D+00  0.325503D-02  0.794074D-01
     11   0.122611D+00 -0.730206D+00 -0.138622D+00  0.891042D-01 -0.152925D+00
     12   0.278965D+00 -0.124369D+00 -0.388786D-01 -0.673512D-01  0.839936D-01
     13   0.629025D-01 -0.163797D-02  0.946359D-01 -0.493584D-01 -0.161229D+00
     14   0.260260D-01 -0.410407D-01 -0.204191D+00  0.460972D-01  0.195779D+00
     15  -0.381592D-01 -0.210878D+00 -0.462428D+00  0.402338D+00  0.172157D-01
     16   0.997006D-01 -0.923251D-02  0.481160D-01 -0.683161D-01 -0.151001D+00
               586           587           588           589           590 
      1  -0.131680D+03 -0.131673D+03 -0.131667D+03 -0.131653D+03 -0.131650D+03
      2  -0.105632D-01 -0.176152D-01  0.117554D+00  0.339081D-01  0.103887D-01
      3   0.459274D-01  0.169186D-01 -0.773003D-01 -0.111250D-01 -0.442365D-01
      4   0.379443D-01 -0.527960D-01 -0.177941D-02 -0.814384D-01  0.238359D-02
      5   0.246796D-01  0.579491D-01 -0.327791D+00 -0.103194D+00 -0.445398D-01
      6  -0.145065D+00 -0.576975D-01  0.237159D+00  0.239992D-01  0.127340D+00
      7  -0.100310D+00  0.154385D+00  0.182133D-02  0.211138D+00 -0.107071D-01
      8  -0.671071D-01  0.531082D-01  0.101116D-01  0.454861D-01  0.891689D-01
      9  -0.119926D+00 -0.123055D+00 -0.134155D+00 -0.966910D-01  0.288972D-01
     10   0.390149D-01 -0.810532D-01  0.286345D+00  0.200018D+00 -0.328782D+00
     11  -0.144656D+00  0.333618D+00 -0.153243D+01 -0.397246D+00 -0.345440D+00
     12   0.978688D-01 -0.299178D-01 -0.316252D+00 -0.155565D+00  0.296132D+00
     13  -0.385215D-01  0.837047D-01 -0.428929D-02 -0.982197D-01  0.227407D-01
     14  -0.212282D+00 -0.168256D+00  0.715967D+00  0.208230D+00 -0.143745D+00
     15   0.200552D+00  0.722383D-01  0.154182D+00  0.222066D+00  0.497600D-01
     16   0.636934D-01  0.623064D-01 -0.145185D+00 -0.872317D-01  0.206453D+00
               591           592           593           594           595 
      1  -0.131648D+03 -0.131645D+03 -0.131632D+03 -0.131626D+03 -0.131618D+03
      2  -0.866490D-02  0.345784D-01 -0.589415D-01 -0.649871D-01  0.323952D-01
      3   0.278046D-01 -0.611708D-01  0.561087D-02  0.112079D-01 -0.338994D-01
      4   0.169280D-03  0.430272D-01 -0.489884D-01  0.344569D-01 -0.293242D-01
      5   0.479702D-01 -0.123025D+00  0.137111D+00  0.193640D+00 -0.114893D+00
      6  -0.104820D+00  0.193221D+00  0.375532D-02 -0.628806D-01  0.122204D+00
      7  -0.675627D-02 -0.108316D+00  0.118187D+00 -0.847397D-01  0.835557D-01
      8   0.412649D-01 -0.163074D+00 -0.431751D-01  0.398855D-01  0.418389D-01
      9   0.170858D+00 -0.219246D+00 -0.187344D+00  0.330769D-01  0.212159D-01
     10  -0.288018D+00  0.105487D+00 -0.215776D+00 -0.891434D-01  0.374868D+00
     11  -0.514825D+00 -0.440475D+00  0.390759D+00 -0.140702D+00  0.795910D-01
     12   0.255887D+00  0.262774D-01  0.143439D+00  0.127892D+00 -0.922030D-01
     13   0.752992D-01 -0.855848D-01  0.857530D-02  0.749209D-01 -0.114332D+00
     14  -0.115918D+00  0.153852D+00 -0.497831D+00 -0.242519D+00  0.348395D+00
     15  -0.174989D+00  0.182727D+00  0.190467D+00 -0.123635D+00 -0.489838D-01
     16   0.167040D+00 -0.249708D+00 -0.117329D-01  0.803643D-01 -0.716424D-01
               596           597           598           599           600 
      1  -0.131614D+03 -0.131611D+03 -0.131606D+03 -0.131603D+03 -0.131572D+03
      2   0.329234D-01 -0.233339D-01 -0.967110D-02 -0.114916D-01 -0.930585D-02
      3  -0.798489D-02  0.115900D-02 -0.319356D-01  0.243749D-01 -0.392322D-01
      4   0.473691D-02  0.118805D-01  0.224884D-02 -0.172326D-01 -0.231344D-01
      5  -0.114273D+00  0.757422D-01  0.182603D-01  0.299014D-01  0.212899D-02
      6   0.351681D-01  0.119765D-02  0.103386D+00 -0.772016D-01  0.132840D+00
      7  -0.109189D-01 -0.538811D-01 -0.233570D-01  0.437516D-01  0.929313D-01
      8  -0.215426D-01 -0.599636D-01  0.106889D-01 -0.495499D-01 -0.457007D-01
      9   0.174363D+00 -0.299550D+00  0.269845D+00  0.944262D-01 -0.127248D+00
     10   0.102022D+00  0.169245D+00  0.138752D+00  0.854346D-01  0.163849D+00
     11  -0.122011D+00  0.120270D+00 -0.964120D+00 -0.147774D+00 -0.281602D+00
     12   0.314257D-01  0.579949D-01  0.672048D-01 -0.501273D-01 -0.120333D+00
     13  -0.328876D-01 -0.981849D-01  0.451490D-01 -0.948635D-02 -0.180363D-02
     14   0.224578D+00 -0.208587D-01  0.260860D+00  0.357707D+00  0.145166D+00
     15  -0.131014D+00  0.281389D+00 -0.166048D+00 -0.477291D-01  0.683757D-01
     16  -0.157905D-03 -0.895063D-01 -0.315492D-01  0.113070D-01 -0.966007D-01
               601           602           603           604           605 
      1  -0.131564D+03 -0.131561D+03 -0.131549D+03 -0.131548D+03 -0.131527D+03
      2   0.652577D-02  0.143927D-01 -0.123642D-01  0.346690D-01  0.167843D-01
      3  -0.145428D-01  0.209339D-01 -0.143708D-01 -0.578492D-02 -0.250874D-01
      4   0.258561D-01 -0.475101D-02 -0.689469D-01  0.213998D-01  0.447955D-02
      5  -0.270851D-01 -0.238166D-01  0.444334D-01 -0.101290D+00 -0.561882D-01
      6   0.477717D-01 -0.613234D-01  0.293912D-01  0.173397D-01  0.704688D-01
      7  -0.796362D-01  0.124155D-01  0.194461D+00 -0.733829D-01 -0.324835D-01
      8   0.134083D+00  0.420004D-01  0.355441D-02 -0.395550D-01  0.200212D+00
      9   0.153995D+00  0.118679D+00  0.265926D+00  0.302543D+00  0.522335D-01
     10  -0.160632D+00 -0.205754D+00 -0.956280D-01  0.518259D-01  0.153104D-01
     11  -0.397089D+00  0.310606D-01  0.118026D+00 -0.130052D+00 -0.344354D+00
     12  -0.434852D-01 -0.275614D+00  0.247350D-01  0.168388D-01  0.154384D+00
     13  -0.329040D-01  0.168332D+00 -0.791120D-02  0.102242D+00  0.167332D+00
     14  -0.161227D+00 -0.366637D+00 -0.262064D+00 -0.287154D-01  0.122875D+00
     15  -0.154268D+00 -0.938772D-01 -0.242624D+00 -0.302104D+00 -0.352399D-02
     16   0.140875D+00  0.422130D-01  0.134290D-01 -0.713768D-02  0.216588D+00
               606           607           608           609           610 
      1  -0.131518D+03 -0.131515D+03 -0.131493D+03 -0.131492D+03 -0.131481D+03
      2   0.406338D-01  0.216076D-02  0.211903D-01 -0.566756D-01 -0.209000D-01
      3   0.409377D-01 -0.999991D-02 -0.549236D-02  0.664557D-01  0.654717D-01
      4  -0.381566D-01  0.311910D-01 -0.294059D-01  0.350004D-01 -0.215559D-01
      5  -0.135506D+00  0.193477D-01 -0.573613D-01  0.182904D+00  0.702067D-01
      6  -0.120407D+00  0.200640D-01  0.305960D-01 -0.194296D+00 -0.185253D+00
      7   0.141984D+00 -0.787253D-01  0.674199D-01 -0.135217D+00  0.629664D-01
      8   0.391574D-01 -0.365234D-01  0.117353D+00  0.459484D-01  0.635381D-02
      9  -0.151459D+00 -0.158107D+00 -0.872975D-01  0.144767D+00  0.484070D-01
     10  -0.155105D+00 -0.422950D+00  0.119348D-02 -0.328937D+00  0.211849D+00
     11  -0.427695D+00 -0.126719D-02 -0.277102D+00  0.820657D+00 -0.115518D+00
     12  -0.615935D-01 -0.345066D+00 -0.211541D+00  0.102399D+00  0.968960D-01
     13  -0.850893D-01  0.779531D-01  0.520904D-01  0.922996D-01 -0.868761D-01
     14  -0.205795D-01 -0.306414D+00  0.950265D-01 -0.459801D+00 -0.152124D+00
     15   0.176971D+00  0.100191D+00  0.770871D-02 -0.111978D+00 -0.141328D+00
     16   0.495845D-01 -0.100905D+00  0.121367D+00  0.152949D+00  0.269150D-01
               611           612           613           614           615 
      1  -0.131478D+03 -0.131476D+03 -0.131468D+03 -0.131454D+03 -0.131434D+03
      2  -0.656603D-01 -0.343494D-01 -0.443248D-02 -0.220903D-01  0.410517D-02
      3  -0.442754D-01  0.120336D+00 -0.462550D-01 -0.200410D-01 -0.117596D-01
      4   0.716599D-01  0.373924D-01  0.991718D-02 -0.104940D-02 -0.166312D-01
      5   0.257102D+00  0.140775D+00 -0.292667D-02  0.712260D-01 -0.690599D-02
      6   0.171443D+00 -0.438785D+00  0.170910D+00  0.613643D-01  0.284190D-01
      7  -0.227694D+00 -0.878393D-01 -0.298718D-01  0.554212D-02  0.647230D-01
      8   0.164690D+00  0.163446D-01  0.879049D-01 -0.634823D-01 -0.191955D+00
      9   0.467888D+00  0.141138D-01 -0.478297D+00 -0.100531D-01 -0.205786D-01
     10   0.506172D+00 -0.837593D+00  0.412908D+00  0.214819D+00 -0.880928D-01
     11   0.713376D+00  0.322765D+00 -0.350176D+00 -0.532792D-02  0.350569D-01
     12   0.149130D+00  0.364771D+00 -0.277236D+00  0.623284D-01 -0.466504D-01
     13   0.452289D-01  0.102665D+00  0.174290D-01 -0.169265D-01 -0.322507D-02
     14   0.279714D+00 -0.741442D+00  0.217248D+00  0.130647D+00 -0.122582D+00
     15  -0.516797D+00 -0.168662D+00  0.489226D+00  0.289232D-01  0.302414D-01
     16   0.768099D-01  0.157489D+00 -0.114340D+00  0.106788D-01 -0.644191D-01
               616           617           618           619           620 
      1  -0.131432D+03 -0.131426D+03 -0.131392D+03 -0.131389D+03 -0.131385D+03
      2   0.805006D-01 -0.156794D-01  0.308277D-01 -0.173634D-01 -0.792357D-02
      3   0.140060D-01  0.320254D-01 -0.509586D-01  0.400293D-01 -0.484989D-01
      4  -0.528407D-01  0.614916D-01 -0.145044D-01 -0.928058D-02  0.152621D-01
      5  -0.303044D+00  0.812160D-01 -0.140406D+00  0.477626D-01  0.554214D-02
      6  -0.673982D-01 -0.954581D-01  0.175974D+00 -0.104818D+00  0.185266D+00
      7   0.179879D+00 -0.180229D+00  0.236900D-01  0.340312D-01 -0.508584D-01
      8  -0.892694D-01  0.997544D-01  0.215441D-01 -0.174471D+00  0.113828D+00
      9  -0.473972D+00 -0.221282D+00 -0.971060D-01 -0.203919D+00  0.634842D-01
     10  -0.224048D+00  0.180688D+00  0.145690D+00  0.357366D+00  0.529293D+00
     11  -0.121248D+01  0.396391D+00 -0.256588D+00 -0.156512D+00  0.243742D+00
     12   0.238004D+00  0.127391D+00 -0.180489D+00 -0.675997D-01 -0.446008D+00
     13  -0.218525D+00 -0.441681D-02 -0.805768D-03 -0.820822D-01  0.100244D+00
     14   0.447897D-01  0.114922D+00  0.111090D+00  0.332984D+00  0.416447D+00
     15   0.656962D+00  0.224881D+00  0.210726D+00  0.287950D+00 -0.118695D+00
     16  -0.673310D-01  0.599899D-01 -0.716496D-01 -0.103907D+00 -0.479337D-01
               621           622           623           624           625 
      1  -0.131376D+03 -0.131348D+03 -0.131341D+03 -0.131310D+03 -0.131297D+03
      2   0.710947D-02  0.200722D-01 -0.152508D-01 -0.276985D-01 -0.793990D-01
      3  -0.128233D-01  0.820156D-02  0.350389D-01  0.272181D-01 -0.577234D-01
      4   0.336994D-01  0.200711D-01  0.607852D-01 -0.610244D-01  0.658656D-02
      5  -0.216975D-01 -0.575531D-01  0.171559D-01  0.133140D+00  0.267474D+00
      6   0.252569D-01 -0.132085D-01 -0.103774D+00 -0.819297D-01  0.187032D+00
      7  -0.962302D-01 -0.668012D-01 -0.185316D+00  0.233744D+00 -0.223009D-02
      8  -0.299733D-01  0.362095D-01  0.449429D-01 -0.102645D+00  0.574985D-01
      9  -0.218512D-01  0.257267D+00  0.189565D+00 -0.444089D+00 -0.252980D-01
     10  -0.423459D+00 -0.318057D+00 -0.151228D-01 -0.101526D+00  0.592836D+00
     11   0.160536D+00  0.426810D+00 -0.526479D+00  0.510416D+00  0.985208D+00
     12   0.164383D+00 -0.604155D-01  0.451282D-01  0.155858D+00 -0.283675D+00
     13  -0.509263D-01  0.159530D-01 -0.134704D+00 -0.155220D+00  0.111705D+00
     14  -0.489040D+00 -0.769431D-01  0.186008D-01 -0.261892D+00  0.222789D+00
     15   0.970019D-01 -0.243613D+00 -0.204653D+00  0.318974D+00 -0.160094D+00
     16  -0.129193D-01 -0.399109D-01 -0.297014D-01  0.308403D-01 -0.457019D-01
               626           627           628           629           630 
      1  -0.131274D+03 -0.131261D+03 -0.131254D+03 -0.131248D+03 -0.131232D+03
      2   0.261047D-01  0.455102D-02 -0.115256D-01 -0.153181D-01 -0.342679D-01
      3   0.666922D-01 -0.107854D-01 -0.984035D-02  0.978027D-02  0.450401D-01
      4  -0.470789D-01  0.407819D-01  0.416693D-01  0.809930D-02 -0.151384D-01
      5  -0.114411D+00 -0.209899D-02  0.407766D-01  0.746819D-01  0.119799D+00
      6  -0.228268D+00  0.403047D-01  0.136590D-01 -0.374829D-01 -0.119835D+00
      7   0.154444D+00 -0.122378D+00 -0.114867D+00 -0.169885D-01  0.817970D-01
      8  -0.126740D+00  0.552445D-01 -0.932525D-01  0.518497D-01 -0.139438D+00
      9  -0.420466D+00 -0.215885D+00 -0.217438D+00  0.136831D+00 -0.328580D+00
     10  -0.576903D+00  0.104317D+00 -0.172656D+00  0.100730D+00 -0.367993D-01
     11  -0.450235D+00  0.833056D-01  0.408568D+00  0.610125D+00  0.563239D+00
     12   0.376057D+00 -0.179062D+00  0.272923D+00  0.172100D+00 -0.195264D-02
     13  -0.162059D+00  0.423254D-01 -0.468842D-01  0.727220D-01 -0.119116D+00
     14  -0.416155D+00  0.119120D+00 -0.339720D+00 -0.374429D+00 -0.280517D+00
     15   0.456097D+00  0.208010D+00  0.127329D+00 -0.287145D+00  0.213492D+00
     16   0.311584D-01 -0.751080D-01  0.231818D-01  0.904146D-01 -0.544855D-01
               631           632           633           634           635 
      1  -0.131230D+03 -0.131187D+03 -0.131181D+03 -0.131178D+03 -0.131115D+03
      2   0.475691D-01  0.478874D-01  0.297229D-01  0.577304D-01 -0.409234D-02
      3   0.140741D-02  0.395882D-01 -0.828798D-02 -0.626478D-02 -0.902698D-03
      4   0.649340D-01 -0.127650D-01  0.472116D-01  0.441390D-02 -0.345955D-02
      5  -0.166735D+00 -0.142831D+00 -0.110371D+00 -0.175926D+00  0.218738D-01
      6  -0.801448D-03 -0.126336D+00  0.294882D-01  0.190631D-01  0.996925D-02
      7  -0.240600D+00  0.296391D-01 -0.187646D+00 -0.392970D-01  0.218325D-01
      8   0.102768D+00 -0.453367D-01  0.118972D+00  0.762093D-01 -0.734672D-01
      9   0.530069D+00 -0.136843D-02  0.389546D+00  0.184170D+00 -0.151660D+00
     10   0.948955D-01 -0.431046D+00  0.852910D-01 -0.100359D+00 -0.118892D-01
     11  -0.572616D+00 -0.954259D+00 -0.708283D+00 -0.504946D+00  0.521041D+00
     12  -0.175580D+00  0.283701D+00 -0.147769D-01 -0.794437D-01  0.268841D+00
     13   0.151640D+00 -0.535443D-01  0.109088D+00  0.100250D+00 -0.380629D-01
     14   0.191565D+00 -0.171526D+00  0.256472D+00  0.727771D-01 -0.290765D+00
     15  -0.452775D+00  0.121798D+00 -0.298497D+00 -0.907083D-01  0.470233D-01
     16   0.369792D-01  0.103803D-01  0.103808D+00  0.835360D-01  0.436184D-01
               636           637           638           639           640 
      1  -0.131105D+03 -0.131048D+03 -0.131013D+03 -0.130915D+03 -0.130816D+03
      2   0.677119D-02  0.403570D-02  0.544441D-01  0.777590D-02 -0.351254D-01
      3  -0.938041D-02 -0.986754D-02 -0.207732D-01  0.187537D-01 -0.549945D-01
      4   0.372336D-01  0.129972D-01  0.371949D-01 -0.158696D-01  0.327529D-01
      5  -0.289396D-01 -0.162012D-01 -0.140507D+00 -0.365324D-01  0.114215D+00
      6   0.269019D-01  0.300412D-01  0.378379D-01 -0.669439D-01  0.186149D+00
      7  -0.117730D+00 -0.351448D-01 -0.131533D+00  0.574029D-01 -0.112221D+00
      8  -0.108019D+00  0.464475D-02  0.380772D-01 -0.650415D-01  0.718458D-01
      9  -0.911248D-01  0.659474D-01  0.274826D+00 -0.118056D+00  0.216403D+00
     10  -0.313884D-02  0.108682D-01 -0.477957D-01 -0.254897D+00  0.415813D+00
     11  -0.166490D+00 -0.731418D-02 -0.488755D+00 -0.136323D+00  0.445353D+00
     12  -0.535874D-01  0.109580D-02  0.643838D-01  0.660646D-01 -0.212652D+00
     13   0.262636D-01  0.326630D-01 -0.122295D-02 -0.948205D-01  0.156450D+00
     14   0.603860D-01  0.683991D-01  0.982007D-01 -0.160312D+00  0.224384D+00
     15   0.140575D+00 -0.736278D-01 -0.186649D+00  0.127244D+00 -0.275341D+00
     16  -0.552333D-01  0.193749D-01 -0.170726D-01  0.133259D-01 -0.663025D-01
 Unable to Open any file for archive entry.
 1\1\GINC-HEL13\SP\RwB97XD TD-FC\def2SVP\C2H7N1\PRAKRITI\14-Aug-2021\0\
 \#P TD(Nstates=10000) wB97XD/def2SVP SCF(maxcycles=100) Int(Grid=ultra
 fine)\\xGDB7_00001_tier4.com\\0,1\C,0,-1.244141,-0.235754,-0.027915\C,
 0,0.05307,0.554353,0.054597\N,0,1.20258,-0.320195,-0.118513\H,0,-2.119
 845,0.425044,0.054983\H,0,-1.30763,-0.976111,0.786441\H,0,-1.300428,-0
 .780687,-0.981677\H,0,0.06348,1.13096,1.004377\H,0,0.070274,1.303101,-
 0.754854\H,0,1.254541,-0.98676,0.650372\H,0,2.067972,0.214222,-0.09014
 6\\Version=EM64L-G16RevC.01\State=1-A\HF=-135.0329892\RMSD=9.879e-09\P
 G=C01 [X(C2H7N1)]\\@
 The archive entry for this job was punched.


 TRUTH, IN SCIENCE, CAN BE DEFINED AS THE WORKING HYPOTHESIS 
 BEST FITTED TO OPEN THE WAY TO THE NEXT BETTER ONE.

                              -- KONRAD LORENZ
 Job cpu time:       0 days  0 hours  8 minutes 16.7 seconds.
 Elapsed time:       0 days  0 hours  1 minutes  2.4 seconds.
 File lengths (MBytes):  RWF=    519 Int=      0 D2E=      0 Chk=     99 Scr=      1
 Normal termination of Gaussian 16 at Sat Aug 14 07:23:53 2021.
