 Entering Gaussian System, Link 0=g16
 Input=xGDB7_000008_TDDFT.com
 Output=xGDB7_000008_TDDFT.log
 Initial command:
 /home/prakriti/g16/l1.exe "/scratch/prakriti/PBS_7434518.helios/Gau-193512.inp" -scrdir="/scratch/prakriti/PBS_7434518.helios/"
 Entering Link 1 = /home/prakriti/g16/l1.exe PID=    193513.
  
 Copyright (c) 1988-2019, Gaussian, Inc.  All Rights Reserved.
  
 This is part of the Gaussian(R) 16 program.  It is based on
 the Gaussian(R) 09 system (copyright 2009, Gaussian, Inc.),
 the Gaussian(R) 03 system (copyright 2003, Gaussian, Inc.),
 the Gaussian(R) 98 system (copyright 1998, Gaussian, Inc.),
 the Gaussian(R) 94 system (copyright 1995, Gaussian, Inc.),
 the Gaussian 92(TM) system (copyright 1992, Gaussian, Inc.),
 the Gaussian 90(TM) system (copyright 1990, Gaussian, Inc.),
 the Gaussian 88(TM) system (copyright 1988, Gaussian, Inc.),
 the Gaussian 86(TM) system (copyright 1986, Carnegie Mellon
 University), and the Gaussian 82(TM) system (copyright 1983,
 Carnegie Mellon University). Gaussian is a federally registered
 trademark of Gaussian, Inc.
  
 This software contains proprietary and confidential information,
 including trade secrets, belonging to Gaussian, Inc.
  
 This software is provided under written license and may be
 used, copied, transmitted, or stored only in accord with that
 written license.
  
 The following legend is applicable only to US Government
 contracts under FAR:
  
                    RESTRICTED RIGHTS LEGEND
  
 Use, reproduction and disclosure by the US Government is
 subject to restrictions as set forth in subparagraphs (a)
 and (c) of the Commercial Computer Software - Restricted
 Rights clause in FAR 52.227-19.
  
 Gaussian, Inc.
 340 Quinnipiac St., Bldg. 40, Wallingford CT 06492
  
  
 ---------------------------------------------------------------
 Warning -- This program may not be used in any manner that
 competes with the business of Gaussian, Inc. or will provide
 assistance to any competitor of Gaussian, Inc.  The licensee
 of this program is prohibited from giving any competitor of
 Gaussian, Inc. access to this program.  By using this program,
 the user acknowledges that Gaussian, Inc. is engaged in the
 business of creating and licensing software in the field of
 computational chemistry and represents and warrants to the
 licensee that it is not a competitor of Gaussian, Inc. and that
 it will not use this program in any manner prohibited above.
 ---------------------------------------------------------------
  

 Cite this work as:
 Gaussian 16, Revision C.01,
 M. J. Frisch, G. W. Trucks, H. B. Schlegel, G. E. Scuseria, 
 M. A. Robb, J. R. Cheeseman, G. Scalmani, V. Barone, 
 G. A. Petersson, H. Nakatsuji, X. Li, M. Caricato, A. V. Marenich, 
 J. Bloino, B. G. Janesko, R. Gomperts, B. Mennucci, H. P. Hratchian, 
 J. V. Ortiz, A. F. Izmaylov, J. L. Sonnenberg, D. Williams-Young, 
 F. Ding, F. Lipparini, F. Egidi, J. Goings, B. Peng, A. Petrone, 
 T. Henderson, D. Ranasinghe, V. G. Zakrzewski, J. Gao, N. Rega, 
 G. Zheng, W. Liang, M. Hada, M. Ehara, K. Toyota, R. Fukuda, 
 J. Hasegawa, M. Ishida, T. Nakajima, Y. Honda, O. Kitao, H. Nakai, 
 T. Vreven, K. Throssell, J. A. Montgomery, Jr., J. E. Peralta, 
 F. Ogliaro, M. J. Bearpark, J. J. Heyd, E. N. Brothers, K. N. Kudin, 
 V. N. Staroverov, T. A. Keith, R. Kobayashi, J. Normand, 
 K. Raghavachari, A. P. Rendell, J. C. Burant, S. S. Iyengar, 
 J. Tomasi, M. Cossi, J. M. Millam, M. Klene, C. Adamo, R. Cammi, 
 J. W. Ochterski, R. L. Martin, K. Morokuma, O. Farkas, 
 J. B. Foresman, and D. J. Fox, Gaussian, Inc., Wallingford CT, 2019.
 
 ******************************************
 Gaussian 16:  EM64L-G16RevC.01  3-Jul-2019
                14-Aug-2021 
 ******************************************
 %mem=8gb
 %nproc=8
 Will use up to    8 processors via shared memory.
 ----------------------------------------------------------------------
 #P TD(Nstates=10000) wB97XD/def2SVP SCF(maxcycles=100) Int(Grid=ultraf
 ine)
 ----------------------------------------------------------------------
 1/38=1,172=1/1;
 2/12=2,17=6,18=5,40=1/2;
 3/5=43,7=101,11=9,25=1,30=1,74=-58,75=-5/1,2,3,8;
 4//1;
 5/5=2,7=100,38=5/2;
 8/6=1,10=1,108=10000/1;
 9/41=10000,42=1,70=2/14;
 6/7=2,8=2,9=2,10=2/1;
 99/5=1,9=1/99;
 Leave Link    1 at Sat Aug 14 07:22:40 2021, MaxMem=  1073741824 cpu:               0.4 elap:               0.1
 (Enter /home/prakriti/g16/l101.exe)
 ---------------------
 xGDB7_00001_tier4.com
 ---------------------
 Symbolic Z-matrix:
 Charge =  0 Multiplicity = 1
 6                    -0.62049   0.        0. 
 9                     0.74543   0.        0. 
 1                    -0.9953   -0.41599   0.9488 
 1                    -0.99531  -0.6137   -0.83466 
 1                    -0.9953    1.02969  -0.11415 
 
 ITRead=  0  0  0  0  0
 MicOpt= -1 -1 -1 -1 -1
 NAtoms=      5 NQM=        5 NQMF=       0 NMMI=      0 NMMIF=      0
                NMic=       0 NMicF=      0.
                    Isotopes and Nuclear Properties:
 (Nuclear quadrupole moments (NQMom) in fm**2, nuclear magnetic moments (NMagM)
  in nuclear magnetons)

  Atom         1           2           3           4           5
 IAtWgt=          12          19           1           1           1
 AtmWgt=  12.0000000  18.9984033   1.0078250   1.0078250   1.0078250
 NucSpn=           0           1           1           1           1
 AtZEff=  -0.0000000  -0.0000000  -0.0000000  -0.0000000  -0.0000000
 NQMom=    0.0000000   0.0000000   0.0000000   0.0000000   0.0000000
 NMagM=    0.0000000   2.6288670   2.7928460   2.7928460   2.7928460
 AtZNuc=   6.0000000   9.0000000   1.0000000   1.0000000   1.0000000
 Leave Link  101 at Sat Aug 14 07:22:40 2021, MaxMem=  1073741824 cpu:               0.6 elap:               0.1
 (Enter /home/prakriti/g16/l202.exe)
                          Input orientation:                          
 ---------------------------------------------------------------------
 Center     Atomic      Atomic             Coordinates (Angstroms)
 Number     Number       Type             X           Y           Z
 ---------------------------------------------------------------------
      1          6           0       -0.620492    0.000001    0.000000
      2          9           0        0.745429    0.000000    0.000000
      3          1           0       -0.995303   -0.415990    0.948801
      4          1           0       -0.995305   -0.613698   -0.834655
      5          1           0       -0.995300    1.029686   -0.114146
 ---------------------------------------------------------------------
                    Distance matrix (angstroms):
                    1          2          3          4          5
     1  C    0.000000
     2  F    1.365921   0.000000
     3  H    1.101706   2.025690   0.000000
     4  H    1.101708   2.025692   1.794381   0.000000
     5  H    1.101708   2.025690   1.794390   1.794392   0.000000
 Stoichiometry    CH3F
 Framework group  C1[X(CH3F)]
 Deg. of freedom     9
 Full point group                 C1      NOp   1
 Largest Abelian subgroup         C1      NOp   1
 Largest concise Abelian subgroup C1      NOp   1
                         Standard orientation:                         
 ---------------------------------------------------------------------
 Center     Atomic      Atomic             Coordinates (Angstroms)
 Number     Number       Type             X           Y           Z
 ---------------------------------------------------------------------
      1          6           0       -0.620492    0.000001    0.000000
      2          9           0        0.745429   -0.000000   -0.000000
      3          1           0       -0.995303   -0.422238    0.946037
      4          1           0       -0.995305   -0.608181   -0.838684
      5          1           0       -0.995300    1.030416   -0.107353
 ---------------------------------------------------------------------
 Rotational constants (GHZ):         155.7397281          26.0630506          26.0630173
 Leave Link  202 at Sat Aug 14 07:22:40 2021, MaxMem=  1073741824 cpu:               0.1 elap:               0.0
 (Enter /home/prakriti/g16/l301.exe)
 Standard basis: def2SVP (5D, 7F)
 Ernie: Thresh=  0.10000D-02 Tol=  0.10000D-05 Strict=F.
 There are    45 symmetry adapted cartesian basis functions of A   symmetry.
 There are    43 symmetry adapted basis functions of A   symmetry.
    43 basis functions,    71 primitive gaussians,    45 cartesian basis functions
     9 alpha electrons        9 beta electrons
       nuclear repulsion energy        37.5042228553 Hartrees.
 IExCor= 4639 DFT=T Ex+Corr=wB97XD ExCW=0 ScaHFX=  1.000000
 ScaDFX=  1.000000  1.000000  1.000000  1.000000 ScalE2=  1.000000  1.000000
 IRadAn=      5 IRanWt=     -1 IRanGd=            0 ICorTp=0 IEmpDi=121
 HFx  wShort=  0.000000 wLong=  0.200000 cFull=  0.222036 cShort=  0.000000 cLong=  0.777964
 DFx  wShort=  0.000000 wLong=  0.200000 cFull=  0.000000 cShort=  0.000000 cLong=  1.000000
 NAtoms=    5 NActive=    5 NUniq=    5 SFac= 1.00D+00 NAtFMM=   60 NAOKFM=F Big=F
 Integral buffers will be    131072 words long.
 Raffenetti 1 integral format.
 Two-electron integral symmetry is turned on.
 R6Disp:  Grimme-D2 Dispersion energy=       -0.0004111418 Hartrees.
 Nuclear repulsion after empirical dispersion term =       37.5038117135 Hartrees.
 Leave Link  301 at Sat Aug 14 07:22:40 2021, MaxMem=  1073741824 cpu:               0.4 elap:               0.1
 (Enter /home/prakriti/g16/l302.exe)
 NPDir=0 NMtPBC=     1 NCelOv=     1 NCel=       1 NClECP=     1 NCelD=      1
         NCelK=      1 NCelE2=     1 NClLst=     1 CellRange=     0.0.
 One-electron integrals computed using PRISM.
 One-electron integral symmetry used in STVInt
   1 Symmetry operations used in ECPInt.
 ECPInt:  NShTT=     231 NPrTT=     815 LenC2=     232 LenP2D=     766.
 LDataN:  DoStor=T MaxTD1= 4 Len=   56
 NBasis=    43 RedAO= T EigKep=  1.48D-02  NBF=    43
 NBsUse=    43 1.00D-06 EigRej= -1.00D+00 NBFU=    43
 Precomputing XC quadrature grid using
 IXCGrd= 4 IRadAn=           5 IRanWt=          -1 IRanGd=           0 AccXCQ= 0.00D+00.
 Generated NRdTot=       0 NPtTot=           0 NUsed=           0 NTot=          32
 NSgBfM=    45    45    45    45    45 MxSgAt=     5 MxSgA2=     5.
 Leave Link  302 at Sat Aug 14 07:22:41 2021, MaxMem=  1073741824 cpu:               0.9 elap:               0.1
 (Enter /home/prakriti/g16/l303.exe)
 DipDrv:  MaxL=1.
 Leave Link  303 at Sat Aug 14 07:22:41 2021, MaxMem=  1073741824 cpu:               0.2 elap:               0.0
 (Enter /home/prakriti/g16/l308.exe)
 Leave Link  308 at Sat Aug 14 07:22:41 2021, MaxMem=  1073741824 cpu:               0.2 elap:               0.0
 (Enter /home/prakriti/g16/l401.exe)
 ExpMin= 1.22D-01 ExpMax= 2.89D+03 ExpMxC= 4.35D+02 IAcc=3 IRadAn=         5 AccDes= 0.00D+00
 Harris functional with IExCor= 4639 and IRadAn=       5 diagonalized for initial guess.
 HarFok:  IExCor= 4639 AccDes= 0.00D+00 IRadAn=         5 IDoV= 1 UseB2=F ITyADJ=14
 ICtDFT=  3500011 ScaDFX=  1.000000  1.000000  1.000000  1.000000
 FoFCou: FMM=F IPFlag=           0 FMFlag=      100000 FMFlg1=           0
         NFxFlg=           0 DoJE=T BraDBF=F KetDBF=T FulRan=T
         wScrn=  0.000000 ICntrl=       500 IOpCl=  0 I1Cent=   200000004 NGrid=           0
         NMat0=    1 NMatS0=      1 NMatT0=    0 NMatD0=    1 NMtDS0=    0 NMtDT0=    0
 Petite list used in FoFCou.
 Harris En= -134.488497335419    
 JPrj=0 DoOrth=F DoCkMO=F.
 Leave Link  401 at Sat Aug 14 07:22:41 2021, MaxMem=  1073741824 cpu:               1.6 elap:               0.2
 (Enter /home/prakriti/g16/l502.exe)
 Keep R1 ints in memory in canonical form, NReq=7887248.
 FoFCou: FMM=F IPFlag=           0 FMFlag=           0 FMFlg1=           0
         NFxFlg=           0 DoJE=F BraDBF=F KetDBF=F FulRan=T
         wScrn=  0.000000 ICntrl=       600 IOpCl=  0 I1Cent=           0 NGrid=           0
         NMat0=    1 NMatS0=    946 NMatT0=    0 NMatD0=    1 NMtDS0=    0 NMtDT0=    0
 Symmetry not used in FoFCou.
 Two-electron integral symmetry not used.
 Closed shell SCF:
 Using DIIS extrapolation, IDIIS=  1040.
 NGot=  1073741824 LenX=  1072840782 LenY=  1072838316
 Requested convergence on RMS density matrix=1.00D-08 within 100 cycles.
 Requested convergence on MAX density matrix=1.00D-06.
 Requested convergence on             energy=1.00D-06.
 No special actions if energy rises.
 Integral accuracy reduced to 1.0D-05 until final iterations.

 Cycle   1  Pass 0  IDiag  1:
 E= -139.530696547214    
 DIIS: error= 4.93D-02 at cycle   1 NSaved=   1.
 NSaved= 1 IEnMin= 1 EnMin= -139.530696547214     IErMin= 1 ErrMin= 4.93D-02
 ErrMax= 4.93D-02  0.00D+00 EMaxC= 1.00D-01 BMatC= 1.27D-01 BMatP= 1.27D-01
 IDIUse=3 WtCom= 5.07D-01 WtEn= 4.93D-01
 Coeff-Com:  0.100D+01
 Coeff-En:   0.100D+01
 Coeff:      0.100D+01
 Gap=     0.713 Goal=   None    Shift=    0.000
 GapD=    0.713 DampG=2.000 DampE=0.500 DampFc=1.0000 IDamp=-1.
 RMSDP=8.36D-03 MaxDP=1.13D-01              OVMax= 1.07D-01

 Cycle   2  Pass 0  IDiag  1:
 E= -139.534199748312     Delta-E=       -0.003503201098 Rises=F Damp=F
 DIIS: error= 3.94D-02 at cycle   2 NSaved=   2.
 NSaved= 2 IEnMin= 2 EnMin= -139.534199748312     IErMin= 2 ErrMin= 3.94D-02
 ErrMax= 3.94D-02  0.00D+00 EMaxC= 1.00D-01 BMatC= 9.34D-02 BMatP= 1.27D-01
 IDIUse=3 WtCom= 6.06D-01 WtEn= 3.94D-01
 Coeff-Com:  0.458D+00 0.542D+00
 Coeff-En:   0.484D+00 0.516D+00
 Coeff:      0.469D+00 0.531D+00
 Gap=     0.614 Goal=   None    Shift=    0.000
 RMSDP=4.12D-03 MaxDP=6.73D-02 DE=-3.50D-03 OVMax= 6.83D-02

 Cycle   3  Pass 0  IDiag  1:
 E= -139.590393006224     Delta-E=       -0.056193257912 Rises=F Damp=F
 DIIS: error= 3.80D-03 at cycle   3 NSaved=   3.
 NSaved= 3 IEnMin= 3 EnMin= -139.590393006224     IErMin= 3 ErrMin= 3.80D-03
 ErrMax= 3.80D-03  0.00D+00 EMaxC= 1.00D-01 BMatC= 7.90D-04 BMatP= 9.34D-02
 IDIUse=3 WtCom= 9.62D-01 WtEn= 3.80D-02
 Coeff-Com:  0.133D-01 0.882D-01 0.898D+00
 Coeff-En:   0.000D+00 0.000D+00 0.100D+01
 Coeff:      0.128D-01 0.848D-01 0.902D+00
 Gap=     0.577 Goal=   None    Shift=    0.000
 RMSDP=5.30D-04 MaxDP=5.77D-03 DE=-5.62D-02 OVMax= 7.79D-03

 Cycle   4  Pass 0  IDiag  1:
 E= -139.590897049499     Delta-E=       -0.000504043275 Rises=F Damp=F
 DIIS: error= 9.36D-04 at cycle   4 NSaved=   4.
 NSaved= 4 IEnMin= 4 EnMin= -139.590897049499     IErMin= 4 ErrMin= 9.36D-04
 ErrMax= 9.36D-04  0.00D+00 EMaxC= 1.00D-01 BMatC= 4.99D-05 BMatP= 7.90D-04
 IDIUse=3 WtCom= 9.91D-01 WtEn= 9.36D-03
 Coeff-Com: -0.533D-02 0.151D-01 0.316D+00 0.674D+00
 Coeff-En:   0.000D+00 0.000D+00 0.000D+00 0.100D+01
 Coeff:     -0.528D-02 0.150D-01 0.313D+00 0.677D+00
 Gap=     0.578 Goal=   None    Shift=    0.000
 RMSDP=1.37D-04 MaxDP=2.75D-03 DE=-5.04D-04 OVMax= 1.59D-03

 Cycle   5  Pass 0  IDiag  1:
 E= -139.590939139926     Delta-E=       -0.000042090427 Rises=F Damp=F
 DIIS: error= 1.09D-04 at cycle   5 NSaved=   5.
 NSaved= 5 IEnMin= 5 EnMin= -139.590939139926     IErMin= 5 ErrMin= 1.09D-04
 ErrMax= 1.09D-04  0.00D+00 EMaxC= 1.00D-01 BMatC= 5.92D-07 BMatP= 4.99D-05
 IDIUse=3 WtCom= 9.99D-01 WtEn= 1.09D-03
 Coeff-Com: -0.477D-03-0.325D-02-0.162D-01 0.505D-01 0.969D+00
 Coeff-En:   0.000D+00 0.000D+00 0.000D+00 0.000D+00 0.100D+01
 Coeff:     -0.477D-03-0.324D-02-0.162D-01 0.504D-01 0.969D+00
 Gap=     0.577 Goal=   None    Shift=    0.000
 RMSDP=2.62D-05 MaxDP=2.40D-04 DE=-4.21D-05 OVMax= 3.07D-04

 Cycle   6  Pass 0  IDiag  1:
 E= -139.590939864503     Delta-E=       -0.000000724578 Rises=F Damp=F
 DIIS: error= 2.29D-05 at cycle   6 NSaved=   6.
 NSaved= 6 IEnMin= 6 EnMin= -139.590939864503     IErMin= 6 ErrMin= 2.29D-05
 ErrMax= 2.29D-05  0.00D+00 EMaxC= 1.00D-01 BMatC= 2.46D-08 BMatP= 5.92D-07
 IDIUse=1 WtCom= 1.00D+00 WtEn= 0.00D+00
 Coeff-Com:  0.106D-03-0.131D-02-0.150D-01-0.256D-01 0.112D+00 0.929D+00
 Coeff:      0.106D-03-0.131D-02-0.150D-01-0.256D-01 0.112D+00 0.929D+00
 Gap=     0.577 Goal=   None    Shift=    0.000
 RMSDP=6.06D-06 MaxDP=6.66D-05 DE=-7.25D-07 OVMax= 5.34D-05

 Initial convergence to 1.0D-05 achieved.  Increase integral accuracy.
 Cycle   7  Pass 1  IDiag  1:
 E= -139.590950237409     Delta-E=       -0.000010372905 Rises=F Damp=F
 DIIS: error= 2.28D-05 at cycle   1 NSaved=   1.
 NSaved= 1 IEnMin= 1 EnMin= -139.590950237409     IErMin= 1 ErrMin= 2.28D-05
 ErrMax= 2.28D-05  0.00D+00 EMaxC= 1.00D-01 BMatC= 2.16D-08 BMatP= 2.16D-08
 IDIUse=1 WtCom= 1.00D+00 WtEn= 0.00D+00
 Coeff-Com:  0.100D+01
 Coeff:      0.100D+01
 Gap=     0.577 Goal=   None    Shift=    0.000
 RMSDP=6.06D-06 MaxDP=6.66D-05 DE=-1.04D-05 OVMax= 3.80D-05

 Cycle   8  Pass 1  IDiag  1:
 E= -139.590950254103     Delta-E=       -0.000000016694 Rises=F Damp=F
 DIIS: error= 3.05D-06 at cycle   2 NSaved=   2.
 NSaved= 2 IEnMin= 2 EnMin= -139.590950254103     IErMin= 2 ErrMin= 3.05D-06
 ErrMax= 3.05D-06  0.00D+00 EMaxC= 1.00D-01 BMatC= 3.93D-10 BMatP= 2.16D-08
 IDIUse=1 WtCom= 1.00D+00 WtEn= 0.00D+00
 Coeff-Com: -0.609D-01 0.106D+01
 Coeff:     -0.609D-01 0.106D+01
 Gap=     0.577 Goal=   None    Shift=    0.000
 RMSDP=6.79D-07 MaxDP=4.29D-06 DE=-1.67D-08 OVMax= 8.14D-06

 Cycle   9  Pass 1  IDiag  1:
 E= -139.590950254531     Delta-E=       -0.000000000429 Rises=F Damp=F
 DIIS: error= 1.10D-06 at cycle   3 NSaved=   3.
 NSaved= 3 IEnMin= 3 EnMin= -139.590950254531     IErMin= 3 ErrMin= 1.10D-06
 ErrMax= 1.10D-06  0.00D+00 EMaxC= 1.00D-01 BMatC= 1.22D-10 BMatP= 3.93D-10
 IDIUse=1 WtCom= 1.00D+00 WtEn= 0.00D+00
 Coeff-Com: -0.336D-01 0.376D+00 0.658D+00
 Coeff:     -0.336D-01 0.376D+00 0.658D+00
 Gap=     0.577 Goal=   None    Shift=    0.000
 RMSDP=1.81D-07 MaxDP=2.39D-06 DE=-4.29D-10 OVMax= 2.52D-06

 Cycle  10  Pass 1  IDiag  1:
 E= -139.590950254611     Delta-E=       -0.000000000080 Rises=F Damp=F
 DIIS: error= 3.57D-07 at cycle   4 NSaved=   4.
 NSaved= 4 IEnMin= 4 EnMin= -139.590950254611     IErMin= 4 ErrMin= 3.57D-07
 ErrMax= 3.57D-07  0.00D+00 EMaxC= 1.00D-01 BMatC= 1.02D-11 BMatP= 1.22D-10
 IDIUse=1 WtCom= 1.00D+00 WtEn= 0.00D+00
 Coeff-Com: -0.593D-02 0.220D-01 0.209D+00 0.775D+00
 Coeff:     -0.593D-02 0.220D-01 0.209D+00 0.775D+00
 Gap=     0.577 Goal=   None    Shift=    0.000
 RMSDP=7.10D-08 MaxDP=6.92D-07 DE=-8.02D-11 OVMax= 8.06D-07

 Cycle  11  Pass 1  IDiag  1:
 E= -139.590950254619     Delta-E=       -0.000000000007 Rises=F Damp=F
 DIIS: error= 1.42D-07 at cycle   5 NSaved=   5.
 NSaved= 5 IEnMin= 5 EnMin= -139.590950254619     IErMin= 5 ErrMin= 1.42D-07
 ErrMax= 1.42D-07  0.00D+00 EMaxC= 1.00D-01 BMatC= 8.96D-13 BMatP= 1.02D-11
 IDIUse=1 WtCom= 1.00D+00 WtEn= 0.00D+00
 Coeff-Com:  0.125D-02-0.282D-01-0.462D-02 0.223D+00 0.809D+00
 Coeff:      0.125D-02-0.282D-01-0.462D-02 0.223D+00 0.809D+00
 Gap=     0.577 Goal=   None    Shift=    0.000
 RMSDP=2.49D-08 MaxDP=3.17D-07 DE=-7.47D-12 OVMax= 3.37D-07

 Cycle  12  Pass 1  IDiag  1:
 E= -139.590950254620     Delta-E=       -0.000000000001 Rises=F Damp=F
 DIIS: error= 3.60D-08 at cycle   6 NSaved=   6.
 NSaved= 6 IEnMin= 6 EnMin= -139.590950254620     IErMin= 6 ErrMin= 3.60D-08
 ErrMax= 3.60D-08  0.00D+00 EMaxC= 1.00D-01 BMatC= 5.86D-14 BMatP= 8.96D-13
 IDIUse=1 WtCom= 1.00D+00 WtEn= 0.00D+00
 Coeff-Com:  0.613D-03-0.769D-02-0.143D-01-0.334D-02 0.230D+00 0.795D+00
 Coeff:      0.613D-03-0.769D-02-0.143D-01-0.334D-02 0.230D+00 0.795D+00
 Gap=     0.577 Goal=   None    Shift=    0.000
 RMSDP=6.77D-09 MaxDP=6.97D-08 DE=-8.81D-13 OVMax= 8.74D-08

 SCF Done:  E(RwB97XD) =  -139.590950255     A.U. after   12 cycles
            NFock= 12  Conv=0.68D-08     -V/T= 2.0073
 KE= 1.385786267005D+02 PE=-4.052156381330D+02 EE= 8.954224946441D+01
 Leave Link  502 at Sat Aug 14 07:22:42 2021, MaxMem=  1073741824 cpu:               6.9 elap:               0.9
 (Enter /home/prakriti/g16/l801.exe)
 DoSCS=F DFT=T ScalE2(SS,OS)=  1.000000  1.000000
 ExpMin= 1.22D-01 ExpMax= 2.89D+03 ExpMxC= 4.35D+02 IAcc=3 IRadAn=         5 AccDes= 0.00D+00
 HarFok:  IExCor=  205 AccDes= 0.00D+00 IRadAn=         5 IDoV=-2 UseB2=F ITyADJ=14
 ICtDFT= 12500011 ScaDFX=  1.000000  1.000000  1.000000  1.000000
 Largest valence mixing into a core orbital is  7.45D-05
 Largest core mixing into a valence orbital is  2.74D-05
 Range of M.O.s used for correlation:     3    43
 NBasis=    43 NAE=     9 NBE=     9 NFC=     2 NFV=     0
 NROrb=     41 NOA=     7 NOB=     7 NVA=    34 NVB=    34
 Leave Link  801 at Sat Aug 14 07:22:42 2021, MaxMem=  1073741824 cpu:               0.4 elap:               0.1
 (Enter /home/prakriti/g16/l914.exe)
 RHF ground state
 Keep R1, R2, and R3 ints in memory in canonical form, NReq=65302280.
 FoFCou: FMM=F IPFlag=           0 FMFlag=           0 FMFlg1=           0
         NFxFlg=           0 DoJE=F BraDBF=F KetDBF=F FulRan=T
         wScrn=  0.000000 ICntrl=       600 IOpCl=  0 I1Cent=           0 NGrid=           0
         NMat0=    1 NMatS0=    946 NMatT0=    0 NMatD0=    1 NMtDS0=    0 NMtDT0=    0
 Symmetry not used in FoFCou.
 Two-electron integral symmetry not used.
 MDV=  1073741824 DFT=T DoStab=F Mixed=T DoRPA=T DoScal=F NonHer=T
 Making orbital integer symmetry assigments:
 Orbital symmetries:
       Occupied  (A) (A) (A) (A) (A) (A) (A) (A) (A)
       Virtual   (A) (A) (A) (A) (A) (A) (A) (A) (A) (A) (A) (A)
                 (A) (A) (A) (A) (A) (A) (A) (A) (A) (A) (A) (A)
                 (A) (A) (A) (A) (A) (A) (A) (A) (A) (A)
   238 initial guesses have been made.
 Convergence on wavefunction:    0.001000000000000
 Davidson Disk Diagonalization:  ConvIn= 1.00D-03 SkipCon=T Conv= 1.00D-03.
 Max sub-space:  1428 roots to seek:   476 dimension of matrix:          476
 *** WARNING: Number of orthogonal guesses is          238
 Iteration     1 Dimension   238 NMult     0 NNew    238
 CISAX will form   238 AO SS matrices at one time.
 NMat=   238 NSing=   238 JSym2X= 0.
 New state      1 was old state      2
 New state      2 was old state      1
 New state      3 was old state      4
 New state      4 was old state      3
 New state      6 was old state      8
 New state      7 was old state      6
 New state      8 was old state      7
 New state      9 was old state     10
 New state     10 was old state      9
 New state     12 was old state     13
 New state     13 was old state     12
 New state     15 was old state     17
 New state     17 was old state     18
 New state     18 was old state     19
 New state     19 was old state     20
 New state     20 was old state     15
 New state     21 was old state     23
 New state     22 was old state     27
 New state     23 was old state     26
 New state     24 was old state     21
 New state     26 was old state     24
 New state     27 was old state     22
 New state     31 was old state     32
 New state     32 was old state     38
 New state     33 was old state     37
 New state     34 was old state     35
 New state     35 was old state     36
 New state     36 was old state     31
 New state     37 was old state     34
 New state     38 was old state     33
 New state     39 was old state     42
 New state     40 was old state     39
 New state     41 was old state     40
 New state     42 was old state     47
 New state     43 was old state     46
 New state     44 was old state     41
 New state     45 was old state     43
 New state     46 was old state     44
 New state     47 was old state     45
 New state     48 was old state     51
 New state     49 was old state     48
 New state     50 was old state     49
 New state     51 was old state     55
 New state     52 was old state     56
 New state     53 was old state     50
 New state     54 was old state     58
 New state     55 was old state     57
 New state     56 was old state     61
 New state     57 was old state     59
 New state     58 was old state     60
 New state     59 was old state     52
 New state     60 was old state     54
 New state     61 was old state     62
 New state     62 was old state     67
 New state     67 was old state     68
 New state     68 was old state     69
 New state     69 was old state     70
 New state     70 was old state     71
 New state     71 was old state     74
 New state     72 was old state     73
 New state     73 was old state     72
 New state     74 was old state     75
 New state     75 was old state     76
 New state     76 was old state     87
 New state     78 was old state     81
 New state     79 was old state     82
 New state     80 was old state     79
 New state     81 was old state     80
 New state     82 was old state     78
 New state     87 was old state     90
 New state     90 was old state     92
 New state     92 was old state     93
 New state     93 was old state     94
 New state     94 was old state    102
 New state     95 was old state    105
 New state     96 was old state    106
 New state     97 was old state     96
 New state     98 was old state     97
 New state     99 was old state    101
 New state    100 was old state     95
 New state    101 was old state    103
 New state    102 was old state    104
 New state    103 was old state     99
 New state    104 was old state     98
 New state    105 was old state    100
 New state    106 was old state    107
 New state    107 was old state    108
 New state    108 was old state    109
 New state    109 was old state    110
 New state    110 was old state    112
 New state    111 was old state    116
 New state    112 was old state    115
 New state    113 was old state    111
 New state    114 was old state    113
 New state    115 was old state    114
 New state    116 was old state    117
 New state    117 was old state    118
 New state    118 was old state    134
 New state    119 was old state    120
 New state    120 was old state    119
 New state    121 was old state    126
 New state    122 was old state    127
 New state    123 was old state    122
 New state    124 was old state    125
 New state    125 was old state    132
 New state    126 was old state    130
 New state    127 was old state    131
 New state    128 was old state    124
 New state    129 was old state    123
 New state    130 was old state    121
 New state    131 was old state    128
 New state    132 was old state    129
 New state    134 was old state    135
 New state    135 was old state    136
 New state    136 was old state    140
 New state    137 was old state    138
 New state    138 was old state    137
 New state    140 was old state    143
 New state    143 was old state    144
 New state    144 was old state    146
 No map to state    146
 New state    147 was old state    149
 New state    148 was old state    147
 New state    149 was old state    148
 New state    150 was old state    151
 New state    151 was old state    150
 New state    152 was old state    153
 New state    153 was old state    154
 New state    154 was old state    152
 New state    155 was old state    156
 New state    156 was old state    155
 New state    157 was old state    158
 New state    158 was old state    161
 New state    159 was old state    162
 New state    160 was old state    159
 New state    161 was old state    160
 New state    162 was old state    157
 New state    165 was old state    166
 New state    166 was old state    167
 New state    167 was old state    168
 New state    168 was old state    165
 New state    175 was old state    176
 New state    176 was old state    175
 New state    177 was old state    178
 New state    178 was old state    179
 New state    179 was old state    177
 New state    182 was old state    183
 New state    183 was old state    182
 New state    184 was old state    185
 New state    185 was old state    188
 New state    187 was old state    184
 New state    188 was old state    187
 New state    191 was old state    193
 New state    192 was old state    194
 New state    193 was old state    192
 New state    194 was old state    191
 New state    199 was old state    203
 New state    200 was old state    204
 New state    203 was old state    200
 New state    204 was old state    199
 New state    205 was old state    209
 New state    206 was old state    210
 New state    207 was old state    208
 New state    208 was old state    206
 New state    209 was old state    207
 New state    210 was old state    205
 New state    211 was old state    212
 New state    212 was old state    213
 New state    213 was old state    214
 New state    214 was old state    211
 New state    217 was old state    218
 New state    218 was old state    220
 New state    220 was old state    217
 New state    230 was old state    231
 New state    231 was old state    230
 New state    232 was old state    233
 New state    233 was old state    234
 New state    234 was old state    232
 Excitation Energies [eV] at current iteration:
 Root      1 :    10.524911054623820
 Root      2 :    10.524927846661040
 Root      3 :    11.186402551183500
 Root      4 :    11.186407312720880
 Root      5 :    12.003292485668420
 Root      6 :    12.149889819954830
 Root      7 :    12.149904822252910
 Root      8 :    12.785462826383520
 Root      9 :    14.418945175412350
 Root     10 :    14.418961071385800
 Root     11 :    14.987266407513650
 Root     12 :    15.149137122722600
 Root     13 :    15.149151912471100
 Root     14 :    15.806157873692750
 Root     15 :    15.999985842733430
 Root     16 :    15.999996657620260
 Root     17 :    16.039673145686830
 Root     18 :    16.135917606008790
 Root     19 :    16.135940528948680
 Root     20 :    17.017065258214010
 Root     21 :    20.257494934690150
 Root     22 :    20.481051289929520
 Root     23 :    20.481091466041210
 Root     24 :    20.678242906761170
 Root     25 :    20.765467019604290
 Root     26 :    20.765487259992000
 Root     27 :    21.228943181462930
 Root     28 :    21.627686348916310
 Root     29 :    21.915099632714020
 Root     30 :    21.915118461261940
 Root     31 :    24.102694267804690
 Root     32 :    24.227349352831160
 Root     33 :    24.227440022551510
 Root     34 :    24.344353124221890
 Root     35 :    24.344436651803080
 Root     36 :    24.574039621019220
 Root     37 :    24.670246013894560
 Root     38 :    24.670280298775280
 Root     39 :    25.541907644776850
 Root     40 :    25.599650772410470
 Root     41 :    25.599694714224110
 Root     42 :    25.721230668987340
 Root     43 :    25.721281255030640
 Root     44 :    25.891130893607910
 Root     45 :    26.717905683030020
 Root     46 :    26.814839061929090
 Root     47 :    26.814852605573920
 Root     48 :    29.338772119745050
 Root     49 :    29.355595213859190
 Root     50 :    29.355640605919440
 Root     51 :    29.471032267853590
 Root     52 :    29.471084743023960
 Root     53 :    29.681631631797110
 Root     54 :    29.723758621810840
 Root     55 :    29.723818070935080
 Root     56 :    30.179500981148970
 Root     57 :    30.191162775220430
 Root     58 :    30.191217957702510
 Root     59 :    30.559322952733310
 Root     60 :    30.559352489475780
 Root     61 :    30.710513192060570
 Root     62 :    32.267953546207400
 Root     63 :    33.743057032519520
 Root     64 :    34.895176047875740
 Root     65 :    35.194052026721150
 Root     66 :    35.194090037077850
 Root     67 :    35.375550437981080
 Root     68 :    35.375568922993260
 Root     69 :    35.815476861580320
 Root     70 :    36.156536002782400
 Root     71 :    36.432644835006630
 Root     72 :    36.432725820064330
 Root     73 :    36.881309144197430
 Root     74 :    38.626404440434400
 Root     75 :    38.626407481870000
 Root     76 :    39.037910447365460
 Root     77 :    40.051698929473420
 Root     78 :    40.185455487668800
 Root     79 :    40.185647372881150
 Root     80 :    40.972203556546430
 Root     81 :    40.972301446030190
 Root     82 :    41.680728546485890
 Root     83 :    43.349866210562600
 Root     84 :    43.349933683491490
 Root     85 :    43.517179409825290
 Root     86 :    43.517216597566960
 Root     87 :    43.601146111828260
 Root     88 :    44.275629906007520
 Root     89 :    44.567806109808750
 Root     90 :    44.578502868249390
 Root     91 :    44.578553197701450
 Root     92 :    46.607996902748950
 Root     93 :    46.608290395175350
 Root     94 :    47.686744166252350
 Root     95 :    48.630084667610160
 Root     96 :    48.630247201961410
 Root     97 :    48.691841227411040
 Root     98 :    48.691866864023060
 Root     99 :    48.692948612839440
 Root    100 :    48.710616374842190
 Root    101 :    48.797479594030830
 Root    102 :    48.797503543943520
 Root    103 :    49.150764057392200
 Root    104 :    49.150782269703160
 Root    105 :    49.398578150332260
 Root    106 :    49.693859204356580
 Root    107 :    52.928558826660970
 Root    108 :    52.928593102133330
 Root    109 :    53.088455937073520
 Root    110 :    53.926308115292690
 Root    111 :    54.127934956397840
 Root    112 :    54.127945174280070
 Root    113 :    54.764262963446130
 Root    114 :    54.873155441214990
 Root    115 :    54.873168687782170
 Root    116 :    54.961288525306000
 Root    117 :    54.961526910713240
 Root    118 :    55.540643051457980
 Root    119 :    57.218560979920270
 Root    120 :    57.218696168468890
 Root    121 :    58.200115623440770
 Root    122 :    58.200137609156690
 Root    123 :    58.203029669699450
 Root    124 :    58.286920543630190
 Root    125 :    58.473152303705720
 Root    126 :    58.540311047108400
 Root    127 :    58.540405614523690
 Root    128 :    58.656043713330960
 Root    129 :    58.656080663203130
 Root    130 :    58.720653995118760
 Root    131 :    58.866068474335870
 Root    132 :    58.866124706691230
 Root    133 :    59.054568503822030
 Root    134 :    59.433220253437030
 Root    135 :    59.433310602539220
 Root    136 :    59.820844401577490
 Root    137 :    61.189602441579450
 Root    138 :    61.189813717303100
 Root    139 :    61.343602502259720
 Root    140 :    62.239155034896460
 Root    141 :    62.382472305211780
 Root    142 :    62.382480947103950
 Root    143 :    62.625485620348780
 Root    144 :    63.177320400673390
 Root    145 :    63.177396234324920
 Root    146 :    63.771367508509590
 Root    147 :    64.216901097110110
 Root    148 :    64.254517842586540
 Root    149 :    64.254572777093540
 Root    150 :    66.978376116964530
 Root    151 :    66.978501704800110
 Root    152 :    67.445907116874280
 Root    153 :    67.445949917453400
 Root    154 :    67.495616474609880
 Root    155 :    68.243225132610050
 Root    156 :    68.243275668491050
 Root    157 :    70.468273476743110
 Root    158 :    70.815784849767130
 Root    159 :    70.815834535023240
 Root    160 :    70.888366804019260
 Root    161 :    70.888627324866430
 Root    162 :    71.163974686882810
 Root    163 :    71.513632755346980
 Root    164 :    72.229351754952760
 Root    165 :    74.361043272806130
 Root    166 :    74.693239548914190
 Root    167 :    74.693385130659660
 Root    168 :    75.142812560347640
 Root    169 :    75.202111683314270
 Root    170 :    75.202253841790150
 Root    171 :    76.539368674627540
 Root    172 :    77.918303768916270
 Root    173 :    77.918413643575720
 Root    174 :    78.794893180643020
 Root    175 :    79.946369820140800
 Root    176 :    79.946399600892520
 Root    177 :    80.314488691289060
 Root    178 :    80.314522856891330
 Root    179 :    81.265909231331390
 Root    180 :    81.800526490023840
 Root    181 :    81.800553246641970
 Root    182 :    83.751837470335810
 Root    183 :    83.751882023209180
 Root    184 :    84.096073240413890
 Root    185 :    84.187643033585030
 Root    186 :    84.187830881836990
 Root    187 :    84.240152826171420
 Root    188 :    84.486761684004180
 Root    189 :    87.775911581083450
 Root    190 :    88.022388937732660
 Root    191 :    88.064782733784380
 Root    192 :    88.064959755442060
 Root    193 :    88.198425447609740
 Root    194 :    88.198674827547960
 Root    195 :    89.635176582452020
 Root    196 :    90.600447382343390
 Root    197 :    91.091743535369080
 Root    198 :    91.143963960753280
 Root    199 :    93.336939880410110
 Root    200 :    93.337298375221760
 Root    201 :    94.040157577791280
 Root    202 :    94.040232103855770
 Root    203 :    94.446490725685420
 Root    204 :    94.446497851546870
 Root    205 :    95.126083067533100
 Root    206 :    95.126148668767090
 Root    207 :    96.067954213930070
 Root    208 :    96.093677548774830
 Root    209 :    97.765815382356220
 Root    210 :    97.765822282096710
 Root    211 :    98.165345670400110
 Root    212 :    98.226508101674430
 Root    213 :    98.226539315777200
 Root    214 :   101.412059802083800
 Root    215 :   102.517786048007700
 Root    216 :   102.517813340182900
 Root    217 :   102.934461313232600
 Root    218 :   102.934519108017600
 Root    219 :   103.003891681875800
 Root    220 :   103.396133609415700
 Root    221 :   104.705064766937000
 Root    222 :   105.045137549489300
 Root    223 :   105.045163223162600
 Root    224 :   107.370706453173200
 Root    225 :   107.370929172180700
 Root    226 :   109.304991006251700
 Root    227 :   109.305049660784500
 Root    228 :   111.180871385212700
 Root    229 :   111.180882775637000
 Root    230 :   114.220478371300200
 Root    231 :   114.220492770902500
 Root    232 :   114.853530465668700
 Root    233 :   114.853562231699200
 Root    234 :   116.340801625004800
 Root    235 :   120.594246197610600
 Root    236 :   121.866714225144900
 Root    237 :   121.866726802342900
 Root    238 :   132.635201428422300
 Convergence achieved for final wavefunctions.
 ***********************************************************************
 Excited states from <AA,BB:AA,BB> singles matrix:
 ***********************************************************************
 
 1PDM for each excited state written to RWF  633
 Ground to excited state transition densities written to RWF  633
 Ground to excited state transition electric dipole moments (Au):
       state          X           Y           Z        Dip. S.      Osc.
         1        -0.0000      0.5584      0.1309      0.3290      0.0848
         2        -0.0000     -0.1309      0.5584      0.3290      0.0848
         3        -0.0000      0.4091     -0.0872      0.1750      0.0480
         4         0.0000      0.0872      0.4091      0.1749      0.0479
         5         0.0000     -0.0001      0.0000      0.0000      0.0000
         6         0.0000      0.5354     -0.3711      0.4243      0.1263
         7        -0.0000     -0.3711     -0.5354      0.4243      0.1263
         8         0.6731     -0.0000     -0.0000      0.4530      0.1419
         9         0.0000     -0.6443     -0.2206      0.4638      0.1638
        10         0.0000      0.2206     -0.6443      0.4638      0.1638
        11         0.0212      0.0000     -0.0000      0.0005      0.0002
        12         0.0000     -0.0838      0.0243      0.0076      0.0028
        13        -0.0000     -0.0243     -0.0838      0.0076      0.0028
        14        -0.0000      0.0001     -0.0000      0.0000      0.0000
        15        -0.0002     -0.6621     -0.0908      0.4466      0.1751
        16        -0.0000     -0.0908      0.6621      0.4466      0.1751
        17         1.1737     -0.0001      0.0000      1.3776      0.5413
        18         0.0001     -0.1759     -0.1724      0.0607      0.0240
        19        -0.0001     -0.1725      0.1760      0.0607      0.0240
        20        -0.3967      0.0000     -0.0000      0.1574      0.0656
        21        -0.0000     -0.0000     -0.0000      0.0000      0.0000
        22        -0.0000      0.2021     -0.0065      0.0409      0.0205
        23         0.0001      0.0066      0.2021      0.0409      0.0205
        24        -0.1574     -0.0001      0.0002      0.0248      0.0125
        25         0.0000      0.2403     -0.3794      0.2016      0.1026
        26         0.0000     -0.3793     -0.2402      0.2016      0.1026
        27        -0.6283      0.0000     -0.0000      0.3948      0.2053
        28        -0.1028     -0.0000     -0.0000      0.0106      0.0056
        29        -0.0000      0.0436      0.0586      0.0053      0.0029
        30         0.0000      0.0586     -0.0436      0.0053      0.0029
        31         0.0000      0.0000      0.0000      0.0000      0.0000
        32        -0.0000      0.1680      0.0298      0.0291      0.0173
        33        -0.0000     -0.0300      0.1680      0.0291      0.0173
        34        -0.0000     -0.1486      0.4207      0.1991      0.1188
        35         0.0000      0.4208      0.1487      0.1991      0.1188
        36         0.0520      0.0000      0.0000      0.0027      0.0016
        37         0.0000     -0.0530     -0.3174      0.1035      0.0626
        38         0.0000     -0.3173      0.0531      0.1035      0.0626
        39        -0.0000     -0.0001      0.0000      0.0000      0.0000
        40         0.0000      0.0971     -0.1070      0.0209      0.0131
        41         0.0000     -0.1071     -0.0971      0.0209      0.0131
        42         0.0000     -0.1689     -0.1652      0.0558      0.0352
        43        -0.0000      0.1652     -0.1688      0.0558      0.0352
        44        -0.6369      0.0000      0.0000      0.4057      0.2573
        45        -0.0225     -0.0000     -0.0000      0.0005      0.0003
        46        -0.0000     -0.2706      0.5597      0.3865      0.2539
        47         0.0000      0.5597      0.2706      0.3865      0.2539
        48        -0.0000      0.0002     -0.0001      0.0000      0.0000
        49         0.0000     -0.0829      0.1040      0.0177      0.0127
        50         0.0000      0.1040      0.0829      0.0177      0.0127
        51         0.0000      0.1352      0.1568      0.0429      0.0309
        52         0.0000     -0.1568      0.1351      0.0428      0.0309
        53        -0.1093     -0.0001     -0.0003      0.0120      0.0087
        54        -0.0000      0.3243      0.2406      0.1631      0.1187
        55         0.0000      0.2406     -0.3243      0.1630      0.1187
        56        -0.2577     -0.0001     -0.0001      0.0664      0.0491
        57         0.0001      0.0408     -0.2459      0.0621      0.0459
        58         0.0001     -0.2459     -0.0407      0.0621      0.0460
        59         0.0001     -0.0090      0.1090      0.0120      0.0089
        60        -0.0000      0.1089      0.0089      0.0119      0.0089
        61        -0.3740     -0.0000      0.0000      0.1399      0.1053
        62         0.0687     -0.0000     -0.0000      0.0047      0.0037
        63        -0.0430     -0.0000     -0.0000      0.0018      0.0015
        64         0.1121     -0.0000      0.0000      0.0126      0.0108
        65         0.0000      0.0231      0.0251      0.0012      0.0010
        66         0.0000      0.0251     -0.0230      0.0012      0.0010
        67         0.0000     -0.2781     -0.1065      0.0887      0.0769
        68        -0.0000     -0.1064      0.2781      0.0887      0.0768
        69         0.1190     -0.0000     -0.0000      0.0142      0.0124
        70        -0.0000     -0.0000      0.0001      0.0000      0.0000
        71         0.0000      0.1581      0.2174      0.0723      0.0645
        72         0.0001      0.2174     -0.1581      0.0723      0.0645
        73         0.4526     -0.0000     -0.0000      0.2048      0.1851
        74        -0.0000     -0.0672      0.0890      0.0124      0.0118
        75        -0.0000      0.0890      0.0672      0.0124      0.0118
        76        -1.0843     -0.0000     -0.0000      1.1757      1.1244
        77        -0.0000      0.0000     -0.0001      0.0000      0.0000
        78        -0.0000      0.1054      0.0372      0.0125      0.0123
        79         0.0001     -0.0371      0.1054      0.0125      0.0123
        80         0.0000      0.1217     -0.5672      0.3366      0.3379
        81        -0.0000     -0.5672     -0.1217      0.3366      0.3378
        82         0.3250     -0.0001      0.0000      0.1056      0.1079
        83         0.0000      0.0446     -0.1324      0.0195      0.0207
        84        -0.0000     -0.1324     -0.0446      0.0195      0.0207
        85         0.0001     -0.0148      0.0555      0.0033      0.0035
        86        -0.0000      0.0555      0.0148      0.0033      0.0035
        87        -0.2528      0.0000     -0.0000      0.0639      0.0683
        88        -0.1852     -0.0000     -0.0000      0.0343      0.0372
        89         0.0000     -0.0000     -0.0000      0.0000      0.0000
        90        -0.0000     -0.0031     -0.0033      0.0000      0.0000
        91         0.0000     -0.0033      0.0031      0.0000      0.0000
        92        -0.0000      0.2724     -0.0111      0.0743      0.0848
        93         0.0000      0.0111      0.2723      0.0743      0.0848
        94         0.4145      0.0000     -0.0000      0.1718      0.2007
        95         0.0000      0.0763      0.0471      0.0080      0.0096
        96        -0.0000     -0.0472      0.0762      0.0080      0.0096
        97        -0.0000     -0.1548     -0.1660      0.0515      0.0614
        98         0.0000     -0.1659      0.1549      0.0515      0.0615
        99        -0.0000      0.0006      0.0003      0.0000      0.0000
       100         0.0291      0.0001     -0.0003      0.0008      0.0010
       101         0.0000      0.0620      0.1751      0.0345      0.0412
       102        -0.0000      0.1751     -0.0620      0.0345      0.0412
       103        -0.0000     -0.0048     -0.2615      0.0684      0.0823
       104         0.0000      0.2614     -0.0048      0.0684      0.0823
       105        -0.1878      0.0001      0.0000      0.0353      0.0427
       106         0.3304     -0.0000     -0.0000      0.1092      0.1329
       107         0.0000     -0.0864     -0.0950      0.0165      0.0214
       108         0.0000     -0.0950      0.0864      0.0165      0.0214
       109        -0.0000     -0.0000     -0.0000      0.0000      0.0000
       110         0.0933     -0.0000      0.0001      0.0087      0.0115
       111         0.0000     -0.2660     -0.0852      0.0780      0.1035
       112         0.0000      0.0852     -0.2660      0.0780      0.1035
       113         0.0000     -0.0000      0.0001      0.0000      0.0000
       114        -0.0000      0.2023      0.0117      0.0411      0.0552
       115        -0.0000     -0.0116      0.2023      0.0411      0.0552
       116         0.0000      0.1136      0.0186      0.0132      0.0178
       117         0.0000     -0.0188      0.1135      0.0132      0.0178
       118         0.0523     -0.0000      0.0000      0.0027      0.0037
       119        -0.0000      0.1584      0.0987      0.0348      0.0488
       120        -0.0000     -0.0987      0.1583      0.0348      0.0488
       121         0.0007      0.0271     -0.0514      0.0034      0.0048
       122         0.0001     -0.0514     -0.0271      0.0034      0.0048
       123        -0.0564      0.0003     -0.0006      0.0032      0.0045
       124         0.0000     -0.0000      0.0000      0.0000      0.0000
       125        -0.0000      0.0001      0.0000      0.0000      0.0000
       126         0.0000     -0.0909      0.1329      0.0259      0.0372
       127        -0.0000     -0.1328     -0.0909      0.0259      0.0372
       128         0.0000      0.0190      0.0061      0.0004      0.0006
       129         0.0000     -0.0062      0.0190      0.0004      0.0006
       130         0.0000      0.0000     -0.0000      0.0000      0.0000
       131        -0.0000     -0.1560      0.0211      0.0248      0.0357
       132        -0.0000     -0.0211     -0.1560      0.0248      0.0357
       133        -0.2266      0.0000      0.0000      0.0513      0.0743
       134         0.0000     -0.2340      0.0073      0.0548      0.0798
       135         0.0000     -0.0073     -0.2340      0.0548      0.0798
       136         0.2821      0.0000     -0.0000      0.0796      0.1167
       137        -0.0000      0.1263      0.0778      0.0220      0.0330
       138        -0.0000     -0.0778      0.1263      0.0220      0.0330
       139         0.0504     -0.0000      0.0001      0.0025      0.0038
       140        -0.0000     -0.0000      0.0000      0.0000      0.0000
       141         0.0000     -0.0042      0.0012      0.0000      0.0000
       142         0.0000     -0.0012     -0.0042      0.0000      0.0000
       143        -0.3695     -0.0000     -0.0000      0.1366      0.2095
       144        -0.0000     -0.2968      0.1751      0.1188      0.1838
       145        -0.0000      0.1751      0.2968      0.1188      0.1838
       146         0.0324     -0.0000      0.0000      0.0010      0.0016
       147        -0.0344     -0.0000     -0.0000      0.0012      0.0019
       148        -0.0000      0.0309     -0.0168      0.0012      0.0019
       149        -0.0000      0.0168      0.0308      0.0012      0.0019
       150        -0.0000      0.0037      0.0073      0.0001      0.0001
       151        -0.0000     -0.0073      0.0037      0.0001      0.0001
       152         0.0000     -0.1724     -0.0721      0.0349      0.0577
       153         0.0000      0.0721     -0.1724      0.0349      0.0577
       154        -0.1113      0.0000     -0.0001      0.0124      0.0205
       155         0.0000      0.0055     -0.0027      0.0000      0.0001
       156         0.0000     -0.0027     -0.0055      0.0000      0.0001
       157         0.0000     -0.0000      0.0000      0.0000      0.0000
       158         0.0000      0.0205     -0.0662      0.0048      0.0083
       159         0.0000     -0.0662     -0.0204      0.0048      0.0083
       160        -0.0000     -0.0488     -0.0505      0.0049      0.0086
       161        -0.0000      0.0504     -0.0488      0.0049      0.0086
       162        -0.1561      0.0000      0.0000      0.0244      0.0425
       163         0.0531      0.0000     -0.0000      0.0028      0.0049
       164         0.0000     -0.0000     -0.0000      0.0000      0.0000
       165         0.0000     -0.0000     -0.0000      0.0000      0.0000
       166        -0.0000     -0.0120     -0.0108      0.0003      0.0005
       167        -0.0000      0.0108     -0.0120      0.0003      0.0005
       168        -0.1047      0.0000      0.0001      0.0110      0.0202
       169        -0.0001      0.0630     -0.1469      0.0256      0.0471
       170        -0.0001     -0.1469     -0.0630      0.0256      0.0471
       171        -0.0247     -0.0000     -0.0000      0.0006      0.0011
       172        -0.0000      0.0640     -0.0136      0.0043      0.0082
       173         0.0000      0.0136      0.0640      0.0043      0.0082
       174        -0.1016      0.0000      0.0000      0.0103      0.0199
       175         0.0000     -0.0543      0.0174      0.0032      0.0064
       176        -0.0000     -0.0174     -0.0543      0.0032      0.0064
       177        -0.0000      0.0545     -0.0413      0.0047      0.0092
       178        -0.0000     -0.0413     -0.0545      0.0047      0.0092
       179        -0.0307      0.0000     -0.0000      0.0009      0.0019
       180        -0.0000     -0.0077      0.0500      0.0026      0.0051
       181        -0.0000     -0.0500     -0.0077      0.0026      0.0051
       182        -0.0000      0.0096      0.0030      0.0001      0.0002
       183         0.0000     -0.0030      0.0096      0.0001      0.0002
       184        -0.0000     -0.0001     -0.0000      0.0000      0.0000
       185        -0.0000     -0.0442     -0.0319      0.0030      0.0061
       186         0.0003      0.0319     -0.0442      0.0030      0.0061
       187         0.1433     -0.0001      0.0001      0.0205      0.0424
       188        -0.1069      0.0000     -0.0000      0.0114      0.0237
       189        -0.0000     -0.0001     -0.0000      0.0000      0.0000
       190         0.0066      0.0001     -0.0001      0.0000      0.0001
       191         0.0000     -0.0093     -0.0018      0.0001      0.0002
       192        -0.0000      0.0019     -0.0094      0.0001      0.0002
       193         0.0000     -0.1386     -0.0971      0.0287      0.0619
       194        -0.0000     -0.0971      0.1386      0.0286      0.0619
       195        -0.0470     -0.0000     -0.0000      0.0022      0.0049
       196         0.0205     -0.0000     -0.0000      0.0004      0.0009
       197         0.0000      0.0000      0.0000      0.0000      0.0000
       198         0.0716     -0.0000      0.0000      0.0051      0.0114
       199         0.0000     -0.0104     -0.0065      0.0002      0.0003
       200         0.0000      0.0065     -0.0104      0.0002      0.0003
       201        -0.0000     -0.0096      0.0826      0.0069      0.0159
       202         0.0000      0.0826      0.0096      0.0069      0.0159
       203         0.0000      0.0396      0.3546      0.1273      0.2946
       204         0.0000      0.3546     -0.0396      0.1273      0.2946
       205         0.0000      0.1253      0.0181      0.0160      0.0374
       206         0.0000     -0.0181      0.1253      0.0160      0.0374
       207        -0.0000      0.0000      0.0000      0.0000      0.0000
       208        -0.0207     -0.0000     -0.0000      0.0004      0.0010
       209        -0.0000     -0.3909      0.1104      0.1650      0.3951
       210        -0.0000      0.1104      0.3909      0.1650      0.3951
       211         0.0000      0.0000     -0.0000      0.0000      0.0000
       212         0.0000      0.1422      0.0995      0.0301      0.0725
       213         0.0000      0.0995     -0.1422      0.0301      0.0725
       214        -0.2712      0.0000     -0.0000      0.0735      0.1827
       215        -0.0000      0.0262      0.0076      0.0007      0.0019
       216        -0.0000     -0.0076      0.0262      0.0007      0.0019
       217        -0.0000      0.0164      0.0244      0.0009      0.0022
       218         0.0000     -0.0244      0.0164      0.0009      0.0022
       219         0.0000     -0.0000     -0.0000      0.0000      0.0000
       220        -0.0679     -0.0000     -0.0000      0.0046      0.0117
       221         0.3511      0.0000     -0.0000      0.1232      0.3161
       222        -0.0000      0.4357      0.0706      0.1948      0.5014
       223         0.0000     -0.0706      0.4357      0.1948      0.5014
       224        -0.0000      0.0749      0.0100      0.0057      0.0150
       225         0.0000     -0.0100      0.0749      0.0057      0.0150
       226        -0.0000     -0.0510     -0.0086      0.0027      0.0072
       227        -0.0000      0.0086     -0.0510      0.0027      0.0072
       228         0.0000     -0.0293     -0.4351      0.1902      0.5180
       229        -0.0000     -0.4351      0.0293      0.1902      0.5180
       230        -0.0000     -0.1228     -0.1788      0.0471      0.1317
       231        -0.0000      0.1788     -0.1228      0.0471      0.1317
       232         0.0000      0.0264     -0.0009      0.0007      0.0020
       233         0.0000      0.0009      0.0264      0.0007      0.0020
       234         0.4257     -0.0000     -0.0000      0.1812      0.5166
       235         0.0979      0.0000      0.0000      0.0096      0.0283
       236         0.0000      0.0721     -0.0328      0.0063      0.0187
       237        -0.0000      0.0328      0.0721      0.0063      0.0187
       238         0.0231      0.0000     -0.0000      0.0005      0.0017
 Ground to excited state transition velocity dipole moments (Au):
       state          X           Y           Z        Dip. S.      Osc.
         1        -0.0000     -0.1970     -0.0462      0.0409      0.0706
         2         0.0000      0.0462     -0.1970      0.0409      0.0706
         3         0.0000     -0.2236      0.0477      0.0523      0.0848
         4        -0.0000     -0.0477     -0.2236      0.0523      0.0848
         5        -0.0000      0.0000     -0.0000      0.0000      0.0000
         6        -0.0000     -0.2370      0.1643      0.0832      0.1242
         7         0.0000      0.1643      0.2370      0.0832      0.1242
         8        -0.3451      0.0000      0.0000      0.1191      0.1690
         9        -0.0000      0.3654      0.1251      0.1492      0.1877
        10        -0.0000     -0.1251      0.3654      0.1492      0.1877
        11        -0.0021     -0.0000      0.0000      0.0000      0.0000
        12        -0.0000      0.0530     -0.0153      0.0030      0.0036
        13         0.0000      0.0154      0.0530      0.0030      0.0036
        14         0.0000     -0.0001      0.0000      0.0000      0.0000
        15         0.0001      0.3984      0.0546      0.1617      0.1834
        16         0.0000      0.0546     -0.3984      0.1617      0.1834
        17        -0.7355      0.0001     -0.0000      0.5410      0.6119
        18        -0.0001      0.1084      0.1063      0.0230      0.0259
        19         0.0001      0.1063     -0.1085      0.0231      0.0259
        20         0.2707     -0.0000      0.0000      0.0733      0.0781
        21         0.0000      0.0000      0.0000      0.0000      0.0000
        22         0.0000     -0.1632      0.0052      0.0267      0.0236
        23        -0.0001     -0.0053     -0.1632      0.0267      0.0236
        24         0.0953      0.0001     -0.0002      0.0091      0.0080
        25        -0.0000     -0.1758      0.2775      0.1079      0.0943
        26        -0.0000      0.2775      0.1757      0.1079      0.0943
        27         0.4823     -0.0000      0.0000      0.2326      0.1988
        28         0.0845      0.0000      0.0000      0.0071      0.0060
        29         0.0000     -0.0088     -0.0118      0.0002      0.0002
        30        -0.0000     -0.0118      0.0088      0.0002      0.0002
        31        -0.0000      0.0000     -0.0000      0.0000      0.0000
        32         0.0000     -0.1795     -0.0319      0.0332      0.0249
        33         0.0000      0.0320     -0.1795      0.0333      0.0249
        34         0.0000      0.1043     -0.2953      0.0981      0.0731
        35        -0.0000     -0.2954     -0.1044      0.0981      0.0731
        36        -0.0564     -0.0000     -0.0000      0.0032      0.0023
        37        -0.0000      0.0421      0.2520      0.0653      0.0480
        38        -0.0000      0.2519     -0.0421      0.0653      0.0480
        39         0.0000      0.0001     -0.0000      0.0000      0.0000
        40        -0.0000     -0.1055      0.1164      0.0247      0.0175
        41        -0.0000      0.1164      0.1056      0.0247      0.0175
        42        -0.0000      0.1755      0.1717      0.0603      0.0425
        43         0.0000     -0.1717      0.1755      0.0603      0.0425
        44         0.5375     -0.0000     -0.0000      0.2889      0.2024
        45         0.0606      0.0000      0.0000      0.0037      0.0025
        46         0.0000      0.2341     -0.4842      0.2892      0.1957
        47        -0.0000     -0.4842     -0.2341      0.2892      0.1957
        48         0.0000     -0.0002      0.0001      0.0000      0.0000
        49        -0.0000      0.0912     -0.1144      0.0214      0.0132
        50        -0.0000     -0.1144     -0.0912      0.0214      0.0132
        51        -0.0000     -0.1425     -0.1652      0.0476      0.0293
        52        -0.0000      0.1652     -0.1424      0.0476      0.0293
        53         0.1289      0.0001      0.0003      0.0166      0.0101
        54         0.0001     -0.3117     -0.2313      0.1507      0.0919
        55        -0.0001     -0.2313      0.3117      0.1506      0.0919
        56         0.2561      0.0001      0.0001      0.0656      0.0394
        57        -0.0001     -0.0434      0.2618      0.0704      0.0423
        58        -0.0001      0.2618      0.0434      0.0704      0.0423
        59        -0.0001      0.0057     -0.0687      0.0048      0.0028
        60         0.0000     -0.0687     -0.0056      0.0048      0.0028
        61         0.4125      0.0000     -0.0000      0.1702      0.1005
        62        -0.0860      0.0000      0.0000      0.0074      0.0042
        63         0.0415      0.0000      0.0000      0.0017      0.0009
        64        -0.1588     -0.0000     -0.0000      0.0252      0.0131
        65        -0.0000     -0.0230     -0.0250      0.0012      0.0006
        66        -0.0000     -0.0250      0.0229      0.0012      0.0006
        67        -0.0000      0.3859      0.1477      0.1708      0.0876
        68         0.0000      0.1477     -0.3859      0.1707      0.0876
        69        -0.1504      0.0000      0.0000      0.0226      0.0115
        70         0.0000      0.0000     -0.0001      0.0000      0.0000
        71        -0.0001     -0.1639     -0.2254      0.0777      0.0387
        72        -0.0001     -0.2254      0.1639      0.0777      0.0387
        73        -0.5298      0.0000      0.0000      0.2806      0.1380
        74         0.0001      0.0785     -0.1040      0.0170      0.0080
        75         0.0000     -0.1040     -0.0785      0.0170      0.0080
        76         1.1550      0.0000      0.0000      1.3341      0.6200
        77         0.0001     -0.0000      0.0001      0.0000      0.0000
        78         0.0000     -0.1238     -0.0436      0.0172      0.0078
        79        -0.0001      0.0436     -0.1239      0.0172      0.0078
        80        -0.0000     -0.1216      0.5665      0.3357      0.1486
        81         0.0000      0.5665      0.1215      0.3357      0.1486
        82        -0.2855      0.0001     -0.0000      0.0815      0.0355
        83        -0.0000     -0.0661      0.1961      0.0428      0.0179
        84         0.0000      0.1961      0.0661      0.0428      0.0179
        85        -0.0000      0.0221     -0.0831      0.0074      0.0031
        86         0.0000     -0.0832     -0.0222      0.0074      0.0031
        87         0.1952      0.0000      0.0000      0.0381      0.0158
        88         0.3339      0.0000      0.0000      0.1115      0.0457
        89        -0.0000      0.0001      0.0001      0.0000      0.0000
        90         0.0000      0.0243      0.0258      0.0013      0.0005
        91        -0.0000      0.0258     -0.0243      0.0013      0.0005
        92         0.0000     -0.3880      0.0158      0.1508      0.0587
        93        -0.0001     -0.0158     -0.3880      0.1508      0.0587
        94        -0.5390     -0.0000      0.0000      0.2905      0.1105
        95        -0.0000     -0.1223     -0.0755      0.0207      0.0077
        96         0.0000      0.0757     -0.1222      0.0207      0.0077
        97         0.0000      0.2295      0.2460      0.1132      0.0422
        98        -0.0001      0.2460     -0.2296      0.1132      0.0422
        99         0.0000     -0.0009     -0.0005      0.0000      0.0000
       100        -0.0500     -0.0002      0.0005      0.0025      0.0009
       101        -0.0000     -0.0785     -0.2215      0.0552      0.0205
       102         0.0000     -0.2215      0.0784      0.0552      0.0205
       103         0.0000      0.0066      0.3539      0.1253      0.0462
       104        -0.0001     -0.3539      0.0065      0.1253      0.0462
       105         0.3070     -0.0001     -0.0000      0.0943      0.0346
       106        -0.5558      0.0000      0.0000      0.3090      0.1128
       107        -0.0000      0.1234      0.1356      0.0336      0.0115
       108        -0.0000      0.1356     -0.1234      0.0336      0.0115
       109         0.0000      0.0000      0.0000      0.0000      0.0000
       110        -0.1401      0.0000     -0.0001      0.0196      0.0066
       111        -0.0000      0.4276      0.1369      0.2015      0.0675
       112        -0.0000     -0.1369      0.4275      0.2015      0.0675
       113        -0.0000      0.0001     -0.0002      0.0000      0.0000
       114         0.0000     -0.3798     -0.0219      0.1447      0.0478
       115         0.0000      0.0218     -0.3798      0.1447      0.0479
       116        -0.0000     -0.2117     -0.0346      0.0460      0.0152
       117        -0.0000      0.0350     -0.2116      0.0460      0.0152
       118        -0.0960      0.0000     -0.0000      0.0092      0.0030
       119         0.0000     -0.2611     -0.1628      0.0947      0.0300
       120         0.0000      0.1628     -0.2611      0.0947      0.0300
       121        -0.0013     -0.0661      0.1256      0.0202      0.0063
       122        -0.0001      0.1256      0.0661      0.0202      0.0063
       123         0.1086     -0.0006      0.0016      0.0118      0.0037
       124        -0.0000      0.0000     -0.0000      0.0000      0.0000
       125         0.0000     -0.0001      0.0000      0.0000      0.0000
       126        -0.0000      0.1250     -0.1827      0.0490      0.0152
       127         0.0000      0.1827      0.1250      0.0490      0.0152
       128        -0.0000      0.0004      0.0002      0.0000      0.0000
       129        -0.0000     -0.0001      0.0004      0.0000      0.0000
       130        -0.0000     -0.0000      0.0000      0.0000      0.0000
       131         0.0000      0.2922     -0.0395      0.0869      0.0268
       132        -0.0000      0.0395      0.2922      0.0869      0.0268
       133         0.4549     -0.0000      0.0000      0.2069      0.0636
       134        -0.0000      0.5412     -0.0169      0.2931      0.0895
       135        -0.0000      0.0169      0.5412      0.2932      0.0895
       136        -0.3815     -0.0000      0.0000      0.1455      0.0441
       137         0.0000     -0.2958     -0.1822      0.1207      0.0358
       138         0.0000      0.1822     -0.2958      0.1207      0.0358
       139         0.0030      0.0001     -0.0002      0.0000      0.0000
       140         0.0000      0.0000     -0.0000      0.0000      0.0000
       141        -0.0001     -0.0080      0.0023      0.0001      0.0000
       142        -0.0000     -0.0023     -0.0080      0.0001      0.0000
       143         0.7079      0.0000      0.0001      0.5012      0.1452
       144         0.0000      0.5648     -0.3333      0.4301      0.1235
       145         0.0001     -0.3333     -0.5648      0.4301      0.1235
       146        -0.1923      0.0000     -0.0000      0.0370      0.0105
       147         0.0113      0.0000      0.0000      0.0001      0.0000
       148         0.0000     -0.0183      0.0100      0.0004      0.0001
       149         0.0000     -0.0100     -0.0183      0.0004      0.0001
       150         0.0000     -0.0108     -0.0213      0.0006      0.0002
       151         0.0000      0.0213     -0.0108      0.0006      0.0002
       152        -0.0000      0.4727      0.1978      0.2626      0.0706
       153        -0.0001     -0.1978      0.4727      0.2625      0.0706
       154         0.2565     -0.0000      0.0002      0.0658      0.0177
       155        -0.0000     -0.0248      0.0122      0.0008      0.0002
       156        -0.0000      0.0122      0.0248      0.0008      0.0002
       157        -0.0000      0.0000     -0.0000      0.0000      0.0000
       158        -0.0001     -0.0199      0.0644      0.0045      0.0012
       159        -0.0000      0.0644      0.0199      0.0045      0.0012
       160         0.0001      0.0196      0.0203      0.0008      0.0002
       161         0.0001     -0.0203      0.0196      0.0008      0.0002
       162         0.4210     -0.0000      0.0000      0.1773      0.0452
       163        -0.1457      0.0000     -0.0000      0.0212      0.0054
       164        -0.0000      0.0000      0.0000      0.0000      0.0000
       165        -0.0000      0.0000      0.0000      0.0000      0.0000
       166         0.0000      0.0335      0.0301      0.0020      0.0005
       167         0.0001     -0.0301      0.0334      0.0020      0.0005
       168         0.1167     -0.0001     -0.0003      0.0136      0.0033
       169         0.0001     -0.1602      0.3735      0.1652      0.0399
       170         0.0000      0.3735      0.1602      0.1652      0.0398
       171         0.0968      0.0000      0.0000      0.0094      0.0022
       172         0.0000     -0.1878      0.0398      0.0369      0.0086
       173        -0.0000     -0.0398     -0.1878      0.0369      0.0086
       174         0.3199     -0.0000     -0.0000      0.1023      0.0236
       175        -0.0000      0.1077     -0.0345      0.0128      0.0029
       176         0.0000      0.0345      0.1077      0.0128      0.0029
       177         0.0000     -0.1167      0.0885      0.0214      0.0048
       178         0.0000      0.0885      0.1167      0.0214      0.0048
       179         0.0017     -0.0000      0.0000      0.0000      0.0000
       180         0.0000      0.0165     -0.1075      0.0118      0.0026
       181         0.0000      0.1075      0.0165      0.0118      0.0026
       182         0.0000     -0.0265     -0.0082      0.0008      0.0002
       183        -0.0001      0.0082     -0.0265      0.0008      0.0002
       184         0.0001     -0.0000     -0.0000      0.0000      0.0000
       185         0.0001     -0.0019     -0.0013      0.0000      0.0000
       186        -0.0006      0.0013     -0.0018      0.0000      0.0000
       187        -0.3284      0.0000      0.0000      0.1078      0.0232
       188         0.2415      0.0000      0.0000      0.0583      0.0125
       189         0.0000      0.0002      0.0001      0.0000      0.0000
       190         0.0028     -0.0002      0.0003      0.0000      0.0000
       191         0.0000      0.0690      0.0134      0.0049      0.0010
       192         0.0000     -0.0136      0.0693      0.0050      0.0010
       193        -0.0000      0.3617      0.2534      0.1950      0.0401
       194         0.0000      0.2533     -0.3616      0.1949      0.0401
       195         0.1292      0.0000      0.0000      0.0167      0.0034
       196        -0.0973      0.0000      0.0000      0.0095      0.0019
       197        -0.0000     -0.0000     -0.0000      0.0000      0.0000
       198        -0.1307      0.0000      0.0000      0.0171      0.0034
       199        -0.0000      0.0065      0.0041      0.0001      0.0000
       200        -0.0000     -0.0041      0.0066      0.0001      0.0000
       201         0.0000      0.0231     -0.1985      0.0400      0.0077
       202        -0.0000     -0.1986     -0.0231      0.0400      0.0077
       203        -0.0000     -0.1057     -0.9476      0.9092      0.1746
       204        -0.0000     -0.9476      0.1057      0.9092      0.1746
       205        -0.0000     -0.3276     -0.0472      0.1095      0.0209
       206        -0.0000      0.0473     -0.3276      0.1096      0.0209
       207         0.0000     -0.0000     -0.0000      0.0000      0.0000
       208         0.0064      0.0000      0.0000      0.0000      0.0000
       209         0.0000      0.9312     -0.2630      0.9364      0.1737
       210         0.0000     -0.2630     -0.9312      0.9363      0.1737
       211        -0.0000     -0.0000      0.0001      0.0000      0.0000
       212        -0.0000     -0.3337     -0.2334      0.1658      0.0306
       213        -0.0000     -0.2334      0.3337      0.1658      0.0306
       214         0.6454     -0.0000      0.0000      0.4166      0.0745
       215         0.0000     -0.0721     -0.0209      0.0056      0.0010
       216         0.0000      0.0209     -0.0721      0.0056      0.0010
       217         0.0000     -0.0040     -0.0059      0.0001      0.0000
       218        -0.0000      0.0059     -0.0040      0.0001      0.0000
       219        -0.0000      0.0000      0.0000      0.0000      0.0000
       220         0.2076      0.0000      0.0000      0.0431      0.0076
       221        -1.1418     -0.0000      0.0001      1.3038      0.2259
       222         0.0000     -1.1834     -0.1917      1.4371      0.2482
       223        -0.0001      0.1917     -1.1834      1.4371      0.2482
       224         0.0000     -0.2225     -0.0296      0.0504      0.0085
       225        -0.0000      0.0296     -0.2225      0.0504      0.0085
       226         0.0000      0.1554      0.0263      0.0248      0.0041
       227         0.0000     -0.0263      0.1554      0.0248      0.0041
       228        -0.0000      0.0901      1.3381      1.7986      0.2935
       229         0.0000      1.3381     -0.0901      1.7987      0.2935
       230         0.0000      0.3784      0.5509      0.4466      0.0709
       231         0.0000     -0.5509      0.3784      0.4466      0.0709
       232        -0.0000     -0.0822      0.0028      0.0068      0.0011
       233        -0.0000     -0.0028     -0.0822      0.0068      0.0011
       234        -1.5600      0.0000      0.0000      2.4335      0.3795
       235        -0.4334     -0.0000     -0.0000      0.1878      0.0283
       236        -0.0000     -0.2523      0.1146      0.0768      0.0114
       237         0.0000     -0.1146     -0.2523      0.0768      0.0114
       238        -0.1829     -0.0000      0.0000      0.0334      0.0046
 Ground to excited state transition magnetic dipole moments (Au):
       state          X           Y           Z
         1        -0.0000     -0.2363      1.0083
         2        -0.0000     -1.0083     -0.2363
         3        -0.0000     -0.0697     -0.3268
         4        -0.0000      0.3269     -0.0697
         5        -0.6667     -0.0000     -0.0001
         6        -0.0001      0.3133      0.4519
         7         0.0000      0.4519     -0.3133
         8         0.0000      0.0000      0.0000
         9         0.0000      0.2290     -0.6688
        10         0.0000      0.6688      0.2290
        11         0.0000     -0.0000      0.0000
        12         0.0000      0.1825      0.6302
        13         0.0000     -0.6302      0.1825
        14         0.3981      0.0000      0.0000
        15         0.0001      0.0524     -0.3826
        16         0.0000     -0.3826     -0.0525
        17         0.0000      0.0000     -0.0001
        18         0.0000     -0.2338      0.2386
        19        -0.0000      0.2385      0.2338
        20        -0.0000      0.0000      0.0000
        21         0.8449      0.0001      0.0000
        22         0.0001     -0.0196     -0.6024
        23        -0.0001      0.6024     -0.0194
        24         0.0000     -0.0000     -0.0001
        25        -0.0000      0.6162      0.3902
        26        -0.0001      0.3903     -0.6164
        27         0.0000      0.0001      0.0000
        28        -0.0000     -0.0001     -0.0000
        29        -0.0000     -0.0756      0.0562
        30        -0.0000      0.0562      0.0756
        31        -0.5885      0.0000      0.0001
        32        -0.0001      0.0802     -0.4495
        33         0.0001      0.4495      0.0801
        34         0.0000     -0.4287     -0.1515
        35         0.0001     -0.1514      0.4286
        36        -0.0000      0.0001     -0.0000
        37        -0.0000      0.0850     -0.0142
        38        -0.0000     -0.0143     -0.0850
        39         0.1089     -0.0000     -0.0001
        40         0.0000      0.1744      0.1581
        41        -0.0000      0.1582     -0.1744
        42         0.0000      0.1966     -0.2010
        43        -0.0000      0.2010      0.1966
        44        -0.0000     -0.0000      0.0000
        45        -0.0000      0.0000     -0.0000
        46        -0.0000     -0.3448     -0.1667
        47         0.0000     -0.1667      0.3448
        48        -0.0914      0.0001      0.0003
        49        -0.0001     -0.1134     -0.0904
        50         0.0001     -0.0905      0.1134
        51         0.0000     -0.2977      0.2567
        52         0.0000     -0.2567     -0.2977
        53         0.0000      0.0000      0.0000
        54        -0.0000     -0.0141      0.0189
        55        -0.0000      0.0189      0.0140
        56         0.0000      0.0003     -0.0003
        57         0.0000      0.6482      0.1074
        58         0.0000      0.1074     -0.6482
        59        -0.0000     -0.1020     -0.0084
        60         0.0000     -0.0084      0.1019
        61        -0.0000     -0.0000     -0.0000
        62         0.0000     -0.0000     -0.0000
        63        -0.0000      0.0000      0.0000
        64         0.0000     -0.0000     -0.0000
        65         0.0000     -0.1576      0.1446
        66        -0.0000      0.1445      0.1576
        67        -0.0000      0.2074     -0.5415
        68         0.0000     -0.5415     -0.2073
        69        -0.0000      0.0000      0.0000
        70         0.5655     -0.0002     -0.0001
        71        -0.0001     -0.7879      0.5728
        72         0.0001      0.5729      0.7879
        73         0.0000      0.0001     -0.0001
        74        -0.0000      0.0046      0.0035
        75        -0.0000      0.0035     -0.0046
        76         0.0000     -0.0000     -0.0000
        77        -0.5264      0.0003      0.0000
        78        -0.0001     -0.1383      0.3925
        79        -0.0003     -0.3925     -0.1381
        80         0.0000      1.0853      0.2328
        81        -0.0000      0.2328     -1.0853
        82         0.0000     -0.0000     -0.0002
        83         0.0000      0.1642      0.0553
        84         0.0000      0.0554     -0.1643
        85         0.0000      0.3195      0.0851
        86         0.0000      0.0851     -0.3195
        87        -0.0000      0.0001      0.0001
        88         0.0000     -0.0000      0.0000
        89         0.0143      0.0007     -0.0006
        90        -0.0000      0.2812     -0.2647
        91        -0.0000     -0.2647     -0.2812
        92         0.0000     -0.0142     -0.3484
        93        -0.0000      0.3485     -0.0142
        94         0.0000     -0.0000      0.0000
        95         0.0000      0.3259     -0.5267
        96        -0.0000      0.5268      0.3259
        97        -0.0000      0.0433     -0.0407
        98        -0.0000     -0.0406     -0.0436
        99        -0.0106      0.0001     -0.0001
       100        -0.0000      0.0000     -0.0001
       101         0.0000      0.0249     -0.0088
       102        -0.0000     -0.0087     -0.0248
       103         0.0000      0.5720     -0.0105
       104        -0.0000      0.0105      0.5721
       105         0.0000      0.0001      0.0002
       106        -0.0000     -0.0000     -0.0001
       107         0.0001      0.2892     -0.2631
       108         0.0000     -0.2631     -0.2892
       109        -0.4393      0.0000     -0.0001
       110        -0.0000      0.0001      0.0000
       111         0.0000     -0.0920      0.2874
       112        -0.0000     -0.2874     -0.0920
       113         0.5574     -0.0000     -0.0000
       114         0.0001     -0.0053      0.0921
       115        -0.0002     -0.0921     -0.0054
       116        -0.0001      0.0089     -0.0531
       117        -0.0003      0.0532      0.0088
       118         0.0000      0.0000      0.0000
       119         0.0000      0.5454     -0.8748
       120        -0.0000      0.8748      0.5454
       121        -0.0000     -0.2261     -0.1190
       122         0.0001     -0.1190      0.2262
       123         0.0002     -0.0029     -0.0011
       124         0.6455      0.0001      0.0000
       125        -0.1745      0.0000     -0.0002
       126        -0.0000      0.1809      0.1236
       127        -0.0001     -0.1238      0.1810
       128         0.0000      0.1696     -0.5244
       129        -0.0000      0.5244      0.1698
[...]
      7   0.298734D-01  0.336326D-01 -0.300455D-03  0.374585D+00  0.157757D+00
      8   0.134003D-04 -0.120487D-04 -0.257139D-05  0.000000D+00  0.160065D-04
      9  -0.138653D-02 -0.151381D-02  0.236251D-04 -0.724169D-01 -0.305092D-01
     10   0.155878D-02 -0.134535D-02 -0.369634D-04 -0.304972D-01  0.724071D-01
     11   0.117819D-03  0.858972D-04  0.782489D+00  0.443942D-03  0.459093D-03
     12  -0.666469D-01  0.118386D+00  0.335603D+00 -0.167757D+00  0.187883D+00
     13   0.667743D-01 -0.118257D+00  0.335660D+00  0.168110D+00 -0.187521D+00
     14  -0.107200D+00  0.952304D-01 -0.823174D-04 -0.891620D-01  0.211662D+00
     15  -0.951776D-01 -0.107235D+00 -0.116789D-03  0.211647D+00  0.891696D-01
     16   0.118282D+00  0.667169D-01  0.165331D-03 -0.187687D+00 -0.167936D+00
               171           172           173           174           175 
      1  -0.136778D+03 -0.136728D+03 -0.136728D+03 -0.136695D+03 -0.136653D+03
      2  -0.247399D-01 -0.114070D-05  0.196829D-05 -0.101565D+00  0.000000D+00
      3  -0.103135D-05  0.638712D-01  0.139717D-01  0.000000D+00 -0.541446D-01
      4  -0.452750D-05 -0.139715D-01  0.638688D-01  0.000000D+00  0.177470D-01
      5   0.967893D-01  0.451134D-05 -0.621789D-05  0.319920D+00  0.000000D+00
      6   0.169400D-05 -0.187540D+00 -0.410241D-01 -0.173635D-05  0.107499D+00
      7   0.877801D-05  0.410230D-01 -0.187534D+00 -0.189314D-05 -0.352330D-01
      8   0.000000D+00  0.000000D+00  0.000000D+00  0.000000D+00  0.000000D+00
      9  -0.742187D-05 -0.429191D-01  0.196185D+00  0.911370D-05 -0.163916D-01
     10   0.604524D-05 -0.196187D+00 -0.429182D-01  0.406159D-05 -0.500439D-01
     11  -0.650622D+00  0.376835D-05 -0.161128D-04  0.639041D+00  0.101754D-04
     12   0.448424D-01  0.314956D-01 -0.364663D-02 -0.750336D+00  0.852760D-01
     13   0.448306D-01 -0.315435D-01  0.368643D-02 -0.750338D+00 -0.852677D-01
     14   0.216852D-05 -0.353003D+00 -0.772204D-01  0.344570D-05 -0.270747D+00
     15  -0.874848D-05  0.772172D-01 -0.353006D+00 -0.197185D-04  0.887072D-01
     16   0.483706D-05 -0.366579D-02 -0.315175D-01  0.000000D+00 -0.128089D-02
               176           177           178           179           180 
      1  -0.136653D+03 -0.136639D+03 -0.136639D+03 -0.136604D+03 -0.136585D+03
      2  -0.200017D-05 -0.321776D-05 -0.301966D-05 -0.307327D-01 -0.189566D-05
      3  -0.177448D-01  0.542043D-01 -0.416824D-01  0.212504D-05 -0.732992D-02
      4  -0.541397D-01 -0.416864D-01 -0.542064D-01  0.000000D+00  0.500455D-01
      5   0.000000D+00  0.910952D-05  0.104785D-04  0.167286D-02  0.568744D-05
      6   0.352384D-01 -0.116072D+00  0.892521D-01 -0.483610D-05  0.157668D-01
      7   0.107487D+00  0.892660D-01  0.116073D+00  0.000000D+00 -0.107655D+00
      8   0.000000D+00  0.196749D-05  0.602807D-05  0.000000D+00  0.000000D+00
      9   0.500404D-01  0.465991D-01  0.605764D-01  0.346522D-05  0.136780D-01
     10  -0.164254D-01  0.605751D-01 -0.465617D-01 -0.176995D-05  0.200680D-02
     11   0.789463D-05 -0.185199D-04 -0.358712D-04  0.304991D+00  0.701092D-05
     12  -0.123885D-02  0.228735D+00 -0.768979D-01  0.115444D+01 -0.847890D-01
     13   0.126432D-02 -0.228748D+00  0.768521D-01  0.115443D+01  0.847685D-01
     14  -0.887145D-01  0.110842D+00 -0.852582D-01  0.963784D-05 -0.571400D-01
     15  -0.270729D+00 -0.852509D-01 -0.110850D+00  0.154909D-05  0.390069D+00
     16  -0.852992D-01  0.768765D-01  0.228713D+00  0.000000D+00 -0.164181D+00
               181           182           183           184           185 
      1  -0.136585D+03 -0.136513D+03 -0.136513D+03 -0.136500D+03 -0.136497D+03
      2  -0.219670D-05 -0.174307D-05  0.256453D-04 -0.301328D-04 -0.260285D-04
      3  -0.500443D-01  0.959849D-02 -0.291504D-02 -0.709535D-04 -0.444268D-01
      4  -0.733040D-02  0.291431D-02  0.959865D-02 -0.483370D-04 -0.316384D-01
      5   0.373890D-05  0.431418D-05 -0.572993D-04  0.689051D-04  0.611582D-04
      6   0.107653D+00 -0.265682D-01  0.803990D-02 -0.825366D-05 -0.186306D-02
      7   0.157686D-01 -0.806734D-02 -0.265426D-01 -0.535367D-05 -0.133165D-02
      8   0.000000D+00 -0.177783D-04  0.100336D-04 -0.493785D-01  0.770052D-04
      9  -0.199981D-02 -0.840382D-01 -0.276820D+00 -0.540618D-03 -0.333434D+00
     10   0.136750D-01  0.276925D+00 -0.838993D-01  0.675760D-03  0.468190D+00
     11   0.130336D-04 -0.560545D-05 -0.663266D-04 -0.979556D-04 -0.190646D-03
     12  -0.164146D+00  0.550977D-01 -0.398513D-01 -0.166811D-03 -0.108419D+00
     13   0.164210D+00 -0.550813D-01  0.398808D-01  0.252230D-03  0.108541D+00
     14  -0.390073D+00  0.370389D+00 -0.112307D+00  0.334542D-03  0.283912D+00
     15  -0.571452D-01  0.112387D+00  0.370320D+00  0.348992D-03  0.202177D+00
     16   0.847794D-01 -0.398208D-01 -0.551092D-01  0.250263D-03  0.151717D+00
               186           187           188           189           190 
      1  -0.136497D+03 -0.136495D+03 -0.136486D+03 -0.136365D+03 -0.136356D+03
      2   0.273652D-03  0.143252D+00 -0.106933D+00 -0.557507D-05  0.656555D-02
      3   0.316421D-01 -0.637635D-04  0.492128D-05 -0.593085D-04  0.717166D-04
      4  -0.444318D-01  0.648699D-04 -0.262842D-04 -0.249609D-04 -0.122997D-03
      5  -0.625059D-03 -0.328354D+00  0.241548D+00  0.106432D-04  0.283673D-02
      6   0.132041D-02  0.113177D-05  0.877340D-05  0.159992D-03 -0.246214D-03
      7  -0.185095D-02  0.000000D+00  0.121966D-04  0.687834D-04  0.275475D-03
      8  -0.212077D-05 -0.700163D-05 -0.300962D-05  0.236013D-01  0.000000D+00
      9  -0.468252D+00  0.692263D-03 -0.259256D-03  0.128843D-04 -0.278132D-04
     10  -0.333466D+00  0.665359D-03 -0.110461D-03  0.000000D+00  0.581055D-04
     11   0.401499D-03  0.433366D+00  0.784159D+00  0.710589D-04 -0.721165D+00
     12   0.151472D+00 -0.176721D+00 -0.156549D+00  0.432960D-04 -0.706159D-01
     13  -0.151912D+00 -0.176184D+00 -0.156639D+00 -0.208797D-04 -0.703405D-01
     14  -0.202236D+00  0.407341D-03 -0.685638D-04  0.126864D-04 -0.781306D-04
     15   0.284003D+00 -0.438338D-03  0.186756D-03 -0.121475D-04 -0.120116D-03
     16   0.108469D+00 -0.138965D-03  0.542468D-04 -0.317130D-04  0.124978D-03
               191           192           193           194           195 
      1  -0.136355D+03 -0.136355D+03 -0.136350D+03 -0.136350D+03 -0.136297D+03
      2   0.825448D-05 -0.148469D-05  0.654982D-05 -0.119536D-05 -0.470310D-01
      3  -0.934115D-02  0.184336D-02 -0.139278D+00 -0.961982D-01 -0.164423D-05
      4  -0.174276D-02 -0.944208D-02 -0.962039D-01  0.139265D+00 -0.703599D-05
      5   0.641905D-05  0.165939D-04 -0.196021D-04  0.183346D-04  0.129228D+00
      6   0.691048D-01 -0.131625D-01  0.363327D+00  0.250944D+00  0.545958D-05
      7   0.129013D-01  0.693670D-01  0.250970D+00 -0.363262D+00  0.199579D-04
      8  -0.605505D-05  0.000000D+00 -0.513675D-05  0.000000D+00 -0.148351D-05
      9   0.736368D-02  0.394298D-01  0.194421D-01 -0.281260D-01  0.178902D-04
     10  -0.394157D-01  0.737533D-02 -0.281237D-01 -0.194438D-01  0.000000D+00
     11  -0.101420D-02 -0.505882D-03  0.103592D-03 -0.601856D-03 -0.445317D+00
     12   0.102218D+00 -0.581048D-01  0.303163D-01  0.410318D-01  0.128222D+00
     13  -0.102417D+00  0.580125D-01 -0.303097D-01 -0.411396D-01  0.128224D+00
     14   0.822408D-01 -0.153362D-01 -0.593162D-01 -0.410145D-01 -0.735255D-05
     15   0.153609D-01  0.822028D-01 -0.409609D-01  0.594134D-01 -0.210320D-04
     16  -0.580250D-01 -0.102336D+00 -0.411523D-01  0.302413D-01  0.000000D+00
               196           197           198           199           200 
      1  -0.136261D+03 -0.136243D+03 -0.136241D+03 -0.136161D+03 -0.136161D+03
      2   0.204799D-01  0.107406D-05  0.715725D-01  0.454949D-05  0.444287D-05
      3   0.000000D+00  0.128635D-05 -0.400572D-05 -0.104496D-01  0.645866D-02
      4  -0.220161D-05  0.371928D-05  0.000000D+00 -0.644571D-02 -0.104800D-01
      5  -0.973228D-01 -0.302109D-05 -0.130650D+00 -0.116861D-04 -0.114750D-04
      6   0.000000D+00 -0.319300D-05  0.978068D-05  0.655960D-02 -0.408187D-02
      7   0.631906D-05 -0.926075D-05  0.000000D+00  0.404933D-02  0.663804D-02
      8   0.000000D+00 -0.320618D-01  0.000000D+00  0.000000D+00  0.000000D+00
      9   0.152135D-05  0.828756D-05  0.446451D-05 -0.339770D+00 -0.550974D+00
     10  -0.243443D-05 -0.443672D-05  0.104203D-04  0.550901D+00 -0.339817D+00
     11  -0.411072D+00  0.209224D-05 -0.345493D+00  0.000000D+00 -0.174645D-04
     12   0.193328D+00  0.000000D+00 -0.636920D-03  0.109038D-01 -0.132901D-01
     13   0.193329D+00  0.000000D+00 -0.638911D-03 -0.109096D-01  0.132970D-01
     14  -0.632946D-05 -0.420785D-05  0.870361D-05  0.347028D+00 -0.214049D+00
     15  -0.427754D-05 -0.535003D-05 -0.165117D-05  0.214023D+00  0.347090D+00
     16  -0.317783D-05  0.000000D+00  0.000000D+00 -0.132959D-01 -0.109055D-01
               201           202           203           204           205 
      1  -0.136135D+03 -0.136135D+03 -0.136120D+03 -0.136120D+03 -0.136095D+03
      2   0.000000D+00  0.000000D+00  0.000000D+00  0.000000D+00  0.000000D+00
      3  -0.905918D-02  0.826532D-01  0.419064D-01  0.354322D+00  0.125419D+00
      4   0.826263D-01  0.906625D-02  0.354320D+00 -0.419028D-01  0.172362D-01
      5   0.188762D-05 -0.171310D-05 -0.190231D-05  0.000000D+00 -0.247236D-05
      6   0.217842D-01 -0.198763D+00 -0.111995D+00 -0.946932D+00 -0.327877D+00
      7  -0.198692D+00 -0.218020D-01 -0.946930D+00  0.111987D+00 -0.450597D-01
      8   0.000000D+00  0.000000D+00  0.000000D+00  0.000000D+00 -0.165510D-05
      9   0.330022D+00  0.362072D-01  0.809838D+00 -0.957644D-01  0.166354D-01
     10   0.361737D-01 -0.330084D+00 -0.958026D-01 -0.809847D+00 -0.121086D+00
     11   0.896584D-05 -0.314995D-05 -0.396786D-05 -0.439720D-05  0.275858D-05
     12  -0.579392D-01  0.122908D+00  0.375820D-01 -0.173342D+00  0.199351D+00
     13   0.579371D-01 -0.122912D+00 -0.375801D-01  0.173342D+00 -0.199354D+00
     14   0.597689D-01 -0.545096D+00 -0.765137D-01 -0.646873D+00 -0.974227D-01
     15  -0.545047D+00 -0.597923D-01 -0.646886D+00  0.765003D-01 -0.133860D-01
     16  -0.122915D+00 -0.579367D-01  0.173340D+00  0.375807D-01 -0.100720D+00
               206           207           208           209           210 
      1  -0.136095D+03 -0.136061D+03 -0.136060D+03 -0.135998D+03 -0.135998D+03
      2   0.000000D+00 -0.481557D-05 -0.207180D-01 -0.116821D-05 -0.164319D-05
      3  -0.172491D-01  0.105336D-04 -0.418447D-05 -0.390141D+00  0.112955D+00
      4   0.125437D+00  0.694724D-05  0.000000D+00  0.112954D+00  0.390137D+00
      5   0.000000D+00  0.606879D-05  0.637616D-02  0.281230D-05  0.383703D-05
      6   0.450940D-01 -0.278635D-04  0.106887D-04  0.929480D+00 -0.269107D+00
      7  -0.327925D+00 -0.176028D-04  0.236453D-05 -0.269104D+00 -0.929472D+00
      8   0.000000D+00  0.345404D-01 -0.467568D-05  0.000000D+00  0.103157D-05
      9   0.121109D+00  0.770224D-05 -0.432042D-05  0.336498D+00  0.116225D+01
     10   0.166521D-01 -0.192602D-04  0.000000D+00  0.116226D+01 -0.336498D+00
     11   0.000000D+00 -0.143654D-04 -0.798130D-01  0.805210D-05  0.000000D+00
     12  -0.100717D+00  0.276213D-05 -0.109090D-02 -0.168758D-01 -0.832168D-03
     13   0.100716D+00 -0.165064D-05 -0.108381D-02  0.168758D-01  0.833479D-03
     14   0.134028D-01 -0.160773D-04  0.322591D-05  0.104241D+01 -0.301800D+00
     15  -0.974491D-01 -0.107490D-04  0.146234D-05 -0.301801D+00 -0.104240D+01
     16  -0.199349D+00 -0.449979D-05 -0.125102D-05  0.834556D-03 -0.168752D-01
               211           212           213           214           215 
      1  -0.135983D+03 -0.135981D+03 -0.135981D+03 -0.135864D+03 -0.135823D+03
      2   0.000000D+00  0.221870D-05  0.395287D-05 -0.271191D+00 -0.249860D-05
      3   0.151043D-04  0.142863D+00  0.985160D-01  0.308146D-05  0.262526D-01
      4  -0.347966D-04  0.985268D-01 -0.142874D+00 -0.864583D-05  0.743715D-02
      5   0.000000D+00 -0.563715D-05 -0.977359D-05  0.645426D+00  0.655450D-05
      6  -0.358622D-04 -0.335209D+00 -0.231157D+00 -0.930613D-05 -0.722713D-01
      7   0.805702D-04 -0.231182D+00  0.335239D+00  0.228386D-04 -0.204705D-01
      8  -0.619195D-02 -0.143126D-05  0.000000D+00  0.399922D-05  0.000000D+00
      9  -0.875749D-04  0.257275D+00 -0.373099D+00 -0.471290D-04 -0.195395D-01
     10  -0.337772D-04 -0.373062D+00 -0.257256D+00 -0.173685D-04  0.689738D-01
     11  -0.146061D-05 -0.777365D-05 -0.107995D-04  0.293201D+01  0.336000D-04
     12   0.176990D-04  0.731232D-01  0.990677D-01 -0.134252D+00  0.252017D+00
     13  -0.186932D-04 -0.731267D-01 -0.990673D-01 -0.134254D+00 -0.252024D+00
     14  -0.433559D-04 -0.456028D+00 -0.314461D+00 -0.155780D-04 -0.138380D-02
     15   0.113223D-03 -0.314488D+00  0.456052D+00  0.358642D-04 -0.396692D-03
     16   0.201521D-04 -0.990673D-01  0.731254D-01  0.271537D-05 -0.175097D+00
               216           217           218           219           220 
      1  -0.135823D+03 -0.135808D+03 -0.135808D+03 -0.135806D+03 -0.135791D+03
      2  -0.213358D-05 -0.189035D-05  0.518510D-05  0.147638D-05 -0.678689D-01
      3  -0.743508D-02  0.165357D-01 -0.242600D-01  0.000000D+00 -0.126597D-05
      4   0.262569D-01  0.242607D-01  0.165515D-01 -0.135839D-04 -0.492983D-05
      5   0.590292D-05  0.685928D-05 -0.127923D-04 -0.419490D-05  0.207577D+00
      6   0.204673D-01 -0.400163D-02  0.590329D-02  0.247471D-05  0.389336D-05
      7  -0.722834D-01 -0.590568D-02 -0.404461D-02  0.135078D-04  0.117222D-04
      8   0.000000D+00  0.000000D+00  0.541562D-05  0.654167D-02  0.000000D+00
      9  -0.689624D-01 -0.492541D-01 -0.335461D-01  0.633912D-05 -0.137388D-04
     10  -0.195479D-01  0.336018D-01 -0.492475D-01 -0.768786D-05  0.000000D+00
     11   0.181327D-04  0.337614D-04 -0.925577D-04 -0.138790D-04  0.526086D+00
     12  -0.175100D+00 -0.172116D-01  0.627628D-01 -0.116977D-04 -0.977489D-01
     13   0.175097D+00  0.172032D-01 -0.627560D-01  0.147492D-04 -0.977566D-01
     14   0.385651D-03 -0.557294D-01  0.817396D-01 -0.794217D-05 -0.551807D-05
     15  -0.139236D-02 -0.817424D-01 -0.557807D-01  0.460824D-04  0.137174D-04
     16  -0.252023D+00  0.627699D-01  0.171999D-01 -0.110644D-04  0.453343D-05
               221           222           223           224           225 
      1  -0.135743D+03 -0.135731D+03 -0.135731D+03 -0.135645D+03 -0.135645D+03
      2   0.351054D+00 -0.476536D-05  0.204520D-04  0.000000D+00  0.114308D-05
      3   0.113396D-04  0.436175D+00 -0.677025D-01  0.749972D-01 -0.947170D-02
      4  -0.268208D-04  0.677025D-01  0.436175D+00  0.947052D-02  0.749945D-01
      5  -0.114182D+01  0.158937D-04 -0.687246D-04  0.000000D+00 -0.411044D-05
      6  -0.303950D-04 -0.118462D+01  0.183876D+00 -0.222666D+00  0.281218D-01
      7   0.723791D-04 -0.183875D+00 -0.118462D+01 -0.281176D-01 -0.222659D+00
      8   0.216747D-05  0.000000D+00  0.000000D+00  0.000000D+00  0.000000D+00
      9  -0.118146D-03  0.282293D+00  0.181862D+01  0.123561D-02  0.978240D-02
     10  -0.480482D-04 -0.181862D+01  0.282283D+00 -0.979380D-02  0.123523D-02
     11  -0.300781D+01  0.467755D-04 -0.137235D-03  0.100078D-04 -0.844358D-05
     12   0.236442D-01 -0.255837D-01  0.134883D-01  0.321144D+00 -0.157855D+00
     13   0.236471D-01  0.255841D-01 -0.134936D-01 -0.321145D+00  0.157851D+00
     14  -0.578546D-04 -0.220390D+01  0.342089D+00  0.165299D+00 -0.208753D-01
     15   0.134607D-03 -0.342095D+00 -0.220390D+01  0.208800D-01  0.165315D+00
     16  -0.168087D-05  0.134938D-01  0.255889D-01 -0.157849D+00 -0.321156D+00
               226           227           228           229           230 
      1  -0.135574D+03 -0.135574D+03 -0.135505D+03 -0.135505D+03 -0.135393D+03
      2   0.000000D+00 -0.144657D-05  0.000000D+00  0.000000D+00  0.000000D+00
      3  -0.510835D-01  0.829077D-02 -0.321629D-01 -0.434883D+00 -0.124013D+00
      4  -0.829142D-02 -0.510892D-01 -0.434880D+00  0.321640D-01 -0.178028D+00
      5   0.230491D-05  0.605162D-05  0.000000D+00  0.282173D-05  0.000000D+00
      6   0.155559D+00 -0.252470D-01  0.989176D-01  0.133749D+01  0.381979D+00
      7   0.252481D-01  0.155576D+00  0.133748D+01 -0.989209D-01  0.548352D+00
      8   0.161842D-05  0.276077D-05  0.000000D+00 -0.168400D-05 -0.120592D-05
      9  -0.326967D-01 -0.201369D+00 -0.170897D+01  0.126396D+00 -0.885663D+00
     10   0.201357D+00 -0.326771D-01  0.126393D+00  0.170897D+01  0.616953D+00
     11  -0.104557D-04 -0.288124D-04 -0.164491D-04  0.209096D-04  0.142855D-04
     12  -0.589577D-01  0.316102D-01  0.716019D-02 -0.272072D-01  0.965433D-02
     13   0.589594D-01 -0.316028D-01 -0.715714D-02  0.272026D-01 -0.965551D-02
     14   0.290356D-01 -0.470775D-02  0.155118D+00  0.209741D+01  0.820699D+00
     15   0.472492D-02  0.290652D-01  0.209740D+01 -0.155125D+00  0.117815D+01
     16   0.316031D-01  0.589519D-01  0.272027D-01  0.716103D-02 -0.339061D-01
               231           232           233           234           235 
      1  -0.135393D+03 -0.135370D+03 -0.135370D+03 -0.135316D+03 -0.135159D+03
      2  -0.101081D-05  0.000000D+00  0.117203D-05  0.425719D+00  0.978755D-01
      3   0.178026D+00  0.263661D-01  0.108744D-02  0.000000D+00  0.000000D+00
      4  -0.124013D+00 -0.108777D-02  0.263681D-01  0.000000D+00  0.000000D+00
      5   0.353730D-05  0.000000D+00 -0.428628D-05 -0.155997D+01 -0.433381D+00
      6  -0.548345D+00 -0.822014D-01 -0.339025D-02  0.173361D-05 -0.112090D-05
      7   0.381977D+00  0.339119D-02 -0.822075D-01  0.214177D-05  0.000000D+00
      8  -0.192151D-05  0.000000D+00  0.000000D+00  0.000000D+00  0.000000D+00
      9  -0.616953D+00 -0.207450D-02  0.502528D-01  0.000000D+00  0.413484D-05
     10  -0.885662D+00 -0.502468D-01 -0.207460D-02  0.000000D+00  0.451108D-05
     11   0.267286D-04  0.153944D-05 -0.123343D-04 -0.431788D+01 -0.272459D+01
     12  -0.339098D-01 -0.901602D+00  0.269050D+00  0.174480D+00  0.201909D+00
     13   0.339073D-01  0.901602D+00 -0.269049D+00  0.174481D+00  0.201907D+00
     14  -0.117814D+01 -0.130024D-01 -0.539494D-03  0.000000D+00  0.601000D-05
     15   0.820693D+00  0.540055D-03 -0.130046D-01  0.193135D-05  0.000000D+00
     16  -0.965017D-02  0.269051D+00  0.901598D+00 -0.143373D-05  0.000000D+00
               236           237           238 
      1  -0.135112D+03 -0.135112D+03 -0.134717D+03
      2   0.000000D+00  0.000000D+00  0.230572D-01
      3   0.719267D-01  0.332534D-01  0.000000D+00
      4  -0.332533D-01  0.719262D-01  0.000000D+00
      5   0.000000D+00  0.136166D-05 -0.182869D+00
      6  -0.251566D+00 -0.116305D+00  0.000000D+00
      7   0.116305D+00 -0.251565D+00  0.000000D+00
      8   0.000000D+00  0.000000D+00  0.000000D+00
      9  -0.174203D+00  0.376797D+00  0.135706D-05
     10  -0.376796D+00 -0.174203D+00  0.141501D-05
     11  -0.461291D-05  0.648191D-05 -0.132598D+00
     12   0.291608D-02  0.297951D-03 -0.231310D+00
     13  -0.291721D-02 -0.298259D-03 -0.231310D+00
     14   0.137328D+00  0.634902D-01  0.000000D+00
     15  -0.634897D-01  0.137328D+00  0.000000D+00
     16   0.298653D-03 -0.291819D-02  0.000000D+00
 Unable to Open any file for archive entry.
 1\1\GINC-HEL13\SP\RwB97XD TD-FC\def2SVP\C1H3F1\PRAKRITI\14-Aug-2021\0\
 \#P TD(Nstates=10000) wB97XD/def2SVP SCF(maxcycles=100) Int(Grid=ultra
 fine)\\xGDB7_00001_tier4.com\\0,1\C,0,-0.620492,0.000001,0.\F,0,0.7454
 29,0.,0.\H,0,-0.995303,-0.41599,0.948801\H,0,-0.995305,-0.613698,-0.83
 4655\H,0,-0.9953,1.029686,-0.114146\\Version=EM64L-G16RevC.01\State=1-
 A\HF=-139.5909503\RMSD=6.774e-09\PG=C01 [X(C1H3F1)]\\@
 The archive entry for this job was punched.


 A SLIP OF THE FOOT YOU MAY SOON RECOVER, BUT A SLIP OF THE TONGUE
 YOU MAY NEVER GET OVER. -- BEN FRANKLIN
 Job cpu time:       0 days  0 hours  0 minutes 50.8 seconds.
 Elapsed time:       0 days  0 hours  0 minutes  6.6 seconds.
 File lengths (MBytes):  RWF=     74 Int=      0 D2E=      0 Chk=     13 Scr=      1
 Normal termination of Gaussian 16 at Sat Aug 14 07:22:47 2021.
