 Entering Gaussian System, Link 0=g16
 Input=xGDB7_000009_TDDFT.com
 Output=xGDB7_000009_TDDFT.log
 Initial command:
 /home/prakriti/g16/l1.exe "/scratch/prakriti/PBS_7434519.helios/Gau-60053.inp" -scrdir="/scratch/prakriti/PBS_7434519.helios/"
 Entering Link 1 = /home/prakriti/g16/l1.exe PID=     60055.
  
 Copyright (c) 1988-2019, Gaussian, Inc.  All Rights Reserved.
  
 This is part of the Gaussian(R) 16 program.  It is based on
 the Gaussian(R) 09 system (copyright 2009, Gaussian, Inc.),
 the Gaussian(R) 03 system (copyright 2003, Gaussian, Inc.),
 the Gaussian(R) 98 system (copyright 1998, Gaussian, Inc.),
 the Gaussian(R) 94 system (copyright 1995, Gaussian, Inc.),
 the Gaussian 92(TM) system (copyright 1992, Gaussian, Inc.),
 the Gaussian 90(TM) system (copyright 1990, Gaussian, Inc.),
 the Gaussian 88(TM) system (copyright 1988, Gaussian, Inc.),
 the Gaussian 86(TM) system (copyright 1986, Carnegie Mellon
 University), and the Gaussian 82(TM) system (copyright 1983,
 Carnegie Mellon University). Gaussian is a federally registered
 trademark of Gaussian, Inc.
  
 This software contains proprietary and confidential information,
 including trade secrets, belonging to Gaussian, Inc.
  
 This software is provided under written license and may be
 used, copied, transmitted, or stored only in accord with that
 written license.
  
 The following legend is applicable only to US Government
 contracts under FAR:
  
                    RESTRICTED RIGHTS LEGEND
  
 Use, reproduction and disclosure by the US Government is
 subject to restrictions as set forth in subparagraphs (a)
 and (c) of the Commercial Computer Software - Restricted
 Rights clause in FAR 52.227-19.
  
 Gaussian, Inc.
 340 Quinnipiac St., Bldg. 40, Wallingford CT 06492
  
  
 ---------------------------------------------------------------
 Warning -- This program may not be used in any manner that
 competes with the business of Gaussian, Inc. or will provide
 assistance to any competitor of Gaussian, Inc.  The licensee
 of this program is prohibited from giving any competitor of
 Gaussian, Inc. access to this program.  By using this program,
 the user acknowledges that Gaussian, Inc. is engaged in the
 business of creating and licensing software in the field of
 computational chemistry and represents and warrants to the
 licensee that it is not a competitor of Gaussian, Inc. and that
 it will not use this program in any manner prohibited above.
 ---------------------------------------------------------------
  

 Cite this work as:
 Gaussian 16, Revision C.01,
 M. J. Frisch, G. W. Trucks, H. B. Schlegel, G. E. Scuseria, 
 M. A. Robb, J. R. Cheeseman, G. Scalmani, V. Barone, 
 G. A. Petersson, H. Nakatsuji, X. Li, M. Caricato, A. V. Marenich, 
 J. Bloino, B. G. Janesko, R. Gomperts, B. Mennucci, H. P. Hratchian, 
 J. V. Ortiz, A. F. Izmaylov, J. L. Sonnenberg, D. Williams-Young, 
 F. Ding, F. Lipparini, F. Egidi, J. Goings, B. Peng, A. Petrone, 
 T. Henderson, D. Ranasinghe, V. G. Zakrzewski, J. Gao, N. Rega, 
 G. Zheng, W. Liang, M. Hada, M. Ehara, K. Toyota, R. Fukuda, 
 J. Hasegawa, M. Ishida, T. Nakajima, Y. Honda, O. Kitao, H. Nakai, 
 T. Vreven, K. Throssell, J. A. Montgomery, Jr., J. E. Peralta, 
 F. Ogliaro, M. J. Bearpark, J. J. Heyd, E. N. Brothers, K. N. Kudin, 
 V. N. Staroverov, T. A. Keith, R. Kobayashi, J. Normand, 
 K. Raghavachari, A. P. Rendell, J. C. Burant, S. S. Iyengar, 
 J. Tomasi, M. Cossi, J. M. Millam, M. Klene, C. Adamo, R. Cammi, 
 J. W. Ochterski, R. L. Martin, K. Morokuma, O. Farkas, 
 J. B. Foresman, and D. J. Fox, Gaussian, Inc., Wallingford CT, 2019.
 
 ******************************************
 Gaussian 16:  EM64L-G16RevC.01  3-Jul-2019
                14-Aug-2021 
 ******************************************
 %mem=8gb
 %nproc=8
 Will use up to    8 processors via shared memory.
 ----------------------------------------------------------------------
 #P TD(Nstates=10000) wB97XD/def2SVP SCF(maxcycles=100) Int(Grid=ultraf
 ine)
 ----------------------------------------------------------------------
 1/38=1,172=1/1;
 2/12=2,17=6,18=5,40=1/2;
 3/5=43,7=101,11=9,25=1,30=1,74=-58,75=-5/1,2,3,8;
 4//1;
 5/5=2,7=100,38=5/2;
 8/6=1,10=1,108=10000/1;
 9/41=10000,42=1,70=2/14;
 6/7=2,8=2,9=2,10=2/1;
 99/5=1,9=1/99;
 Leave Link    1 at Sat Aug 14 23:27:20 2021, MaxMem=  1073741824 cpu:               0.4 elap:               0.1
 (Enter /home/prakriti/g16/l101.exe)
 ---------------------
 xGDB7_00001_tier4.com
 ---------------------
 Symbolic Z-matrix:
 Charge =  0 Multiplicity = 1
 9                     0.        0.        0.68846 
 9                     0.        0.       -0.68846 
 
 ITRead=  0  0
 MicOpt= -1 -1
 NAtoms=      2 NQM=        2 NQMF=       0 NMMI=      0 NMMIF=      0
                NMic=       0 NMicF=      0.
                    Isotopes and Nuclear Properties:
 (Nuclear quadrupole moments (NQMom) in fm**2, nuclear magnetic moments (NMagM)
  in nuclear magnetons)

  Atom         1           2
 IAtWgt=          19          19
 AtmWgt=  18.9984033  18.9984033
 NucSpn=           1           1
 AtZEff=  -0.0000000  -0.0000000
 NQMom=    0.0000000   0.0000000
 NMagM=    2.6288670   2.6288670
 AtZNuc=   9.0000000   9.0000000
 Leave Link  101 at Sat Aug 14 23:27:20 2021, MaxMem=  1073741824 cpu:               0.6 elap:               0.1
 (Enter /home/prakriti/g16/l202.exe)
                          Input orientation:                          
 ---------------------------------------------------------------------
 Center     Atomic      Atomic             Coordinates (Angstroms)
 Number     Number       Type             X           Y           Z
 ---------------------------------------------------------------------
      1          9           0        0.000000    0.000000    0.688459
      2          9           0        0.000000    0.000000   -0.688459
 ---------------------------------------------------------------------
 Stoichiometry    F2
 Framework group  D*H[C*(F.F)]
 Deg. of freedom     1
 Full point group                 D*H     NOp   8
 Largest Abelian subgroup         D2H     NOp   8
 Largest concise Abelian subgroup C2      NOp   2
                         Standard orientation:                         
 ---------------------------------------------------------------------
 Center     Atomic      Atomic             Coordinates (Angstroms)
 Number     Number       Type             X           Y           Z
 ---------------------------------------------------------------------
      1          9           0        0.000000    0.000000    0.688459
      2          9           0        0.000000    0.000000   -0.688459
 ---------------------------------------------------------------------
 Rotational constants (GHZ):           0.0000000          28.0616975          28.0616975
 Leave Link  202 at Sat Aug 14 23:27:20 2021, MaxMem=  1073741824 cpu:               0.1 elap:               0.0
 (Enter /home/prakriti/g16/l301.exe)
 Standard basis: def2SVP (5D, 7F)
 Ernie: Thresh=  0.10000D-02 Tol=  0.10000D-05 Strict=F.
 There are     8 symmetry adapted cartesian basis functions of AG  symmetry.
 There are     1 symmetry adapted cartesian basis functions of B1G symmetry.
 There are     3 symmetry adapted cartesian basis functions of B2G symmetry.
 There are     3 symmetry adapted cartesian basis functions of B3G symmetry.
 There are     1 symmetry adapted cartesian basis functions of AU  symmetry.
 There are     8 symmetry adapted cartesian basis functions of B1U symmetry.
 There are     3 symmetry adapted cartesian basis functions of B2U symmetry.
 There are     3 symmetry adapted cartesian basis functions of B3U symmetry.
 There are     7 symmetry adapted basis functions of AG  symmetry.
 There are     1 symmetry adapted basis functions of B1G symmetry.
 There are     3 symmetry adapted basis functions of B2G symmetry.
 There are     3 symmetry adapted basis functions of B3G symmetry.
 There are     1 symmetry adapted basis functions of AU  symmetry.
 There are     7 symmetry adapted basis functions of B1U symmetry.
 There are     3 symmetry adapted basis functions of B2U symmetry.
 There are     3 symmetry adapted basis functions of B3U symmetry.
    28 basis functions,    50 primitive gaussians,    30 cartesian basis functions
     9 alpha electrons        9 beta electrons
       nuclear repulsion energy        31.1299250097 Hartrees.
 IExCor= 4639 DFT=T Ex+Corr=wB97XD ExCW=0 ScaHFX=  1.000000
 ScaDFX=  1.000000  1.000000  1.000000  1.000000 ScalE2=  1.000000  1.000000
 IRadAn=      5 IRanWt=     -1 IRanGd=            0 ICorTp=0 IEmpDi=121
 HFx  wShort=  0.000000 wLong=  0.200000 cFull=  0.222036 cShort=  0.000000 cLong=  0.777964
 DFx  wShort=  0.000000 wLong=  0.200000 cFull=  0.000000 cShort=  0.000000 cLong=  1.000000
 NAtoms=    2 NActive=    2 NUniq=    1 SFac= 4.00D+00 NAtFMM=   60 NAOKFM=F Big=F
 Integral buffers will be    131072 words long.
 Raffenetti 1 integral format.
 Two-electron integral symmetry is turned on.
 R6Disp:  Grimme-D2 Dispersion energy=       -0.0000038353 Hartrees.
 Nuclear repulsion after empirical dispersion term =       31.1299211744 Hartrees.
 Leave Link  301 at Sat Aug 14 23:27:20 2021, MaxMem=  1073741824 cpu:               0.5 elap:               0.1
 (Enter /home/prakriti/g16/l302.exe)
 NPDir=0 NMtPBC=     1 NCelOv=     1 NCel=       1 NClECP=     1 NCelD=      1
         NCelK=      1 NCelE2=     1 NClLst=     1 CellRange=     0.0.
 One-electron integrals computed using PRISM.
 One-electron integral symmetry used in STVInt
   8 Symmetry operations used in ECPInt.
 ECPInt:  NShTT=      78 NPrTT=     326 LenC2=      79 LenP2D=     297.
 LDataN:  DoStor=T MaxTD1= 4 Len=   56
 NBasis=    28 RedAO= T EigKep=  4.50D-02  NBF=     7     1     3     3     1     7     3     3
 NBsUse=    28 1.00D-06 EigRej= -1.00D+00 NBFU=     7     1     3     3     1     7     3     3
 Precomputing XC quadrature grid using
 IXCGrd= 4 IRadAn=           5 IRanWt=          -1 IRanGd=           0 AccXCQ= 0.00D+00.
 Generated NRdTot=       0 NPtTot=           0 NUsed=           0 NTot=          32
 NSgBfM=    30    30    30    30    30 MxSgAt=     2 MxSgA2=     2.
 Leave Link  302 at Sat Aug 14 23:27:20 2021, MaxMem=  1073741824 cpu:               1.0 elap:               0.1
 (Enter /home/prakriti/g16/l303.exe)
 DipDrv:  MaxL=1.
 Leave Link  303 at Sat Aug 14 23:27:20 2021, MaxMem=  1073741824 cpu:               0.2 elap:               0.1
 (Enter /home/prakriti/g16/l308.exe)
 Leave Link  308 at Sat Aug 14 23:27:20 2021, MaxMem=  1073741824 cpu:               0.2 elap:               0.1
 (Enter /home/prakriti/g16/l401.exe)
 ExpMin= 3.32D-01 ExpMax= 2.89D+03 ExpMxC= 4.35D+02 IAcc=3 IRadAn=         5 AccDes= 0.00D+00
 Harris functional with IExCor= 4639 and IRadAn=       5 diagonalized for initial guess.
 HarFok:  IExCor= 4639 AccDes= 0.00D+00 IRadAn=         5 IDoV= 1 UseB2=F ITyADJ=14
 ICtDFT=  3500011 ScaDFX=  1.000000  1.000000  1.000000  1.000000
 FoFCou: FMM=F IPFlag=           0 FMFlag=      100000 FMFlg1=           0
         NFxFlg=           0 DoJE=T BraDBF=F KetDBF=T FulRan=T
         wScrn=  0.000000 ICntrl=       500 IOpCl=  0 I1Cent=   200000004 NGrid=           0
         NMat0=    1 NMatS0=      1 NMatT0=    0 NMatD0=    1 NMtDS0=    0 NMtDT0=    0
 Petite list used in FoFCou.
 Harris En= -193.400426640397    
 JPrj=0 DoOrth=F DoCkMO=F.
 Initial guess orbital symmetries:
       Occupied  (SGU) (SGG) (SGG) (SGU) (SGG) (PIU) (PIU) (PIG)
                 (PIG)
       Virtual   (SGU) (SGG) (SGU) (PIU) (PIU) (PIG) (PIG) (SGG)
                 (SGU) (SGG) (PIU) (PIU) (DLTG) (DLTG) (DLTU) (DLTU)
                 (PIG) (PIG) (SGU)
 The electronic state of the initial guess is 1-SGG.
 Leave Link  401 at Sat Aug 14 23:27:20 2021, MaxMem=  1073741824 cpu:               1.1 elap:               0.2
 (Enter /home/prakriti/g16/l502.exe)
 Keep R1 ints in memory in symmetry-blocked form, NReq=7089624.
 FoFCou: FMM=F IPFlag=           0 FMFlag=           0 FMFlg1=           0
         NFxFlg=           0 DoJE=F BraDBF=F KetDBF=F FulRan=T
         wScrn=  0.000000 ICntrl=       600 IOpCl=  0 I1Cent=           0 NGrid=           0
         NMat0=    1 NMatS0=    406 NMatT0=    0 NMatD0=    1 NMtDS0=    0 NMtDT0=    0
 Petite list used in FoFCou.
 Closed shell SCF:
 Using DIIS extrapolation, IDIIS=  1040.
 NGot=  1073741824 LenX=  1073724923 LenY=  1073723582
 Requested convergence on RMS density matrix=1.00D-08 within 100 cycles.
 Requested convergence on MAX density matrix=1.00D-06.
 Requested convergence on             energy=1.00D-06.
 No special actions if energy rises.
 Integral accuracy reduced to 1.0D-05 until final iterations.

 Cycle   1  Pass 0  IDiag  1:
 E= -199.139570871029    
 DIIS: error= 1.04D-01 at cycle   1 NSaved=   1.
 NSaved= 1 IEnMin= 1 EnMin= -199.139570871029     IErMin= 1 ErrMin= 1.04D-01
 ErrMax= 1.04D-01  0.00D+00 EMaxC= 1.00D-01 BMatC= 2.85D-01 BMatP= 2.85D-01
 IDIUse=3 WtCom= 0.00D+00 WtEn= 1.00D+00
 Coeff-Com:  0.100D+01
 Coeff-En:   0.100D+01
 Coeff:      0.100D+01
 Gap=     0.421 Goal=   None    Shift=    0.000
 GapD=    0.421 DampG=2.000 DampE=0.250 DampFc=0.5000 IDamp=-1.
 Damping current iteration by 5.00D-01
 RMSDP=1.74D-02 MaxDP=1.49D-01              OVMax= 1.03D-01

 Cycle   2  Pass 0  IDiag  1:
 E= -199.222764544555     Delta-E=       -0.083193673526 Rises=F Damp=T
 DIIS: error= 3.35D-02 at cycle   2 NSaved=   2.
 NSaved= 2 IEnMin= 2 EnMin= -199.222764544555     IErMin= 2 ErrMin= 3.35D-02
 ErrMax= 3.35D-02  0.00D+00 EMaxC= 1.00D-01 BMatC= 1.45D-02 BMatP= 2.85D-01
 IDIUse=3 WtCom= 6.65D-01 WtEn= 3.35D-01
 Coeff-Com: -0.250D+00 0.125D+01
 Coeff-En:   0.000D+00 0.100D+01
 Coeff:     -0.166D+00 0.117D+01
 Gap=     0.455 Goal=   None    Shift=    0.000
 RMSDP=2.32D-03 MaxDP=1.99D-02 DE=-8.32D-02 OVMax= 3.95D-02

 Cycle   3  Pass 0  IDiag  1:
 E= -199.287851124170     Delta-E=       -0.065086579616 Rises=F Damp=F
 DIIS: error= 2.69D-03 at cycle   3 NSaved=   3.
 NSaved= 3 IEnMin= 3 EnMin= -199.287851124170     IErMin= 3 ErrMin= 2.69D-03
 ErrMax= 2.69D-03  0.00D+00 EMaxC= 1.00D-01 BMatC= 2.13D-04 BMatP= 1.45D-02
 IDIUse=3 WtCom= 9.73D-01 WtEn= 2.69D-02
 Coeff-Com:  0.521D-01-0.120D+00 0.107D+01
 Coeff-En:   0.000D+00 0.000D+00 0.100D+01
 Coeff:      0.506D-01-0.116D+00 0.107D+01
 Gap=     0.456 Goal=   None    Shift=    0.000
 RMSDP=3.08D-04 MaxDP=2.46D-03 DE=-6.51D-02 OVMax= 2.08D-03

 Cycle   4  Pass 0  IDiag  1:
 E= -199.287982538066     Delta-E=       -0.000131413896 Rises=F Damp=F
 DIIS: error= 1.07D-04 at cycle   4 NSaved=   4.
 NSaved= 4 IEnMin= 4 EnMin= -199.287982538066     IErMin= 4 ErrMin= 1.07D-04
 ErrMax= 1.07D-04  0.00D+00 EMaxC= 1.00D-01 BMatC= 3.91D-07 BMatP= 2.13D-04
 IDIUse=3 WtCom= 9.99D-01 WtEn= 1.07D-03
 Coeff-Com:  0.362D-02-0.910D-02 0.971D-01 0.908D+00
 Coeff-En:   0.000D+00 0.000D+00 0.000D+00 0.100D+01
 Coeff:      0.361D-02-0.909D-02 0.970D-01 0.908D+00
 Gap=     0.456 Goal=   None    Shift=    0.000
 RMSDP=1.31D-05 MaxDP=1.39D-04 DE=-1.31D-04 OVMax= 2.02D-04

 Cycle   5  Pass 0  IDiag  1:
 E= -199.287982785942     Delta-E=       -0.000000247876 Rises=F Damp=F
 DIIS: error= 2.19D-05 at cycle   5 NSaved=   5.
 NSaved= 5 IEnMin= 5 EnMin= -199.287982785942     IErMin= 5 ErrMin= 2.19D-05
 ErrMax= 2.19D-05  0.00D+00 EMaxC= 1.00D-01 BMatC= 1.29D-08 BMatP= 3.91D-07
 IDIUse=1 WtCom= 1.00D+00 WtEn= 0.00D+00
 Coeff-Com: -0.211D-02 0.469D-02-0.400D-01 0.110D+00 0.927D+00
 Coeff:     -0.211D-02 0.469D-02-0.400D-01 0.110D+00 0.927D+00
 Gap=     0.456 Goal=   None    Shift=    0.000
 RMSDP=2.55D-06 MaxDP=2.91D-05 DE=-2.48D-07 OVMax= 1.24D-05

 Initial convergence to 1.0D-05 achieved.  Increase integral accuracy.
 Cycle   6  Pass 1  IDiag  1:
 E= -199.287969463492     Delta-E=        0.000013322451 Rises=F Damp=F
 DIIS: error= 1.49D-05 at cycle   1 NSaved=   1.
 NSaved= 1 IEnMin= 1 EnMin= -199.287969463492     IErMin= 1 ErrMin= 1.49D-05
 ErrMax= 1.49D-05  0.00D+00 EMaxC= 1.00D-01 BMatC= 4.62D-09 BMatP= 4.62D-09
 IDIUse=1 WtCom= 1.00D+00 WtEn= 0.00D+00
 Coeff-Com:  0.100D+01
 Coeff:      0.100D+01
 Gap=     0.456 Goal=   None    Shift=    0.000
 RMSDP=2.55D-06 MaxDP=2.91D-05 DE= 1.33D-05 OVMax= 1.67D-05

 Cycle   7  Pass 1  IDiag  1:
 E= -199.287969466040     Delta-E=       -0.000000002548 Rises=F Damp=F
 DIIS: error= 6.74D-06 at cycle   2 NSaved=   2.
 NSaved= 2 IEnMin= 2 EnMin= -199.287969466040     IErMin= 2 ErrMin= 6.74D-06
 ErrMax= 6.74D-06  0.00D+00 EMaxC= 1.00D-01 BMatC= 1.12D-09 BMatP= 4.62D-09
 IDIUse=1 WtCom= 1.00D+00 WtEn= 0.00D+00
 Coeff-Com:  0.296D+00 0.704D+00
 Coeff:      0.296D+00 0.704D+00
 Gap=     0.456 Goal=   None    Shift=    0.000
 RMSDP=8.10D-07 MaxDP=6.40D-06 DE=-2.55D-09 OVMax= 5.34D-06

 Cycle   8  Pass 1  IDiag  1:
 E= -199.287969466706     Delta-E=       -0.000000000667 Rises=F Damp=F
 DIIS: error= 1.28D-06 at cycle   3 NSaved=   3.
 NSaved= 3 IEnMin= 3 EnMin= -199.287969466706     IErMin= 3 ErrMin= 1.28D-06
 ErrMax= 1.28D-06  0.00D+00 EMaxC= 1.00D-01 BMatC= 3.31D-11 BMatP= 1.12D-09
 IDIUse=1 WtCom= 1.00D+00 WtEn= 0.00D+00
 Coeff-Com: -0.446D-01 0.887D-01 0.956D+00
 Coeff:     -0.446D-01 0.887D-01 0.956D+00
 Gap=     0.456 Goal=   None    Shift=    0.000
 RMSDP=1.57D-07 MaxDP=1.27D-06 DE=-6.67D-10 OVMax= 1.07D-06

 Cycle   9  Pass 1  IDiag  1:
 E= -199.287969466728     Delta-E=       -0.000000000022 Rises=F Damp=F
 DIIS: error= 6.14D-08 at cycle   4 NSaved=   4.
 NSaved= 4 IEnMin= 4 EnMin= -199.287969466728     IErMin= 4 ErrMin= 6.14D-08
 ErrMax= 6.14D-08  0.00D+00 EMaxC= 1.00D-01 BMatC= 8.68D-14 BMatP= 3.31D-11
 IDIUse=1 WtCom= 1.00D+00 WtEn= 0.00D+00
 Coeff-Com: -0.465D-02 0.173D-02 0.648D-01 0.938D+00
 Coeff:     -0.465D-02 0.173D-02 0.648D-01 0.938D+00
 Gap=     0.456 Goal=   None    Shift=    0.000
 RMSDP=4.27D-09 MaxDP=2.03D-08 DE=-2.22D-11 OVMax= 1.87D-08

 SCF Done:  E(RwB97XD) =  -199.287969467     A.U. after    9 cycles
            NFock=  9  Conv=0.43D-08     -V/T= 2.0039
 KE= 1.985065752418D+02 PE=-5.384426260327D+02 EE= 1.095181601498D+02
 Leave Link  502 at Sat Aug 14 23:27:21 2021, MaxMem=  1073741824 cpu:               1.8 elap:               0.3
 (Enter /home/prakriti/g16/l801.exe)
 DoSCS=F DFT=T ScalE2(SS,OS)=  1.000000  1.000000
 ExpMin= 3.32D-01 ExpMax= 2.89D+03 ExpMxC= 4.35D+02 IAcc=3 IRadAn=         5 AccDes= 0.00D+00
 HarFok:  IExCor=  205 AccDes= 0.00D+00 IRadAn=         5 IDoV=-2 UseB2=F ITyADJ=14
 ICtDFT= 12500011 ScaDFX=  1.000000  1.000000  1.000000  1.000000
 Largest valence mixing into a core orbital is  3.57D-05
 Largest core mixing into a valence orbital is  2.41D-05
 Range of M.O.s used for correlation:     3    28
 NBasis=    28 NAE=     9 NBE=     9 NFC=     2 NFV=     0
 NROrb=     26 NOA=     7 NOB=     7 NVA=    19 NVB=    19
 Leave Link  801 at Sat Aug 14 23:27:21 2021, MaxMem=  1073741824 cpu:               0.3 elap:               0.1
 (Enter /home/prakriti/g16/l914.exe)
 RHF ground state
 Keep R1, R2, and R3 ints in memory in symmetry-blocked form, NReq=27008852.
 FoFCou: FMM=F IPFlag=           0 FMFlag=           0 FMFlg1=           0
         NFxFlg=           0 DoJE=F BraDBF=F KetDBF=F FulRan=T
         wScrn=  0.000000 ICntrl=       600 IOpCl=  0 I1Cent=           0 NGrid=           0
         NMat0=    1 NMatS0=    406 NMatT0=    0 NMatD0=    1 NMtDS0=    0 NMtDT0=    0
 Petite list used in FoFCou.
 MDV=  1073741824 DFT=T DoStab=F Mixed=T DoRPA=T DoScal=F NonHer=T
 Making orbital integer symmetry assigments:
 Orbital symmetries:
       Occupied  (SGU) (SGG) (SGG) (SGU) (SGG) (PIU) (PIU) (PIG)
                 (PIG)
       Virtual   (SGU) (SGG) (PIU) (PIU) (SGU) (PIG) (PIG) (SGG)
                 (SGU) (SGG) (PIU) (PIU) (DLTG) (DLTG) (DLTU) (DLTU)
                 (PIG) (PIG) (SGU)
   133 initial guesses have been made.
 Convergence on wavefunction:    0.001000000000000
 Davidson Disk Diagonalization:  ConvIn= 1.00D-03 SkipCon=T Conv= 1.00D-03.
 Max sub-space:   798 roots to seek:   266 dimension of matrix:          266
 *** WARNING: Number of orthogonal guesses is          133
 Iteration     1 Dimension   133 NMult     0 NNew    133
 CISAX will form   133 AO SS matrices at one time.
 NMat=   133 NSing=   133 JSym2X=-1.
 New state      3 was old state      4
 New state      4 was old state      3
 New state      8 was old state      9
 New state      9 was old state      8
 New state     12 was old state     13
 New state     13 was old state     15
 New state     15 was old state     18
 New state     16 was old state     19
 New state     17 was old state     21
 New state     18 was old state     31
 New state     19 was old state     16
 New state     20 was old state     17
 New state     21 was old state     22
 New state     22 was old state     23
 New state     23 was old state     24
 New state     24 was old state     29
 New state     25 was old state     30
 New state     26 was old state     27
 New state     27 was old state     25
 New state     28 was old state     26
 New state     29 was old state     28
 New state     30 was old state     37
 New state     31 was old state     32
 New state     32 was old state     33
 New state     33 was old state     34
 New state     34 was old state     35
 New state     35 was old state     36
 New state     36 was old state     44
 New state     37 was old state     39
 New state     39 was old state     40
 New state     40 was old state     41
 New state     41 was old state     43
 New state     43 was old state     47
 New state     44 was old state     50
 New state     47 was old state     48
 New state     48 was old state     49
 New state     49 was old state     51
 New state     50 was old state     54
 New state     51 was old state     58
 New state     54 was old state     57
 New state     57 was old state     61
 No map to state     58
 New state     61 was old state     62
 No map to state     62
 New state     64 was old state     65
 New state     65 was old state     64
 New state     66 was old state     67
 New state     67 was old state     66
 New state     68 was old state     69
 New state     69 was old state     71
 New state     71 was old state     68
 New state     73 was old state     75
 New state     75 was old state     76
 New state     76 was old state     77
 New state     77 was old state     78
 New state     78 was old state     79
 New state     79 was old state     80
 New state     80 was old state     83
 New state     81 was old state     84
 New state     82 was old state     73
 New state     83 was old state     81
 New state     84 was old state     82
 New state     87 was old state     89
 New state     88 was old state     90
 New state     89 was old state     91
 New state     90 was old state     92
 New state     91 was old state     93
 New state     92 was old state     94
 New state     93 was old state     97
 New state     94 was old state     98
 New state     95 was old state     96
 New state     96 was old state     95
 New state     97 was old state     99
 New state     98 was old state    104
 New state     99 was old state    102
 New state    100 was old state    105
 New state    102 was old state    100
 New state    103 was old state     87
 New state    104 was old state     88
 New state    105 was old state    107
 New state    107 was old state    109
 New state    108 was old state    103
 New state    109 was old state    108
 New state    110 was old state    115
 New state    111 was old state    116
 New state    113 was old state    114
 New state    114 was old state    113
 New state    115 was old state    110
 New state    116 was old state    111
 New state    123 was old state    124
 New state    124 was old state    123
 New state    125 was old state    126
 New state    126 was old state    125
 New state    129 was old state    130
 New state    130 was old state    129
 Excitation Energies [eV] at current iteration:
 Root      1 :     4.977523076293559
 Root      2 :     4.977523076293575
 Root      3 :     8.872052823068616
 Root      4 :     8.872052823068874
 Root      5 :    15.744691317454550
 Root      6 :    25.648048037459220
 Root      7 :    32.756094329208560
 Root      8 :    36.140593196797420
 Root      9 :    36.140593196798720
 Root     10 :    36.313464106987690
 Root     11 :    36.417388272779280
 Root     12 :    36.417421170049880
 Root     13 :    36.841468928032410
 Root     14 :    36.841468928032590
 Root     15 :    39.708959921623460
 Root     16 :    39.892165281327790
 Root     17 :    39.892185648317130
 Root     18 :    40.127279191286290
 Root     19 :    40.542131504415490
 Root     20 :    40.542131504416390
 Root     21 :    40.956201206223500
 Root     22 :    40.956201206223600
 Root     23 :    41.571449655332030
 Root     24 :    41.994544340462050
 Root     25 :    41.994544340462130
 Root     26 :    42.241482199337340
 Root     27 :    42.241500750657970
 Root     28 :    42.297976958608590
 Root     29 :    42.315564873442700
 Root     30 :    43.890699980266140
 Root     31 :    44.703760034038020
 Root     32 :    44.703760034038100
 Root     33 :    45.652584377207520
 Root     34 :    45.652615421400640
 Root     35 :    45.699641564041370
 Root     36 :    46.569777505517390
 Root     37 :    47.045644192914030
 Root     38 :    47.045644192914060
 Root     39 :    48.703345023025580
 Root     40 :    48.703345023025650
 Root     41 :    50.701889424247560
 Root     42 :    50.701889424249090
 Root     43 :    50.821582328861710
 Root     44 :    53.448429512696720
 Root     45 :    54.382376684956670
 Root     46 :    54.382376684958050
 Root     47 :    55.609911962266420
 Root     48 :    55.609911962266960
 Root     49 :    55.962984975610950
 Root     50 :    57.938932698114140
 Root     51 :    60.110740731692030
 Root     52 :    60.520345447534180
 Root     53 :    60.520345447534880
 Root     54 :    62.865953374009560
 Root     55 :    63.035698111271590
 Root     56 :    63.035698111272080
 Root     57 :    64.332000136828360
 Root     58 :    64.587563762874790
 Root     59 :    67.967585495694560
 Root     60 :    67.967585495694890
 Root     61 :    70.229568236644950
 Root     62 :    72.635288870149850
 Root     63 :    77.897015002159110
 Root     64 :    80.712413930816000
 Root     65 :    80.712413930816070
 Root     66 :    80.916193516339360
 Root     67 :    80.916196627818210
 Root     68 :    80.950445448591440
 Root     69 :    84.418486324739110
 Root     70 :    84.418486324739190
 Root     71 :    84.563989041338120
 Root     72 :    84.841395385589560
 Root     73 :    84.859873880175000
 Root     74 :    84.859921041976900
 Root     75 :    85.545048327622080
 Root     76 :    87.146410368883270
 Root     77 :    87.146410368883470
 Root     78 :    88.420182503560280
 Root     79 :    88.420182503560410
 Root     80 :    90.615295045274990
 Root     81 :    90.615295045274990
 Root     82 :    91.159107518758770
 Root     83 :    91.537551156570940
 Root     84 :    91.537551156571000
 Root     85 :    93.348704756205550
 Root     86 :    93.348704756205620
 Root     87 :    93.469569334204820
 Root     88 :    93.469569334204910
 Root     89 :    94.136668385756890
 Root     90 :    94.136739961670270
 Root     91 :    95.623980993369630
 Root     92 :    95.623980993369660
 Root     93 :    96.897772100106680
 Root     94 :    96.897860143045920
 Root     95 :    98.343667054734130
 Root     96 :    98.343667054734280
 Root     97 :    99.915828611268150
 Root     98 :   100.565635234211600
 Root     99 :   100.565639301539400
 Root    100 :   100.600292622337200
 Root    101 :   100.821833128408300
 Root    102 :   100.821833128408300
 Root    103 :   100.890502477627700
 Root    104 :   100.890502477627700
 Root    105 :   104.415561428435900
 Root    106 :   104.415566092657900
 Root    107 :   104.499744785886600
 Root    108 :   105.485751709422800
 Root    109 :   107.371017635996400
 Root    110 :   108.246372888688100
 Root    111 :   108.246464154446200
 Root    112 :   108.255692993551600
 Root    113 :   108.509605850974100
 Root    114 :   108.509605850974200
 Root    115 :   108.537796954145000
 Root    116 :   108.537796954145000
 Root    117 :   111.105969396006400
 Root    118 :   111.106063777826500
 Root    119 :   115.507400375253400
 Root    120 :   115.507477002784100
 Root    121 :   118.153381970232100
 Root    122 :   118.153473847845800
 Root    123 :   120.071393456849200
 Root    124 :   120.071393456849300
 Root    125 :   125.390665561486300
 Root    126 :   125.390665561486800
 Root    127 :   127.038131233654200
 Root    128 :   127.038131233654300
 Root    129 :   129.127091816269500
 Root    130 :   129.127091816269700
 Root    131 :   131.498248424905500
 Root    132 :   143.944851271559100
 Root    133 :   150.986718588325400
 Convergence achieved for final wavefunctions.
 ***********************************************************************
 Excited states from <AA,BB:AA,BB> singles matrix:
 ***********************************************************************
 
 1PDM for each excited state written to RWF  633
 Ground to excited state transition densities written to RWF  633
 Ground to excited state transition electric dipole moments (Au):
       state          X           Y           Z        Dip. S.      Osc.
         1         0.0313      0.0075      0.0000      0.0010      0.0001
         2        -0.0075      0.0313      0.0000      0.0010      0.0001
         3         0.0000     -0.0000      0.0000      0.0000      0.0000
         4        -0.0000     -0.0000      0.0000      0.0000      0.0000
         5         0.0000     -0.0000     -1.4794      2.1886      0.8442
         6         0.0000     -0.0000     -0.0000      0.0000      0.0000
         7         0.0000      0.0000     -0.0717      0.0051      0.0041
         8         0.0000      0.0000     -0.0000      0.0000      0.0000
         9         0.0000     -0.0000      0.0000      0.0000      0.0000
        10         0.0000     -0.0000      0.0000      0.0000      0.0000
        11        -0.0000      0.0000     -0.0000      0.0000      0.0000
        12         0.0000      0.0000      0.0000      0.0000      0.0000
        13         0.1005      0.3505     -0.0000      0.1329      0.1200
        14         0.3505     -0.1005      0.0000      0.1329      0.1200
        15        -0.0000      0.0000      0.0000      0.0000      0.0000
        16        -0.0000     -0.0000      0.0000      0.0000      0.0000
        17        -0.0000      0.0000     -0.0000      0.0000      0.0000
        18        -0.0000     -0.0000      0.6347      0.4029      0.3961
        19        -0.4427      0.0179     -0.0000      0.1963      0.1950
        20        -0.0179     -0.4427     -0.0000      0.1963      0.1950
        21        -0.0000     -0.0000      0.0000      0.0000      0.0000
        22         0.0000     -0.0000     -0.0000      0.0000      0.0000
        23        -0.0000      0.0000      0.0000      0.0000      0.0000
        24         0.0423      0.0687      0.0000      0.0065      0.0067
        25         0.0687     -0.0423      0.0000      0.0065      0.0067
        26         0.0000     -0.0000      0.0000      0.0000      0.0000
        27        -0.0000     -0.0000      0.0000      0.0000      0.0000
        28         0.0000      0.0000      0.0000      0.0000      0.0000
        29        -0.0000      0.0000     -0.0000      0.0000      0.0000
        30         0.0000      0.0000     -0.0367      0.0013      0.0014
        31        -0.0000     -0.0000     -0.0000      0.0000      0.0000
        32         0.0000     -0.0000      0.0000      0.0000      0.0000
        33        -0.0000      0.0000      0.0000      0.0000      0.0000
        34        -0.0000      0.0000      0.0000      0.0000      0.0000
        35        -0.0000     -0.0000     -0.0000      0.0000      0.0000
        36         0.0000     -0.0000     -0.0000      0.0000      0.0000
        37         0.0000      0.0000      0.0000      0.0000      0.0000
        38         0.0000     -0.0000      0.0000      0.0000      0.0000
        39        -0.3564     -0.0650     -0.0000      0.1313      0.1566
        40         0.0650     -0.3564      0.0000      0.1313      0.1566
        41         0.0119      0.4161      0.0000      0.1733      0.2152
        42         0.4161     -0.0119     -0.0000      0.1733      0.2152
        43         0.0000     -0.0000     -0.1554      0.0241      0.0301
        44         0.0000     -0.0000      0.0000      0.0000      0.0000
        45         0.0000     -0.0000     -0.0000      0.0000      0.0000
        46        -0.0000     -0.0000     -0.0000      0.0000      0.0000
        47        -0.0000      0.0000      0.0000      0.0000      0.0000
        48         0.0000      0.0000     -0.0000      0.0000      0.0000
        49         0.0000     -0.0000     -0.2269      0.0515      0.0706
        50         0.0000     -0.0000      0.0000      0.0000      0.0000
        51        -0.0000      0.0000      0.2981      0.0889      0.1309
        52        -0.4693      0.0701     -0.0000      0.2252      0.3338
        53        -0.0701     -0.4693      0.0000      0.2252      0.3338
        54         0.0000     -0.0000     -0.3982      0.1585      0.2442
        55        -0.0401     -0.2697      0.0000      0.0744      0.1148
        56        -0.2697      0.0401     -0.0000      0.0744      0.1148
        57        -0.0000      0.0000     -0.0000      0.0000      0.0000
        58         0.0000     -0.0000     -0.0720      0.0052      0.0082
        59        -0.0000     -0.0000     -0.0000      0.0000      0.0000
        60        -0.0000     -0.0000     -0.0000      0.0000      0.0000
        61         0.0000     -0.0000      0.0000      0.0000      0.0000
        62        -0.0000     -0.0000     -0.0000      0.0000      0.0000
        63         0.0000     -0.0000      0.0295      0.0009      0.0017
        64        -0.0000     -0.0000      0.0000      0.0000      0.0000
        65        -0.0000     -0.0000      0.0000      0.0000      0.0000
        66        -0.0000      0.0000      0.0000      0.0000      0.0000
        67        -0.0000      0.0000      0.0000      0.0000      0.0000
        68        -0.0000     -0.0000     -0.0000      0.0000      0.0000
        69        -0.0367      0.0160      0.0000      0.0016      0.0033
        70        -0.0160     -0.0367     -0.0000      0.0016      0.0033
        71        -0.0000     -0.0000      1.0001      1.0001      2.0720
        72        -0.0000     -0.0000      0.0000      0.0000      0.0000
        73         0.0000     -0.0000      0.0000      0.0000      0.0000
        74         0.0000     -0.0000      0.0000      0.0000      0.0000
        75         0.0000      0.0000     -0.0000      0.0000      0.0000
        76        -0.0105      0.1607      0.0000      0.0259      0.0554
        77         0.1607      0.0105     -0.0000      0.0259      0.0554
        78         0.0000      0.0000      0.0000      0.0000      0.0000
        79         0.0000      0.0000     -0.0000      0.0000      0.0000
        80         0.0000      0.0000     -0.0000      0.0000      0.0000
        81         0.0000     -0.0000      0.0000      0.0000      0.0000
        82        -0.0000      0.0000      0.0000      0.0000      0.0000
        83        -0.0000     -0.0000      0.0000      0.0000      0.0000
        84         0.0000      0.0000     -0.0000      0.0000      0.0000
        85         0.0501      0.0477     -0.0000      0.0048      0.0109
        86        -0.0477      0.0501      0.0000      0.0048      0.0109
        87         0.0000      0.0000     -0.0000      0.0000      0.0000
        88        -0.0000      0.0000      0.0000      0.0000      0.0000
        89         0.0000     -0.0000     -0.0000      0.0000      0.0000
        90         0.0000     -0.0000      0.0000      0.0000      0.0000
        91        -0.0000     -0.0000     -0.0000      0.0000      0.0000
        92        -0.0000      0.0000     -0.0000      0.0000      0.0000
        93         0.0000     -0.0000     -0.0000      0.0000      0.0000
        94         0.0000     -0.0000     -0.0000      0.0000      0.0000
        95         0.0000     -0.0000     -0.0000      0.0000      0.0000
        96        -0.0000     -0.0000      0.0000      0.0000      0.0000
        97         0.0000      0.0000      0.0522      0.0027      0.0067
        98         0.0000     -0.0000      0.0000      0.0000      0.0000
        99         0.0000      0.0000      0.0000      0.0000      0.0000
       100         0.0000     -0.0000     -0.0000      0.0000      0.0000
       101         0.0000      0.0000     -0.0000      0.0000      0.0000
       102         0.0000     -0.0000      0.0000      0.0000      0.0000
       103         1.2193      0.0092     -0.0000      1.4867      3.6748
       104         0.0092     -1.2193      0.0000      1.4867      3.6748
       105         0.0000     -0.0000      0.0000      0.0000      0.0000
       106        -0.0000      0.0000     -0.0000      0.0000      0.0000
       107         0.0000      0.0000      0.0000      0.0000      0.0000
       108        -0.0000      0.0000     -0.0000      0.0000      0.0000
       109         0.0000      0.0000      0.5345      0.2857      0.7517
       110        -0.0000      0.0000     -0.0000      0.0000      0.0000
       111         0.0000      0.0000     -0.0000      0.0000      0.0000
       112         0.0000     -0.0000     -0.0000      0.0000      0.0000
       113         0.2419     -0.1855     -0.0000      0.0929      0.2471
       114         0.1855      0.2419     -0.0000      0.0929      0.2471
       115         0.0000     -0.0000     -0.0000      0.0000      0.0000
       116         0.0000      0.0000      0.0000      0.0000      0.0000
       117         0.0000     -0.0000      0.0000      0.0000      0.0000
       118        -0.0000      0.0000     -0.0000      0.0000      0.0000
       119        -0.0000      0.0000     -0.0000      0.0000      0.0000
       120         0.0000     -0.0000     -0.0000      0.0000      0.0000
       121        -0.0000     -0.0000     -0.0000      0.0000      0.0000
       122         0.0000     -0.0000      0.0000      0.0000      0.0000
       123        -0.0177     -0.0130     -0.0000      0.0005      0.0014
       124         0.0130     -0.0177     -0.0000      0.0005      0.0014
       125        -0.0655     -0.2265     -0.0000      0.0556      0.1708
       126        -0.2265      0.0655     -0.0000      0.0556      0.1708
       127         0.0000     -0.0000      0.0000      0.0000      0.0000
       128         0.0000      0.0000      0.0000      0.0000      0.0000
       129         0.0000      0.0000      0.0000      0.0000      0.0000
       130        -0.0000     -0.0000      0.0000      0.0000      0.0000
       131         0.0000      0.0000      0.3011      0.0907      0.2921
       132         0.0000      0.0000      0.0000      0.0000      0.0000
       133         0.0000      0.0000      0.0252      0.0006      0.0023
 Ground to excited state transition velocity dipole moments (Au):
       state          X           Y           Z        Dip. S.      Osc.
         1         0.0084      0.0020     -0.0000      0.0001      0.0003
         2        -0.0020      0.0084     -0.0000      0.0001      0.0003
         3        -0.0000      0.0000     -0.0000      0.0000      0.0000
         4         0.0000      0.0000     -0.0000      0.0000      0.0000
         5         0.0000      0.0000      0.8569      0.7343      0.8460
         6        -0.0000      0.0000     -0.0000      0.0000      0.0000
         7        -0.0000     -0.0000      0.0155      0.0002      0.0001
         8        -0.0000     -0.0000      0.0000      0.0000      0.0000
         9        -0.0000      0.0000     -0.0000      0.0000      0.0000
        10        -0.0000     -0.0000     -0.0000      0.0000      0.0000
        11         0.0000     -0.0000      0.0000      0.0000      0.0000
        12        -0.0000     -0.0000     -0.0000      0.0000      0.0000
        13        -0.1110     -0.3871      0.0000      0.1622      0.0799
        14        -0.3871      0.1110     -0.0000      0.1622      0.0799
        15         0.0000     -0.0000     -0.0000      0.0000      0.0000
        16         0.0000      0.0000     -0.0000      0.0000      0.0000
        17         0.0000      0.0000      0.0000      0.0000      0.0000
        18         0.0000      0.0000     -0.8391      0.7041      0.3183
        19         0.5234     -0.0212      0.0000      0.2743      0.1228
        20         0.0212      0.5234      0.0000      0.2743      0.1228
        21         0.0000      0.0000     -0.0000      0.0000      0.0000
        22        -0.0000      0.0000      0.0000      0.0000      0.0000
        23        -0.0000     -0.0000     -0.0000      0.0000      0.0000
        24        -0.0960     -0.1560     -0.0000      0.0336      0.0145
        25        -0.1560      0.0960      0.0000      0.0336      0.0145
        26        -0.0000      0.0000      0.0000      0.0000      0.0000
        27         0.0000      0.0000     -0.0000      0.0000      0.0000
        28        -0.0000     -0.0000     -0.0000      0.0000      0.0000
        29         0.0000     -0.0000      0.0000      0.0000      0.0000
        30        -0.0000     -0.0000     -0.0340      0.0012      0.0005
        31         0.0000      0.0000     -0.0000      0.0000      0.0000
        32        -0.0000      0.0000      0.0000      0.0000      0.0000
        33         0.0000     -0.0000      0.0000      0.0000      0.0000
        34         0.0000     -0.0000      0.0000      0.0000      0.0000
        35        -0.0000      0.0000      0.0000      0.0000      0.0000
        36        -0.0000      0.0000      0.0000      0.0000      0.0000
        37        -0.0000      0.0000      0.0000      0.0000      0.0000
        38         0.0000      0.0000     -0.0000      0.0000      0.0000
        39         0.4989      0.0910      0.0000      0.2572      0.0958
        40        -0.0910      0.4989     -0.0000      0.2572      0.0958
        41        -0.0197     -0.6915     -0.0000      0.4786      0.1712
        42        -0.6915      0.0197      0.0000      0.4786      0.1712
        43        -0.0000      0.0000      0.1556      0.0242      0.0086
        44        -0.0000      0.0000     -0.0000      0.0000      0.0000
        45         0.0000      0.0000      0.0000      0.0000      0.0000
        46         0.0000     -0.0000      0.0000      0.0000      0.0000
        47         0.0000      0.0000     -0.0000      0.0000      0.0000
        48        -0.0000     -0.0000      0.0000      0.0000      0.0000
        49        -0.0000      0.0000      0.3844      0.1478      0.0479
        50        -0.0000      0.0000     -0.0000      0.0000      0.0000
        51         0.0000     -0.0000     -0.5686      0.3233      0.0976
        52         1.0798     -0.1614      0.0000      1.1919      0.3573
        53         0.1614      1.0798     -0.0000      1.1919      0.3573
        54        -0.0000      0.0000      1.0173      1.0350      0.2987
        55         0.0915      0.6154     -0.0000      0.3871      0.1114
        56         0.6154     -0.0915      0.0000      0.3871      0.1114
        57         0.0000     -0.0000      0.0000      0.0000      0.0000
        58        -0.0000      0.0000      0.2008      0.0403      0.0113
        59        -0.0000      0.0000      0.0000      0.0000      0.0000
        60         0.0000      0.0000      0.0000      0.0000      0.0000
        61        -0.0000      0.0000     -0.0000      0.0000      0.0000
        62         0.0000      0.0000      0.0000      0.0000      0.0000
        63        -0.0000      0.0000     -0.1836      0.0337      0.0078
        64         0.0000      0.0000     -0.0000      0.0000      0.0000
        65         0.0000      0.0000     -0.0000      0.0000      0.0000
        66         0.0000      0.0000     -0.0000      0.0000      0.0000
        67         0.0000     -0.0000     -0.0000      0.0000      0.0000
        68         0.0000      0.0000      0.0000      0.0000      0.0000
        69         0.0957     -0.0417     -0.0000      0.0109      0.0023
        70         0.0417      0.0957      0.0000      0.0109      0.0023
        71         0.0000      0.0000     -2.1335      4.5518      0.9765
        72         0.0000      0.0000     -0.0000      0.0000      0.0000
        73        -0.0000     -0.0000     -0.0000      0.0000      0.0000
        74        -0.0000      0.0000     -0.0000      0.0000      0.0000
        75        -0.0000     -0.0000      0.0000      0.0000      0.0000
        76         0.0243     -0.3706     -0.0000      0.1379      0.0287
        77        -0.3706     -0.0243     -0.0000      0.1379      0.0287
        78        -0.0000     -0.0000     -0.0000      0.0000      0.0000
        79        -0.0000     -0.0000      0.0000      0.0000      0.0000
        80        -0.0000     -0.0000     -0.0000      0.0000      0.0000
        81        -0.0000      0.0000     -0.0000      0.0000      0.0000
        82         0.0000     -0.0000     -0.0000      0.0000      0.0000
        83         0.0000      0.0000     -0.0000      0.0000      0.0000
        84        -0.0000     -0.0000      0.0000      0.0000      0.0000
        85        -0.2176     -0.2070      0.0000      0.0902      0.0175
        86         0.2070     -0.2176     -0.0000      0.0902      0.0175
        87        -0.0001     -0.0001      0.0000      0.0000      0.0000
        88         0.0001     -0.0001     -0.0000      0.0000      0.0000
        89        -0.0000      0.0000      0.0000      0.0000      0.0000
        90        -0.0000      0.0000     -0.0000      0.0000      0.0000
        91         0.0000      0.0000     -0.0000      0.0000      0.0000
        92         0.0000     -0.0000      0.0000      0.0000      0.0000
        93        -0.0000      0.0000      0.0000      0.0000      0.0000
        94        -0.0000      0.0000      0.0000      0.0000      0.0000
        95        -0.0000      0.0000     -0.0000      0.0000      0.0000
        96         0.0000      0.0000      0.0000      0.0000      0.0000
        97        -0.0000     -0.0000     -0.1763      0.0311      0.0056
        98        -0.0000      0.0000      0.0000      0.0000      0.0000
        99        -0.0000     -0.0000     -0.0000      0.0000      0.0000
       100        -0.0000      0.0000      0.0000      0.0000      0.0000
       101        -0.0000     -0.0000      0.0000      0.0000      0.0000
       102        -0.0000      0.0000     -0.0000      0.0000      0.0000
       103        -3.2089     -0.0243      0.0000     10.2979      1.8516
       104        -0.0243      3.2089     -0.0000     10.2979      1.8516
       105        -0.0000      0.0000     -0.0000      0.0000      0.0000
       106         0.0000     -0.0000      0.0000      0.0000      0.0000
       107        -0.0000     -0.0000     -0.0000      0.0000      0.0000
       108         0.0000     -0.0000      0.0000      0.0000      0.0000
       109        -0.0000     -0.0000     -1.8056      3.2601      0.5508
       110         0.0000     -0.0000      0.0000      0.0000      0.0000
       111        -0.0000     -0.0000      0.0000      0.0000      0.0000
       112        -0.0000      0.0000      0.0000      0.0000      0.0000
       113        -0.6821      0.5231      0.0000      0.7389      0.1235
       114        -0.5231     -0.6821      0.0000      0.7389      0.1235
       115        -0.0000      0.0000      0.0000      0.0000      0.0000
       116        -0.0000     -0.0000     -0.0000      0.0000      0.0000
       117        -0.0000      0.0000     -0.0000      0.0000      0.0000
       118         0.0000     -0.0000      0.0000      0.0000      0.0000
       119         0.0000     -0.0000      0.0000      0.0000      0.0000
       120        -0.0000      0.0000      0.0000      0.0000      0.0000
       121         0.0000      0.0000      0.0000      0.0000      0.0000
       122        -0.0000      0.0000     -0.0000      0.0000      0.0000
       123         0.0486      0.0358      0.0000      0.0036      0.0005
       124        -0.0358      0.0486     -0.0000      0.0036      0.0005
       125         0.2597      0.8984     -0.0000      0.8745      0.1265
       126         0.8984     -0.2597     -0.0000      0.8745      0.1265
       127         0.0000      0.0000      0.0000      0.0000      0.0000
       128        -0.0000     -0.0000     -0.0000      0.0000      0.0000
       129        -0.0000     -0.0000     -0.0000      0.0000      0.0000
       130         0.0000      0.0000     -0.0000      0.0000      0.0000
       131        -0.0000     -0.0000     -1.5050      2.2651      0.3125
       132        -0.0000     -0.0000      0.0000      0.0000      0.0000
       133        -0.0000     -0.0000     -0.2981      0.0888      0.0107
 Ground to excited state transition magnetic dipole moments (Au):
       state          X           Y           Z
         1        -0.0000      0.0000      0.0000
         2         0.0000     -0.0000      0.0000
         3         1.0443     -0.0479     -0.0000
         4        -0.0479     -1.0443      0.0000
         5         0.0000      0.0000     -0.0000
         6         0.0000      0.0000      0.0000
         7        -0.0000     -0.0000     -0.0000
         8        -1.0162     -0.0128     -0.0000
         9        -0.0128      1.0162     -0.0000
        10        -0.0000      0.0000      0.0000
        11        -0.0000      0.0000     -0.0000
        12        -0.0000      0.0000      0.0000
        13         0.0000      0.0000     -0.0000
        14         0.0000     -0.0000      0.0000
        15        -0.0000      0.0000     -0.0000
        16        -0.0000     -0.0000      0.0000
        17         0.0000     -0.0000     -0.0000
        18         0.0000     -0.0000      0.0000
        19         0.0000     -0.0000     -0.0000
        20        -0.0000      0.0000      0.0000
        21        -0.0019     -0.0057     -0.0000
        22         0.0057     -0.0019      0.0000
        23        -0.0000      0.0000     -0.0000
        24        -0.0000     -0.0000     -0.0000
        25        -0.0000      0.0000      0.0000
        26        -0.0000     -0.0000     -0.0000
        27        -0.0000     -0.0000     -0.0000
        28        -0.0000     -0.0000      0.0000
        29        -0.0000      0.0000     -0.0000
        30        -0.0000      0.0000     -0.0000
        31         0.1900      0.7130      0.0000
        32        -0.7130      0.1900     -0.0000
        33         0.0000      0.0000     -0.0000
        34        -0.0000     -0.0000      0.0000
        35         0.0000     -0.0000     -0.0000
        36        -0.0000     -0.0000     -0.0000
        37         0.6909     -0.3360      0.0000
        38        -0.3360     -0.6909     -0.0000
        39         0.0000     -0.0000      0.0000
        40         0.0000      0.0000      0.0000
        41         0.0000     -0.0000     -0.0000
        42         0.0000      0.0000      0.0000
        43         0.0000     -0.0000     -0.0000
        44        -0.0000      0.0000      0.0000
        45        -0.0015     -0.8102      0.0000
        46         0.8102     -0.0015     -0.0000
        47        -1.1910     -0.1606     -0.0000
        48        -0.1606      1.1910     -0.0000
        49        -0.0000      0.0000      0.0000
        50         0.0000      0.0000      0.0000
        51         0.0000     -0.0000     -0.0000
        52        -0.0000      0.0000     -0.0000
        53        -0.0000      0.0000      0.0000
        54        -0.0000     -0.0000      0.0000
        55         0.0000     -0.0000      0.0000
        56         0.0000      0.0000     -0.0000
        57         0.0000      0.0000     -0.0000
        58        -0.0000      0.0000      0.0000
        59        -0.1795      0.8987     -0.0000
        60        -0.8987     -0.1795     -0.0000
        61         0.0000      0.0000     -0.0000
        62        -0.0000      0.0000     -0.0000
        63        -0.0000      0.0000      0.0000
        64        -0.3716     -0.2221     -0.0000
        65        -0.2221      0.3716     -0.0000
        66        -0.0000      0.0000     -0.0000
        67        -0.0000      0.0000     -0.0000
        68        -0.0000     -0.0000      0.0000
        69        -0.0000      0.0000     -0.0000
        70         0.0000      0.0000      0.0000
        71        -0.0000      0.0000     -0.0000
        72         0.0000     -0.0000      0.0000
        73         0.0000     -0.0000     -0.0000
        74         0.0000     -0.0000      0.0000
        75        -0.0000     -0.0000     -0.0000
        76         0.0000     -0.0000     -0.0000
        77        -0.0000     -0.0000     -0.0000
        78         0.0000      0.0000      0.0000
        79         0.0000     -0.0000      0.0000
        80         0.0000     -0.0000     -0.0000
        81        -0.0000      0.0000      0.0000
        82        -0.0000      0.0000     -0.0000
        83        -0.8529     -1.8074     -0.0000
        84        -1.8074      0.8529     -0.0000
        85        -0.0000     -0.0000     -0.0000
        86        -0.0000      0.0000     -0.0000
        87         0.0000     -0.0000     -0.0000
        88        -0.0000      0.0000     -0.0000
        89         0.0000      0.0000     -0.0000
        90        -0.0000     -0.0000      0.0000
        91        -0.0000     -0.0000     -0.0000
        92         0.0000     -0.0000      0.0000
        93         0.0000     -0.0000      0.0000
        94        -0.0000     -0.0000     -0.0000
        95        -0.4310     -2.1814     -0.0000
        96        -2.1814      0.4310     -0.0000
        97        -0.0000      0.0000     -0.0000
        98        -0.0000      0.0000      0.0000
        99         0.0000      0.0000      0.0000
       100         0.0000      0.0000      0.0000
       101        -0.2528      1.1254     -0.0000
       102        -1.1254     -0.2528     -0.0000
       103         0.0000      0.0000     -0.0000
       104        -0.0000      0.0000      0.0000
       105        -0.0000      0.0000      0.0000
       106         0.0000     -0.0000     -0.0000
       107         0.0000     -0.0000     -0.0000
       108        -0.0000      0.0000     -0.0000
       109        -0.0000      0.0000     -0.0000
       110         0.0000     -0.0000     -0.0000
       111        -0.0000     -0.0000     -0.0000
       112         0.0000     -0.0000      0.0000
       113        -0.0000     -0.0000      0.0000
       114        -0.0000      0.0000     -0.0000
       115         1.8752      1.8234      0.0000
       116         1.8234     -1.8752      0.0000
       117         0.0000     -0.0000      0.0000
       118         0.0000     -0.0000     -0.0000
       119        -0.0000      0.0000     -0.0000
       120         0.0000     -0.0000     -0.0000
       121        -0.0000     -0.0000     -0.0000
       122        -0.0000      0.0000      0.0000
       123        -0.0000      0.0000      0.0000
       124        -0.0000      0.0000      0.0000
       125         0.0000     -0.0000      0.0000
       126         0.0000     -0.0000     -0.0000
       127         0.3328     -0.0273      0.0000
       128        -0.0273     -0.3328     -0.0000
       129         0.1239      1.0138      0.0000
       130        -1.0138      0.1239     -0.0000
       131        -0.0000     -0.0000     -0.0000
       132         0.0000     -0.0000      0.0000
       133        -0.0000      0.0000     -0.0000
 Ground to excited state transition velocity quadrupole moments (Au):
       state          XX          YY          ZZ          XY          XZ          YZ
         1         0.0000      0.0000     -0.0000      0.0000      0.0000      0.0000
         2         0.0000      0.0000      0.0000      0.0000      0.0000     -0.0000
         3        -0.0000     -0.0000      0.0000      0.0000      0.0027      0.0588
         4        -0.0000      0.0000      0.0000     -0.0000      0.0588     -0.0027
         5         0.0000      0.0000     -0.0000     -0.0000      0.0000      0.0000
         6         0.0590      0.0590     -1.6693     -0.0000      0.0000     -0.0000
         7         0.0000      0.0000      0.0000     -0.0000      0.0000     -0.0000
         8        -0.0000     -0.0000     -0.0000      0.0000     -0.0127      1.0058
         9         0.0000      0.0000      0.0000     -0.0000      1.0058      0.0127
        10         0.0000     -0.0000      0.0000     -0.0000      0.0000      0.0000
        11         0.0000      0.0000      0.0000      0.0000      0.0000      0.0000
        12         0.0000     -0.0000     -0.0000     -0.0000      0.0000      0.0000
        13        -0.0000      0.0000     -0.0000      0.0000      0.0000     -0.0000
        14         0.0000     -0.0000      0.0000      0.0000     -0.0000     -0.0000
        15        -0.0000      0.0000      0.0000     -0.0000     -0.0000     -0.0000
        16         0.9709     -0.9709      0.0000      0.0000     -0.0000      0.0000
        17         0.0000     -0.0000     -0.0000     -0.9709     -0.0000     -0.0000
        18        -0.0000      0.0000     -0.0000      0.0000      0.0000     -0.0000
        19         0.0000     -0.0000     -0.0000      0.0000     -0.0000     -0.0000
        20        -0.0000      0.0000      0.0000     -0.0000      0.0000      0.0000
        21        -0.0000      0.0000     -0.0000      0.0000     -0.5497      0.1821
        22         0.0000     -0.0000      0.0000      0.0000     -0.1821     -0.5497
        23        -0.2164     -0.2164      2.0267      0.0000     -0.0000      0.0000
        24         0.0000     -0.0000     -0.0000     -0.0000      0.0000      0.0000
        25        -0.0000      0.0000      0.0000      0.0000      0.0000      0.0000
        26         0.0000     -0.0000      0.0000     -0.2689     -0.0000     -0.0000
        27        -0.2688      0.2688      0.0000     -0.0000      0.0000     -0.0000
        28         0.0000     -0.0000     -0.0000     -0.0000      0.0000      0.0000
        29         0.0323      0.0323     -0.1665     -0.0000      0.0000      0.0000
        30        -0.0000     -0.0000     -0.0000     -0.0000     -0.0000     -0.0000
        31         0.0000      0.0000     -0.0000     -0.0000     -0.0561      0.0150
        32        -0.0000     -0.0000     -0.0000     -0.0000     -0.0150     -0.0561
        33        -0.0000     -0.0000      0.0000      0.0000      0.0000     -0.0000
        34         0.0000      0.0000     -0.0000     -0.0000      0.0000      0.0000
        35         0.0000     -0.0000     -0.0000      0.0000     -0.0000     -0.0000
        36         1.1460      1.1460     -0.0807      0.0000     -0.0000      0.0000
        37         0.0000      0.0000     -0.0000      0.0000     -0.4700     -0.9662
        38        -0.0000     -0.0000      0.0000      0.0000     -0.9662      0.4700
        39         0.0000      0.0000      0.0000     -0.0000     -0.0000     -0.0000
        40        -0.0000     -0.0000      0.0000     -0.0000      0.0000     -0.0000
        41         0.0000      0.0000      0.0000      0.0000     -0.0000     -0.0000
        42        -0.0000     -0.0000      0.0000      0.0000      0.0000      0.0000
        43        -0.0000     -0.0000     -0.0000      0.0000     -0.0000      0.0000
        44        -0.7231     -0.7231     -0.9602      0.0000      0.0000      0.0000
        45        -0.0000     -0.0000     -0.0000      0.0000     -0.9535      0.0018
        46         0.0000      0.0000     -0.0000      0.0000     -0.0018     -0.9535
        47         0.0000      0.0000      0.0000     -0.0000     -0.1332      0.9877
        48        -0.0000     -0.0000     -0.0000     -0.0000      0.9877      0.1332
        49         0.0000      0.0000      0.0000     -0.0000      0.0000      0.0000
        50         0.9548      0.9548      3.8210     -0.0000      0.0000     -0.0000
        51        -0.0000     -0.0000     -0.0000      0.0000      0.0000      0.0000
        52        -0.0000     -0.0000      0.0000     -0.0000      0.0000     -0.0000
        53        -0.0000     -0.0000     -0.0000     -0.0000      0.0000      0.0000
        54         0.0000      0.0000      0.0000     -0.0000      0.0000      0.0000
        55        -0.0000     -0.0000     -0.0000      0.0000     -0.0000     -0.0000
        56         0.0000      0.0000      0.0000     -0.0000      0.0000     -0.0000
        57        -1.2471     -1.2471     -2.9450     -0.0000     -0.0000     -0.0000
        58         0.0000      0.0000      0.0000      0.0000     -0.0000      0.0000
        59        -0.0000     -0.0000     -0.0000     -0.0000      1.2726      0.2541
        60         0.0000      0.0000     -0.0000     -0.0000     -0.2541      1.2726
        61         1.0400      1.0400      0.4882      0.0000      0.0000     -0.0000
        62        -2.0537     -2.0537      1.0710      0.0000      0.0000      0.0000
        63         0.0000     -0.0000      0.0000     -0.0000     -0.0000      0.0000
        64        -0.0000     -0.0000     -0.0000     -0.0000     -0.2164      0.3621
        65         0.0000      0.0000      0.0000     -0.0000      0.3621      0.2164
        66         0.0000     -0.0000      0.0000     -0.0000      0.0000      0.0000
        67        -0.0000      0.0000      0.0000      0.0000      0.0000      0.0000
        68         0.0000      0.0000      0.0000      0.0000     -0.0000      0.0000
        69        -0.0000     -0.0000      0.0000     -0.0000      0.0000      0.0000
        70         0.0000      0.0000      0.0000     -0.0000      0.0000     -0.0000
        71        -0.0000     -0.0000     -0.0000      0.0000      0.0000      0.0000
        72         0.0000     -0.0000     -0.0000     -0.0000      0.0000     -0.0000
        73         0.1016     -0.1016     -0.0000      0.0000     -0.0000     -0.0000
        74         0.0000     -0.0000     -0.0000     -0.1016     -0.0000     -0.0000
        75         0.4870      0.4870      0.0939      0.0000     -0.0000      0.0000
        76         0.0000      0.0000      0.0000      0.0000     -0.0000     -0.0000
        77         0.0000      0.0000     -0.0000     -0.0000     -0.0000      0.0000
        78        -0.0000     -0.0000     -0.0000      0.0000      0.0000     -0.0000
        79        -0.0000     -0.0000     -0.0000     -0.0000     -0.0000     -0.0000
        80        -0.0000     -0.0000     -0.0000     -0.0000     -0.0000     -0.0000
        81        -0.0000     -0.0000     -0.0000      0.0000      0.0000      0.0000
        82        -0.2924     -0.2924     -4.8444      0.0000      0.0000      0.0000
        83        -0.0000     -0.0000     -0.0000     -0.0000     -1.4432      0.6810
        84         0.0000      0.0000      0.0000     -0.0000      0.6810      1.4432
        85        -0.0000      0.0000      0.0000      0.0000     -0.0000      0.0000
        86        -0.0000      0.0000     -0.0000     -0.0000      0.0000      0.0000
        87        -0.0000      0.0000     -0.0000      0.0000     -0.0000      0.0000
        88         0.0000     -0.0000      0.0000     -0.0000      0.0000      0.0000
        89        -0.0000      0.0000     -0.0000     -0.2781      0.0000     -0.0000
        90        -0.2781      0.2781      0.0000      0.0000     -0.0000      0.0000
        91        -0.0000      0.0000      0.0000     -0.0000     -0.0000      0.0000
        92         0.0000     -0.0000      0.0000     -0.0000     -0.0000     -0.0000
        93        -0.0000     -0.0000     -0.0000      0.0000     -0.0000     -0.0000
        94        -0.0000      0.0000      0.0000     -0.0000      0.0000      0.0000
        95         0.0000     -0.0000      0.0000     -0.0000     -1.7330      0.3424
        96         0.0000     -0.0000      0.0000     -0.0000      0.3424      1.7330
        97         0.0000      0.0000     -0.0000     -0.0000      0.0000      0.0000
        98        -0.2005      0.2005      0.0000      0.0000      0.0000      0.0000
        99         0.0000     -0.0000     -0.0000      0.2005      0.0000     -0.0000
       100        -0.0000      0.0000     -0.0000     -0.0000      0.0000     -0.0000
       101         0.0000     -0.0000      0.0000     -0.0000      2.2655      0.5088
       102         0.0000     -0.0000      0.0000      0.0000     -0.5088      2.2655
       103         0.0000     -0.0000     -0.0000     -0.0000      0.0000     -0.0000
       104         0.0000     -0.0000     -0.0000     -0.0000      0.0000      0.0000
       105         0.0000      0.0000     -0.0000     -0.0000      0.0000      0.0000
       106         0.0000      0.0000     -0.0000     -0.0000     -0.0000     -0.0000
       107        -0.0000     -0.0000      0.0000     -0.0000     -0.0000     -0.0000
       108         0.5585      0.5585     -6.5191     -0.0000      0.0000      0.0000
       109         0.0000     -0.0000     -0.0000      0.0000      0.0000      0.0000
       110         0.0000      0.0000      0.0000      0.0000     -0.0000     -0.0000
       111         0.0000      0.0000      0.0000      0.0000     -0.0000      0.0000
       112        -0.2206     -0.2206     -4.1241     -0.0000     -0.0000     -0.0000
       113         0.0000      0.0000      0.0000     -0.0000     -0.0000      0.0000
       114         0.0000      0.0000     -0.0000      0.0000      0.0000      0.0000
       115        -0.0000     -0.0000     -0.0000      0.0000      2.2749     -2.3395
       116         0.0000      0.0000      0.0000     -0.0000     -2.3395     -2.2749
       117         0.0000     -0.0000     -0.0000      1.1473     -0.0000     -0.0000
       118         1.1473     -1.1473      0.0000     -0.0000     -0.0000     -0.0000
       119        -0.0000      0.0000      0.0000      1.0143      0.0000      0.0000
       120         1.0144     -1.0144      0.0000      0.0000     -0.0000     -0.0000
       121         0.0000     -0.0000      0.0000     -0.0000     -0.0000      0.0000
       122         0.0000     -0.0000     -0.0000     -0.0000      0.0000      0.0000
       123        -0.0000      0.0000      0.0000     -0.0000      0.0000      0.0000
       124         0.0000     -0.0000     -0.0000     -0.0000      0.0000      0.0000
       125         0.0000      0.0000      0.0000      0.0000     -0.0000     -0.0000
       126        -0.0000      0.0000      0.0000     -0.0000     -0.0000     -0.0000
       127        -0.0000      0.0000     -0.0000     -0.0000      0.0238      0.2910
       128         0.0000     -0.0000     -0.0000      0.0000      0.2910     -0.0238
       129        -0.0000     -0.0000      0.0000      0.0000      1.2252     -0.1497
       130        -0.0000      0.0000      0.0000      0.0000      0.1497      1.2252
       131        -0.0000     -0.0000      0.0000     -0.0000     -0.0000      0.0000
       132        -0.1954     -0.1954      1.0234     -0.0000     -0.0000     -0.0000
       133         0.0000      0.0000      0.0000     -0.0000     -0.0000      0.0000
 <0|del|b> * <b|rxdel|0> + <0|del|b> * <b|delr+rdel|0>
 Rotatory Strengths (R) in cgs (10**-40 erg-esu-cm/Gauss)
       state          XX          YY          ZZ    R(velocity)    E-M Angle
         1        -0.0000      0.0000     -0.0000     -0.0000       90.00
         2        -0.0000     -0.0000     -0.0000     -0.0000       90.00
         3        -0.0000     -0.0000     -0.0000     -0.0000       90.00
         4        -0.0000     -0.0000     -0.0000     -0.0000       90.00
         5        -0.0000      0.0000      0.0000      0.0000       90.00
         6        -0.0000     -0.0000      0.0000      0.0000       90.00
         7        -0.0000      0.0000      0.0000      0.0000       90.00
         8         0.0000      0.0000      0.0000      0.0000       90.00
         9         0.0000      0.0000      0.0000      0.0000       90.00
        10        -0.0000      0.0000     -0.0000     -0.0000       90.00
        11         0.0000     -0.0000     -0.0000     -0.0000       90.00
        12        -0.0000      0.0000      0.0000      0.0000       90.00
        13         0.0000      0.0000     -0.0000     -0.0000       90.00
        14         0.0000      0.0000     -0.0000     -0.0000       90.00
        15        -0.0000     -0.0000     -0.0000     -0.0000       90.00
        16        -0.0000      0.0000     -0.0000     -0.0000       90.00
        17        -0.0000      0.0000      0.0000      0.0000       90.00
        18        -0.0000      0.0000      0.0000     -0.0000       90.00
        19         0.0000     -0.0000      0.0000      0.0000       90.00
        20        -0.0000      0.0000      0.0000      0.0000       90.00
        21         0.0000      0.0000     -0.0000     -0.0000       90.00
        22         0.0000      0.0000     -0.0000     -0.0000       90.00
        23        -0.0000      0.0000      0.0000      0.0000       90.00
        24         0.0000     -0.0000      0.0000      0.0000       90.00
        25        -0.0000      0.0000      0.0000      0.0000       90.00
        26        -0.0000      0.0000     -0.0000     -0.0000       90.00
        27         0.0000     -0.0000      0.0000     -0.0000       90.00
        28         0.0000     -0.0000      0.0000      0.0000       90.00
        29         0.0000     -0.0000     -0.0000     -0.0000       90.00
        30         0.0000     -0.0000     -0.0000     -0.0000       90.00
        31         0.0000      0.0000      0.0000      0.0000       90.00
        32         0.0000      0.0000      0.0000      0.0000       90.00
        33        -0.0000      0.0000      0.0000      0.0000       90.00
        34         0.0000     -0.0000      0.0000      0.0000       90.00
        35        -0.0000      0.0000     -0.0000     -0.0000       90.00
        36        -0.0000     -0.0000      0.0000      0.0000       90.00
        37         0.0000      0.0000     -0.0000     -0.0000       90.00
        38         0.0000      0.0000     -0.0000     -0.0000       90.00
        39         0.0000     -0.0000      0.0000      0.0000       90.00
        40        -0.0000      0.0000      0.0000      0.0000       90.00
        41        -0.0000      0.0000      0.0000      0.0000       90.00
        42         0.0000     -0.0000      0.0000     -0.0000       90.00
        43         0.0000     -0.0000     -0.0000     -0.0000       90.00
        44        -0.0000      0.0000      0.0000      0.0000       90.00
        45         0.0000      0.0000     -0.0000     -0.0000       90.00
        46        -0.0000     -0.0000      0.0000      0.0000       90.00
        47        -0.0000     -0.0000     -0.0000     -0.0000       90.00
        48        -0.0000      0.0000     -0.0000     -0.0000       90.00
        49        -0.0000      0.0000      0.0000      0.0000       90.00
        50        -0.0000      0.0000     -0.0000     -0.0000       90.00
        51        -0.0000      0.0000     -0.0000      0.0000       90.00
        52        -0.0000     -0.0000     -0.0000     -0.0000       90.00
        53         0.0000     -0.0000      0.0000      0.0000       90.00
        54        -0.0000      0.0000      0.0000      0.0000       90.00
        55        -0.0000     -0.0000     -0.0000     -0.0000       90.00
        56         0.0000     -0.0000      0.0000      0.0000       90.00
        57        -0.0000      0.0000      0.0000      0.0000       90.00
        58         0.0000     -0.0000      0.0000      0.0000       90.00
        59        -0.0000     -0.0000      0.0000      0.0000       90.00
        60         0.0000      0.0000     -0.0000     -0.0000       90.00
        61        -0.0000      0.0000      0.0000      0.0000       90.00
        62         0.0000     -0.0000     -0.0000     -0.0000       90.00
        63         0.0000     -0.0000      0.0000      0.0000       90.00
        64        -0.0000     -0.0000     -0.0000     -0.0000       90.00
        65         0.0000     -0.0000      0.0000      0.0000       90.00
        66         0.0000     -0.0000      0.0000      0.0000       90.00
        67        -0.0000      0.0000     -0.0000     -0.0000       90.00
        68         0.0000      0.0000     -0.0000     -0.0000       90.00
        69        -0.0000     -0.0000     -0.0000     -0.0000       90.00
        70        -0.0000      0.0000      0.0000      0.0000       90.00
        71        -0.0000      0.0000      0.0000      0.0000       90.00
        72         0.0000     -0.0000      0.0000      0.0000       90.00
        73        -0.0000      0.0000     -0.0000     -0.0000       90.00
        74         0.0000     -0.0000     -0.0000     -0.0000       90.00
        75         0.0000     -0.0000      0.0000      0.0000       90.00
        76         0.0000      0.0000      0.0000      0.0000       90.00
        77         0.0000      0.0000      0.0000      0.0000       90.00
        78        -0.0000     -0.0000     -0.0000     -0.0000       90.00
        79         0.0000     -0.0000      0.0000      0.0000       90.00
        80         0.0000     -0.0000      0.0000      0.0000       90.00
        81         0.0000      0.0000      0.0000      0.0000       90.00
        82        -0.0000     -0.0000     -0.0000     -0.0000       90.00
        83        -0.0000     -0.0000     -0.0000     -0.0000       90.00
        84        -0.0000      0.0000      0.0000      0.0000       90.00
        85         0.0000      0.0000      0.0000      0.0000       90.00
        86         0.0000     -0.0000     -0.0000     -0.0000       90.00
        87         0.0000     -0.0000      0.0000      0.0000       90.00
        88        -0.0000      0.0000     -0.0000     -0.0000       90.00
        89        -0.0000      0.0000     -0.0000     -0.0000       90.00
        90        -0.0000      0.0000     -0.0000     -0.0000       90.00
        91        -0.0000     -0.0000     -0.0000     -0.0000       90.00
        92         0.0000      0.0000      0.0000      0.0000       90.00
        93        -0.0000      0.0000     -0.0000     -0.0000       90.00
        94        -0.0000     -0.0000      0.0000      0.0000       90.00
        95        -0.0000      0.0000     -0.0000     -0.0000       90.00
        96         0.0000     -0.0000     -0.0000     -0.0000       90.00
        97         0.0000     -0.0000      0.0000      0.0000       90.00
        98         0.0000     -0.0000      0.0000      0.0000       90.00
        99        -0.0000      0.0000     -0.0000     -0.0000       90.00
       100        -0.0000      0.0000     -0.0000     -0.0000       90.00
       101         0.0000     -0.0000     -0.0000     -0.0000       90.00
       102         0.0000     -0.0000      0.0000      0.0000       90.00
       103         0.0000      0.0000     -0.0000     -0.0000       90.00
       104        -0.0000     -0.0000      0.0000      0.0000       90.00
       105        -0.0000     -0.0000      0.0000      0.0000       90.00
       106         0.0000     -0.0000      0.0000      0.0000       90.00
       107        -0.0000      0.0000     -0.0000     -0.0000       90.00
       108         0.0000      0.0000     -0.0000     -0.0000       90.00
       109        -0.0000      0.0000     -0.0000      0.0000       90.00
       110        -0.0000     -0.0000      0.0000      0.0000       90.00
       111        -0.0000     -0.0000      0.0000      0.0000       90.00
       112         0.0000      0.0000     -0.0000     -0.0000       90.00
       113         0.0000     -0.0000      0.0000      0.0000       90.00
       114         0.0000     -0.0000      0.0000      0.0000       90.00
       115        -0.0000      0.0000     -0.0000     -0.0000       90.00
       116        -0.0000      0.0000      0.0000      0.0000       90.00
       117        -0.0000      0.0000     -0.0000     -0.0000       90.00
       118        -0.0000      0.0000      0.0000      0.0000       90.00
       119         0.0000     -0.0000     -0.0000     -0.0000       90.00
       120         0.0000     -0.0000     -0.0000     -0.0000       90.00
       121         0.0000      0.0000     -0.0000     -0.0000       90.00
       122         0.0000     -0.0000      0.0000      0.0000       90.00
       123        -0.0000      0.0000     -0.0000     -0.0000       90.00
       124        -0.0000     -0.0000      0.0000      0.0000       90.00
       125         0.0000     -0.0000     -0.0000     -0.0000       90.00
       126        -0.0000     -0.0000      0.0000      0.0000       90.00
       127        -0.0000      0.0000      0.0000      0.0000       90.00
       128         0.0000      0.0000      0.0000      0.0000       90.00
       129         0.0000      0.0000     -0.0000     -0.0000       90.00
       130        -0.0000      0.0000      0.0000      0.0000       90.00
       131         0.0000     -0.0000      0.0000      0.0000       90.00
       132        -0.0000      0.0000      0.0000      0.0000       90.00
       133         0.0000     -0.0000      0.0000      0.0000       90.00
 1/2[<0|r|b>*<b|rxdel|0> + (<0|rxdel|b>*<b|r|0>)*]
 Rotatory Strengths (R) in cgs (10**-40 erg-esu-cm/Gauss)
       state          XX          YY          ZZ     R(length)
         1         0.0000     -0.0000     -0.0000      0.0000
         2         0.0000      0.0000     -0.0000      0.0000
         3        -0.0000     -0.0000      0.0000     -0.0000
         4        -0.0000     -0.0000     -0.0000     -0.0000
         5        -0.0000      0.0000     -0.0000     -0.0000
         6        -0.0000      0.0000      0.0000      0.0000
         7         0.0000      0.0000     -0.0000      0.0000
         8         0.0000      0.0000     -0.0000      0.0000
         9         0.0000      0.0000      0.0000      0.0000
        10         0.0000      0.0000     -0.0000      0.0000
        11        -0.0000     -0.0000     -0.0000     -0.0000
        12         0.0000     -0.0000     -0.0000      0.0000
        13        -0.0000     -0.0000     -0.0000     -0.0000
        14        -0.0000     -0.0000     -0.0000     -0.0000
        15        -0.0000     -0.0000      0.0000     -0.0000
        16        -0.0000     -0.0000     -0.0000     -0.0000
        17         0.0000      0.0000     -0.0000      0.0000
        18         0.0000     -0.0000     -0.0000     -0.0000
        19         0.0000      0.0000     -0.0000      0.0000
        20        -0.0000      0.0000      0.0000      0.0000
        21        -0.0000     -0.0000      0.0000     -0.0000
        22        -0.0000     -0.0000      0.0000     -0.0000
        23        -0.0000     -0.0000      0.0000     -0.0000
        24         0.0000      0.0000      0.0000      0.0000
        25         0.0000      0.0000     -0.0000      0.0000
        26         0.0000     -0.0000      0.0000     -0.0000
        27        -0.0000     -0.0000      0.0000     -0.0000
        28         0.0000      0.0000     -0.0000      0.0000
        29        -0.0000     -0.0000     -0.0000     -0.0000
        30         0.0000     -0.0000     -0.0000     -0.0000
        31         0.0000      0.0000      0.0000      0.0000
        32         0.0000      0.0000      0.0000      0.0000
        33         0.0000     -0.0000      0.0000      0.0000
        34        -0.0000      0.0000     -0.0000      0.0000
        35         0.0000     -0.0000     -0.0000     -0.0000
        36         0.0000     -0.0000     -0.0000      0.0000
        37        -0.0000      0.0000     -0.0000     -0.0000
[...]
      5   0.000000D+00  0.000000D+00  0.000000D+00  0.000000D+00  0.000000D+00
      6   0.000000D+00  0.000000D+00  0.000000D+00  0.000000D+00  0.000000D+00
      7   0.000000D+00  0.000000D+00 -0.183585D+00  0.000000D+00  0.000000D+00
      8   0.000000D+00  0.000000D+00  0.000000D+00 -0.371639D+00 -0.222138D+00
      9   0.000000D+00  0.000000D+00  0.000000D+00 -0.222138D+00  0.371639D+00
     10   0.000000D+00  0.000000D+00  0.000000D+00  0.000000D+00  0.000000D+00
     11   0.104004D+01 -0.205368D+01  0.000000D+00  0.000000D+00  0.000000D+00
     12   0.104004D+01 -0.205368D+01  0.000000D+00  0.000000D+00  0.000000D+00
     13   0.488241D+00  0.107099D+01  0.000000D+00  0.000000D+00  0.000000D+00
     14   0.000000D+00  0.000000D+00  0.000000D+00  0.000000D+00  0.000000D+00
     15   0.000000D+00  0.000000D+00  0.000000D+00 -0.216422D+00  0.362076D+00
     16   0.000000D+00  0.000000D+00  0.000000D+00  0.362076D+00  0.216422D+00
                66            67            68            69            70 
      1  -0.196314D+03 -0.196314D+03 -0.196313D+03 -0.196186D+03 -0.196186D+03
      2   0.000000D+00  0.000000D+00  0.000000D+00 -0.367288D-01 -0.160237D-01
      3   0.000000D+00  0.000000D+00  0.000000D+00  0.160237D-01 -0.367288D-01
      4   0.000000D+00  0.000000D+00  0.000000D+00  0.000000D+00  0.000000D+00
      5   0.000000D+00  0.000000D+00  0.000000D+00  0.956902D-01  0.417469D-01
      6   0.000000D+00  0.000000D+00  0.000000D+00 -0.417469D-01  0.956902D-01
      7   0.000000D+00  0.000000D+00  0.000000D+00  0.000000D+00  0.000000D+00
      8   0.000000D+00  0.000000D+00  0.000000D+00  0.000000D+00  0.000000D+00
      9   0.000000D+00  0.000000D+00  0.000000D+00  0.000000D+00  0.000000D+00
     10   0.000000D+00  0.000000D+00  0.000000D+00  0.000000D+00  0.000000D+00
     11   0.000000D+00  0.000000D+00  0.000000D+00  0.000000D+00  0.000000D+00
     12   0.000000D+00  0.000000D+00  0.000000D+00  0.000000D+00  0.000000D+00
     13   0.000000D+00  0.000000D+00  0.000000D+00  0.000000D+00  0.000000D+00
     14   0.000000D+00  0.000000D+00  0.000000D+00  0.000000D+00  0.000000D+00
     15   0.000000D+00  0.000000D+00  0.000000D+00  0.000000D+00  0.000000D+00
     16   0.000000D+00  0.000000D+00  0.000000D+00  0.000000D+00  0.000000D+00
                71            72            73            74            75 
      1  -0.196180D+03 -0.196170D+03 -0.196169D+03 -0.196169D+03 -0.196144D+03
      2   0.000000D+00  0.000000D+00  0.000000D+00  0.000000D+00  0.000000D+00
      3   0.000000D+00  0.000000D+00  0.000000D+00  0.000000D+00  0.000000D+00
      4   0.100006D+01  0.000000D+00  0.000000D+00  0.000000D+00  0.000000D+00
      5   0.000000D+00  0.000000D+00  0.000000D+00  0.000000D+00  0.000000D+00
      6   0.000000D+00  0.000000D+00  0.000000D+00  0.000000D+00  0.000000D+00
      7  -0.213349D+01  0.000000D+00  0.000000D+00  0.000000D+00  0.000000D+00
      8   0.000000D+00  0.000000D+00  0.000000D+00  0.000000D+00  0.000000D+00
      9   0.000000D+00  0.000000D+00  0.000000D+00  0.000000D+00  0.000000D+00
     10   0.000000D+00  0.000000D+00  0.000000D+00  0.000000D+00  0.000000D+00
     11   0.000000D+00  0.000000D+00  0.101617D+00  0.000000D+00  0.486953D+00
     12   0.000000D+00  0.000000D+00 -0.101617D+00  0.000000D+00  0.486953D+00
     13   0.000000D+00  0.000000D+00  0.000000D+00  0.000000D+00  0.939289D-01
     14   0.000000D+00  0.000000D+00  0.000000D+00 -0.101616D+00  0.000000D+00
     15   0.000000D+00  0.000000D+00  0.000000D+00  0.000000D+00  0.000000D+00
     16   0.000000D+00  0.000000D+00  0.000000D+00  0.000000D+00  0.000000D+00
                76            77            78            79            80 
      1  -0.196085D+03 -0.196085D+03 -0.196039D+03 -0.196039D+03 -0.195958D+03
      2  -0.105200D-01  0.160679D+00  0.000000D+00  0.000000D+00  0.262517D-05
      3   0.160679D+00  0.105200D-01  0.000000D+00  0.000000D+00  0.626869D-05
      4   0.000000D+00  0.000000D+00  0.000000D+00  0.000000D+00  0.000000D+00
      5   0.242624D-01 -0.370577D+00  0.000000D+00  0.000000D+00 -0.700110D-05
      6  -0.370577D+00 -0.242624D-01  0.000000D+00  0.000000D+00 -0.167181D-04
      7   0.000000D+00  0.000000D+00  0.000000D+00  0.000000D+00  0.000000D+00
      8   0.000000D+00  0.000000D+00  0.324809D-04  0.776643D-05  0.000000D+00
      9   0.000000D+00  0.000000D+00  0.776643D-05 -0.324809D-04  0.000000D+00
     10   0.000000D+00  0.000000D+00  0.000000D+00  0.000000D+00  0.000000D+00
     11   0.000000D+00  0.000000D+00  0.000000D+00  0.000000D+00  0.000000D+00
     12   0.000000D+00  0.000000D+00  0.000000D+00  0.000000D+00  0.000000D+00
     13   0.000000D+00  0.000000D+00  0.000000D+00  0.000000D+00  0.000000D+00
     14   0.000000D+00  0.000000D+00  0.000000D+00  0.000000D+00  0.000000D+00
     15   0.000000D+00  0.000000D+00  0.661975D-05 -0.276852D-04  0.000000D+00
     16   0.000000D+00  0.000000D+00 -0.276852D-04 -0.661975D-05  0.000000D+00
                81            82            83            84            85 
      1  -0.195958D+03 -0.195938D+03 -0.195924D+03 -0.195924D+03 -0.195857D+03
      2   0.626869D-05  0.000000D+00  0.000000D+00  0.000000D+00  0.501195D-01
      3  -0.262517D-05  0.000000D+00  0.000000D+00  0.000000D+00  0.476862D-01
      4   0.000000D+00  0.000000D+00  0.000000D+00  0.000000D+00  0.000000D+00
      5  -0.167181D-04  0.000000D+00  0.000000D+00  0.000000D+00 -0.217591D+00
      6   0.700110D-05  0.000000D+00  0.000000D+00  0.000000D+00 -0.207027D+00
      7   0.000000D+00  0.000000D+00  0.000000D+00  0.000000D+00  0.000000D+00
      8   0.000000D+00  0.000000D+00 -0.852902D+00 -0.180742D+01  0.000000D+00
      9   0.000000D+00  0.000000D+00 -0.180742D+01  0.852902D+00  0.000000D+00
     10   0.000000D+00  0.000000D+00  0.000000D+00  0.000000D+00  0.000000D+00
     11   0.000000D+00 -0.292366D+00  0.000000D+00  0.000000D+00  0.000000D+00
     12   0.000000D+00 -0.292366D+00  0.000000D+00  0.000000D+00  0.000000D+00
     13   0.000000D+00 -0.484444D+01  0.000000D+00  0.000000D+00  0.000000D+00
     14   0.000000D+00  0.000000D+00  0.000000D+00  0.000000D+00  0.000000D+00
     15   0.000000D+00  0.000000D+00 -0.144323D+01  0.681044D+00  0.000000D+00
     16   0.000000D+00  0.000000D+00  0.681044D+00  0.144323D+01  0.000000D+00
                86            87            88            89            90 
      1  -0.195857D+03 -0.195853D+03 -0.195853D+03 -0.195829D+03 -0.195829D+03
      2  -0.476862D-01  0.163589D-04 -0.206573D-04  0.000000D+00  0.000000D+00
      3   0.501195D-01  0.206573D-04  0.163589D-04  0.000000D+00  0.000000D+00
      4   0.000000D+00  0.000000D+00  0.000000D+00  0.000000D+00  0.000000D+00
      5   0.207027D+00 -0.689660D-04  0.870870D-04  0.000000D+00  0.000000D+00
      6  -0.217591D+00 -0.870870D-04 -0.689660D-04  0.000000D+00  0.000000D+00
      7   0.000000D+00  0.000000D+00  0.000000D+00  0.000000D+00  0.000000D+00
      8   0.000000D+00  0.000000D+00  0.000000D+00  0.000000D+00  0.000000D+00
      9   0.000000D+00  0.000000D+00  0.000000D+00  0.000000D+00  0.000000D+00
     10   0.000000D+00  0.000000D+00  0.000000D+00  0.000000D+00  0.000000D+00
     11   0.000000D+00  0.000000D+00  0.000000D+00  0.000000D+00 -0.278108D+00
     12   0.000000D+00  0.000000D+00  0.000000D+00  0.000000D+00  0.278108D+00
     13   0.000000D+00  0.000000D+00  0.000000D+00  0.000000D+00  0.000000D+00
     14   0.000000D+00  0.000000D+00  0.000000D+00 -0.278109D+00  0.000000D+00
     15   0.000000D+00  0.000000D+00  0.000000D+00  0.000000D+00  0.000000D+00
     16   0.000000D+00  0.000000D+00  0.000000D+00  0.000000D+00  0.000000D+00
                91            92            93            94            95 
      1  -0.195774D+03 -0.195774D+03 -0.195727D+03 -0.195727D+03 -0.195674D+03
      2   0.000000D+00  0.000000D+00  0.000000D+00  0.000000D+00  0.000000D+00
      3   0.000000D+00  0.000000D+00  0.000000D+00  0.000000D+00  0.000000D+00
      4   0.000000D+00  0.000000D+00  0.000000D+00  0.000000D+00  0.000000D+00
      5   0.000000D+00  0.000000D+00  0.000000D+00  0.000000D+00  0.000000D+00
      6   0.000000D+00  0.000000D+00  0.000000D+00  0.000000D+00  0.000000D+00
      7   0.000000D+00  0.000000D+00  0.000000D+00  0.000000D+00  0.000000D+00
      8  -0.271816D-04  0.369191D-04  0.000000D+00  0.000000D+00 -0.430988D+00
      9  -0.369191D-04 -0.271816D-04  0.000000D+00  0.000000D+00 -0.218141D+01
     10   0.000000D+00  0.000000D+00  0.000000D+00  0.000000D+00  0.000000D+00
     11   0.000000D+00  0.000000D+00  0.000000D+00  0.000000D+00  0.000000D+00
     12   0.000000D+00  0.000000D+00  0.000000D+00  0.000000D+00  0.000000D+00
     13   0.000000D+00  0.000000D+00  0.000000D+00  0.000000D+00  0.000000D+00
     14   0.000000D+00  0.000000D+00  0.000000D+00  0.000000D+00  0.000000D+00
     15  -0.329890D-04 -0.242881D-04  0.000000D+00  0.000000D+00 -0.173303D+01
     16   0.242881D-04 -0.329890D-04  0.000000D+00  0.000000D+00  0.342400D+00
                96            97            98            99           100 
      1  -0.195674D+03 -0.195616D+03 -0.195592D+03 -0.195592D+03 -0.195591D+03
      2   0.000000D+00  0.000000D+00  0.000000D+00  0.000000D+00  0.000000D+00
      3   0.000000D+00  0.000000D+00  0.000000D+00  0.000000D+00  0.000000D+00
      4   0.000000D+00  0.521883D-01  0.000000D+00  0.000000D+00  0.000000D+00
      5   0.000000D+00  0.000000D+00  0.000000D+00  0.000000D+00  0.000000D+00
      6   0.000000D+00  0.000000D+00  0.000000D+00  0.000000D+00  0.000000D+00
      7   0.000000D+00 -0.176305D+00  0.000000D+00  0.000000D+00  0.000000D+00
      8  -0.218141D+01  0.000000D+00  0.000000D+00  0.000000D+00  0.000000D+00
      9   0.430988D+00  0.000000D+00  0.000000D+00  0.000000D+00  0.000000D+00
     10   0.000000D+00  0.000000D+00  0.000000D+00  0.000000D+00  0.000000D+00
     11   0.000000D+00  0.000000D+00 -0.200476D+00  0.000000D+00  0.000000D+00
     12   0.000000D+00  0.000000D+00  0.200476D+00  0.000000D+00  0.000000D+00
     13   0.000000D+00  0.000000D+00  0.000000D+00  0.000000D+00  0.000000D+00
     14   0.000000D+00  0.000000D+00  0.000000D+00  0.200476D+00  0.000000D+00
     15   0.342400D+00  0.000000D+00  0.000000D+00  0.000000D+00  0.000000D+00
     16   0.173303D+01  0.000000D+00  0.000000D+00  0.000000D+00  0.000000D+00
               101           102           103           104           105 
      1  -0.195583D+03 -0.195583D+03 -0.195580D+03 -0.195580D+03 -0.195451D+03
      2   0.000000D+00  0.000000D+00  0.121927D+01  0.921549D-02  0.000000D+00
      3   0.000000D+00  0.000000D+00  0.921549D-02 -0.121927D+01  0.000000D+00
      4   0.000000D+00  0.000000D+00  0.000000D+00  0.000000D+00  0.000000D+00
      5   0.000000D+00  0.000000D+00 -0.320895D+01 -0.242539D-01  0.000000D+00
      6   0.000000D+00  0.000000D+00 -0.242539D-01  0.320895D+01  0.000000D+00
      7   0.000000D+00  0.000000D+00  0.000000D+00  0.000000D+00  0.000000D+00
      8  -0.252764D+00 -0.112540D+01  0.000000D+00  0.000000D+00  0.000000D+00
      9   0.112540D+01 -0.252764D+00  0.000000D+00  0.000000D+00  0.000000D+00
     10   0.000000D+00  0.000000D+00  0.000000D+00  0.000000D+00  0.000000D+00
     11   0.000000D+00  0.000000D+00  0.000000D+00  0.000000D+00  0.000000D+00
     12   0.000000D+00  0.000000D+00  0.000000D+00  0.000000D+00  0.000000D+00
     13   0.000000D+00  0.000000D+00  0.000000D+00  0.000000D+00  0.000000D+00
     14   0.000000D+00  0.000000D+00  0.000000D+00  0.000000D+00  0.000000D+00
     15   0.226553D+01 -0.508836D+00  0.000000D+00  0.000000D+00  0.000000D+00
     16   0.508836D+00  0.226553D+01  0.000000D+00  0.000000D+00  0.000000D+00
               106           107           108           109           110 
      1  -0.195451D+03 -0.195448D+03 -0.195411D+03 -0.195342D+03 -0.195310D+03
      2   0.000000D+00  0.000000D+00  0.000000D+00  0.000000D+00  0.000000D+00
      3   0.000000D+00  0.000000D+00  0.000000D+00  0.000000D+00  0.000000D+00
      4   0.000000D+00  0.000000D+00  0.000000D+00  0.534550D+00  0.000000D+00
      5   0.000000D+00  0.000000D+00  0.000000D+00  0.000000D+00  0.000000D+00
      6   0.000000D+00  0.000000D+00  0.000000D+00  0.000000D+00  0.000000D+00
      7   0.000000D+00  0.000000D+00  0.000000D+00 -0.180557D+01  0.000000D+00
      8   0.000000D+00  0.000000D+00  0.000000D+00  0.000000D+00  0.000000D+00
      9   0.000000D+00  0.000000D+00  0.000000D+00  0.000000D+00  0.000000D+00
     10   0.000000D+00  0.000000D+00  0.000000D+00  0.000000D+00  0.000000D+00
     11   0.000000D+00  0.000000D+00  0.558450D+00  0.000000D+00  0.000000D+00
     12   0.000000D+00  0.000000D+00  0.558450D+00  0.000000D+00  0.000000D+00
     13   0.000000D+00  0.000000D+00 -0.651915D+01  0.000000D+00  0.000000D+00
     14   0.000000D+00  0.000000D+00  0.000000D+00  0.000000D+00  0.000000D+00
     15   0.000000D+00  0.000000D+00  0.000000D+00  0.000000D+00  0.000000D+00
     16   0.000000D+00  0.000000D+00  0.000000D+00  0.000000D+00  0.000000D+00
               111           112           113           114           115 
      1  -0.195310D+03 -0.195310D+03 -0.195300D+03 -0.195300D+03 -0.195299D+03
      2   0.000000D+00  0.000000D+00  0.241919D+00  0.185522D+00  0.000000D+00
      3   0.000000D+00  0.000000D+00 -0.185522D+00  0.241919D+00  0.000000D+00
      4   0.000000D+00  0.000000D+00  0.000000D+00  0.000000D+00  0.000000D+00
      5   0.000000D+00  0.000000D+00 -0.682119D+00 -0.523100D+00  0.000000D+00
      6   0.000000D+00  0.000000D+00  0.523100D+00 -0.682119D+00  0.000000D+00
      7   0.000000D+00  0.000000D+00  0.000000D+00  0.000000D+00  0.000000D+00
      8   0.000000D+00  0.000000D+00  0.000000D+00  0.000000D+00  0.187517D+01
      9   0.000000D+00  0.000000D+00  0.000000D+00  0.000000D+00  0.182337D+01
     10   0.000000D+00  0.000000D+00  0.000000D+00  0.000000D+00  0.000000D+00
     11   0.000000D+00 -0.220595D+00  0.000000D+00  0.000000D+00  0.000000D+00
     12   0.000000D+00 -0.220595D+00  0.000000D+00  0.000000D+00  0.000000D+00
     13   0.000000D+00 -0.412411D+01  0.000000D+00  0.000000D+00  0.000000D+00
     14   0.000000D+00  0.000000D+00  0.000000D+00  0.000000D+00  0.000000D+00
     15   0.000000D+00  0.000000D+00  0.000000D+00  0.000000D+00  0.227488D+01
     16   0.000000D+00  0.000000D+00  0.000000D+00  0.000000D+00 -0.233951D+01
               116           117           118           119           120 
      1  -0.195299D+03 -0.195205D+03 -0.195205D+03 -0.195043D+03 -0.195043D+03
      2   0.000000D+00  0.000000D+00  0.000000D+00  0.000000D+00  0.000000D+00
      3   0.000000D+00  0.000000D+00  0.000000D+00  0.000000D+00  0.000000D+00
      4   0.000000D+00  0.000000D+00  0.000000D+00  0.000000D+00  0.000000D+00
      5   0.000000D+00  0.000000D+00  0.000000D+00  0.000000D+00  0.000000D+00
      6   0.000000D+00  0.000000D+00  0.000000D+00  0.000000D+00  0.000000D+00
      7   0.000000D+00  0.000000D+00  0.000000D+00  0.000000D+00  0.000000D+00
      8   0.182337D+01  0.000000D+00  0.000000D+00  0.000000D+00  0.000000D+00
      9  -0.187517D+01  0.000000D+00  0.000000D+00  0.000000D+00  0.000000D+00
     10   0.000000D+00  0.000000D+00  0.000000D+00  0.000000D+00  0.000000D+00
     11   0.000000D+00  0.000000D+00  0.114733D+01  0.000000D+00  0.101435D+01
     12   0.000000D+00  0.000000D+00 -0.114733D+01  0.000000D+00 -0.101435D+01
     13   0.000000D+00  0.000000D+00  0.000000D+00  0.000000D+00  0.000000D+00
     14   0.000000D+00  0.114734D+01  0.000000D+00  0.101435D+01  0.000000D+00
     15  -0.233951D+01  0.000000D+00  0.000000D+00  0.000000D+00  0.000000D+00
     16  -0.227488D+01  0.000000D+00  0.000000D+00  0.000000D+00  0.000000D+00
               121           122           123           124           125 
      1  -0.194946D+03 -0.194946D+03 -0.194875D+03 -0.194875D+03 -0.194680D+03
      2   0.000000D+00  0.000000D+00 -0.176541D-01  0.130146D-01 -0.654723D-01
      3   0.000000D+00  0.000000D+00 -0.130146D-01 -0.176541D-01 -0.226499D+00
      4   0.000000D+00  0.000000D+00  0.000000D+00  0.000000D+00  0.000000D+00
      5   0.000000D+00  0.000000D+00  0.485527D-01 -0.357931D-01  0.259688D+00
      6   0.000000D+00  0.000000D+00  0.357931D-01  0.485527D-01  0.898382D+00
      7   0.000000D+00  0.000000D+00  0.000000D+00  0.000000D+00  0.000000D+00
      8   0.000000D+00  0.000000D+00  0.000000D+00  0.000000D+00  0.000000D+00
      9   0.000000D+00  0.000000D+00  0.000000D+00  0.000000D+00  0.000000D+00
     10   0.000000D+00  0.000000D+00  0.000000D+00  0.000000D+00  0.000000D+00
     11   0.000000D+00  0.000000D+00  0.000000D+00  0.000000D+00  0.000000D+00
     12   0.000000D+00  0.000000D+00  0.000000D+00  0.000000D+00  0.000000D+00
     13   0.000000D+00  0.000000D+00  0.000000D+00  0.000000D+00  0.000000D+00
     14   0.000000D+00  0.000000D+00  0.000000D+00  0.000000D+00  0.000000D+00
     15   0.000000D+00  0.000000D+00  0.000000D+00  0.000000D+00  0.000000D+00
     16   0.000000D+00  0.000000D+00  0.000000D+00  0.000000D+00  0.000000D+00
               126           127           128           129           130 
      1  -0.194680D+03 -0.194619D+03 -0.194619D+03 -0.194543D+03 -0.194543D+03
      2  -0.226499D+00  0.000000D+00  0.000000D+00  0.000000D+00  0.000000D+00
      3   0.654723D-01  0.000000D+00  0.000000D+00  0.000000D+00  0.000000D+00
      4   0.000000D+00  0.000000D+00  0.000000D+00  0.000000D+00  0.000000D+00
      5   0.898382D+00  0.000000D+00  0.000000D+00  0.000000D+00  0.000000D+00
      6  -0.259688D+00  0.000000D+00  0.000000D+00  0.000000D+00  0.000000D+00
      7   0.000000D+00  0.000000D+00  0.000000D+00  0.000000D+00  0.000000D+00
      8   0.000000D+00  0.332783D+00 -0.272695D-01  0.123884D+00 -0.101376D+01
      9   0.000000D+00 -0.272695D-01 -0.332783D+00  0.101376D+01  0.123884D+00
     10   0.000000D+00  0.000000D+00  0.000000D+00  0.000000D+00  0.000000D+00
     11   0.000000D+00  0.000000D+00  0.000000D+00  0.000000D+00  0.000000D+00
     12   0.000000D+00  0.000000D+00  0.000000D+00  0.000000D+00  0.000000D+00
     13   0.000000D+00  0.000000D+00  0.000000D+00  0.000000D+00  0.000000D+00
     14   0.000000D+00  0.000000D+00  0.000000D+00  0.000000D+00  0.000000D+00
     15   0.000000D+00  0.238470D-01  0.291016D+00  0.122516D+01  0.149718D+00
     16   0.000000D+00  0.291016D+00 -0.238470D-01 -0.149718D+00  0.122516D+01
               131           132           133 
      1  -0.194455D+03 -0.193998D+03 -0.193739D+03
      2   0.000000D+00  0.000000D+00  0.000000D+00
      3   0.000000D+00  0.000000D+00  0.000000D+00
      4   0.301134D+00  0.000000D+00  0.251751D-01
      5   0.000000D+00  0.000000D+00  0.000000D+00
      6   0.000000D+00  0.000000D+00  0.000000D+00
      7  -0.150504D+01  0.000000D+00 -0.298054D+00
      8   0.000000D+00  0.000000D+00  0.000000D+00
      9   0.000000D+00  0.000000D+00  0.000000D+00
     10   0.000000D+00  0.000000D+00  0.000000D+00
     11   0.000000D+00 -0.195391D+00  0.000000D+00
     12   0.000000D+00 -0.195391D+00  0.000000D+00
     13   0.000000D+00  0.102342D+01  0.000000D+00
     14   0.000000D+00  0.000000D+00  0.000000D+00
     15   0.000000D+00  0.000000D+00  0.000000D+00
     16   0.000000D+00  0.000000D+00  0.000000D+00
 Unable to Open any file for archive entry.
 1\1\GINC-HEL11\SP\RwB97XD TD-FC\def2SVP\F2\PRAKRITI\14-Aug-2021\0\\#P 
 TD(Nstates=10000) wB97XD/def2SVP SCF(maxcycles=100) Int(Grid=ultrafine
 )\\xGDB7_00001_tier4.com\\0,1\F,0,0.,0.,0.688459\F,0,0.,0.,-0.688459\\
 Version=EM64L-G16RevC.01\State=1-SGG\HF=-199.2879695\RMSD=4.265e-09\PG
 =D*H [C*(F1.F1)]\\@
 The archive entry for this job was punched.


 PICNIC:  A SNACK IN THE GRASS.
 Job cpu time:       0 days  0 hours  0 minutes 11.7 seconds.
 Elapsed time:       0 days  0 hours  0 minutes  1.8 seconds.
 File lengths (MBytes):  RWF=     25 Int=      0 D2E=      0 Chk=      4 Scr=      1
 Normal termination of Gaussian 16 at Sat Aug 14 23:27:21 2021.
