 Entering Gaussian System, Link 0=g16
 Input=xGDB7_000005_TDDFT.com
 Output=xGDB7_000005_TDDFT.log
 Initial command:
 /home/prakriti/g16/l1.exe "/scratch/prakriti/PBS_7434515.helios/Gau-193310.inp" -scrdir="/scratch/prakriti/PBS_7434515.helios/"
 Entering Link 1 = /home/prakriti/g16/l1.exe PID=    193311.
  
 Copyright (c) 1988-2019, Gaussian, Inc.  All Rights Reserved.
  
 This is part of the Gaussian(R) 16 program.  It is based on
 the Gaussian(R) 09 system (copyright 2009, Gaussian, Inc.),
 the Gaussian(R) 03 system (copyright 2003, Gaussian, Inc.),
 the Gaussian(R) 98 system (copyright 1998, Gaussian, Inc.),
 the Gaussian(R) 94 system (copyright 1995, Gaussian, Inc.),
 the Gaussian 92(TM) system (copyright 1992, Gaussian, Inc.),
 the Gaussian 90(TM) system (copyright 1990, Gaussian, Inc.),
 the Gaussian 88(TM) system (copyright 1988, Gaussian, Inc.),
 the Gaussian 86(TM) system (copyright 1986, Carnegie Mellon
 University), and the Gaussian 82(TM) system (copyright 1983,
 Carnegie Mellon University). Gaussian is a federally registered
 trademark of Gaussian, Inc.
  
 This software contains proprietary and confidential information,
 including trade secrets, belonging to Gaussian, Inc.
  
 This software is provided under written license and may be
 used, copied, transmitted, or stored only in accord with that
 written license.
  
 The following legend is applicable only to US Government
 contracts under FAR:
  
                    RESTRICTED RIGHTS LEGEND
  
 Use, reproduction and disclosure by the US Government is
 subject to restrictions as set forth in subparagraphs (a)
 and (c) of the Commercial Computer Software - Restricted
 Rights clause in FAR 52.227-19.
  
 Gaussian, Inc.
 340 Quinnipiac St., Bldg. 40, Wallingford CT 06492
  
  
 ---------------------------------------------------------------
 Warning -- This program may not be used in any manner that
 competes with the business of Gaussian, Inc. or will provide
 assistance to any competitor of Gaussian, Inc.  The licensee
 of this program is prohibited from giving any competitor of
 Gaussian, Inc. access to this program.  By using this program,
 the user acknowledges that Gaussian, Inc. is engaged in the
 business of creating and licensing software in the field of
 computational chemistry and represents and warrants to the
 licensee that it is not a competitor of Gaussian, Inc. and that
 it will not use this program in any manner prohibited above.
 ---------------------------------------------------------------
  

 Cite this work as:
 Gaussian 16, Revision C.01,
 M. J. Frisch, G. W. Trucks, H. B. Schlegel, G. E. Scuseria, 
 M. A. Robb, J. R. Cheeseman, G. Scalmani, V. Barone, 
 G. A. Petersson, H. Nakatsuji, X. Li, M. Caricato, A. V. Marenich, 
 J. Bloino, B. G. Janesko, R. Gomperts, B. Mennucci, H. P. Hratchian, 
 J. V. Ortiz, A. F. Izmaylov, J. L. Sonnenberg, D. Williams-Young, 
 F. Ding, F. Lipparini, F. Egidi, J. Goings, B. Peng, A. Petrone, 
 T. Henderson, D. Ranasinghe, V. G. Zakrzewski, J. Gao, N. Rega, 
 G. Zheng, W. Liang, M. Hada, M. Ehara, K. Toyota, R. Fukuda, 
 J. Hasegawa, M. Ishida, T. Nakajima, Y. Honda, O. Kitao, H. Nakai, 
 T. Vreven, K. Throssell, J. A. Montgomery, Jr., J. E. Peralta, 
 F. Ogliaro, M. J. Bearpark, J. J. Heyd, E. N. Brothers, K. N. Kudin, 
 V. N. Staroverov, T. A. Keith, R. Kobayashi, J. Normand, 
 K. Raghavachari, A. P. Rendell, J. C. Burant, S. S. Iyengar, 
 J. Tomasi, M. Cossi, J. M. Millam, M. Klene, C. Adamo, R. Cammi, 
 J. W. Ochterski, R. L. Martin, K. Morokuma, O. Farkas, 
 J. B. Foresman, and D. J. Fox, Gaussian, Inc., Wallingford CT, 2019.
 
 ******************************************
 Gaussian 16:  EM64L-G16RevC.01  3-Jul-2019
                14-Aug-2021 
 ******************************************
 %mem=8gb
 %nproc=8
 Will use up to    8 processors via shared memory.
 ----------------------------------------------------------------------
 #P TD(Nstates=10000) wB97XD/def2SVP SCF(maxcycles=100) Int(Grid=ultraf
 ine)
 ----------------------------------------------------------------------
 1/38=1,172=1/1;
 2/12=2,17=6,18=5,40=1/2;
 3/5=43,7=101,11=9,25=1,30=1,74=-58,75=-5/1,2,3,8;
 4//1;
 5/5=2,7=100,38=5/2;
 8/6=1,10=1,108=10000/1;
 9/41=10000,42=1,70=2/14;
 6/7=2,8=2,9=2,10=2/1;
 99/5=1,9=1/99;
 Leave Link    1 at Sat Aug 14 07:22:38 2021, MaxMem=  1073741824 cpu:               0.4 elap:               0.1
 (Enter /home/prakriti/g16/l101.exe)
 ---------------------
 xGDB7_00001_tier4.com
 ---------------------
 Symbolic Z-matrix:
 Charge =  0 Multiplicity = 1
 6                     0.        0.        0.76175 
 6                     0.        0.       -0.76175 
 1                     0.        1.02446   1.16442 
 1                     0.88721  -0.51223   1.16442 
 1                    -0.88721  -0.51223   1.16442 
 1                     0.88721   0.51223  -1.16442 
 1                    -0.88721   0.51223  -1.16442 
 1                     0.       -1.02446  -1.16442 
 
 ITRead=  0  0  0  0  0  0  0  0
 MicOpt= -1 -1 -1 -1 -1 -1 -1 -1
 NAtoms=      8 NQM=        8 NQMF=       0 NMMI=      0 NMMIF=      0
                NMic=       0 NMicF=      0.
                    Isotopes and Nuclear Properties:
 (Nuclear quadrupole moments (NQMom) in fm**2, nuclear magnetic moments (NMagM)
  in nuclear magnetons)

  Atom         1           2           3           4           5           6           7           8
 IAtWgt=          12          12           1           1           1           1           1           1
 AtmWgt=  12.0000000  12.0000000   1.0078250   1.0078250   1.0078250   1.0078250   1.0078250   1.0078250
 NucSpn=           0           0           1           1           1           1           1           1
 AtZEff=  -0.0000000  -0.0000000  -0.0000000  -0.0000000  -0.0000000  -0.0000000  -0.0000000  -0.0000000
 NQMom=    0.0000000   0.0000000   0.0000000   0.0000000   0.0000000   0.0000000   0.0000000   0.0000000
 NMagM=    0.0000000   0.0000000   2.7928460   2.7928460   2.7928460   2.7928460   2.7928460   2.7928460
 AtZNuc=   6.0000000   6.0000000   1.0000000   1.0000000   1.0000000   1.0000000   1.0000000   1.0000000
 Leave Link  101 at Sat Aug 14 07:22:38 2021, MaxMem=  1073741824 cpu:               0.8 elap:               0.1
 (Enter /home/prakriti/g16/l202.exe)
                          Input orientation:                          
 ---------------------------------------------------------------------
 Center     Atomic      Atomic             Coordinates (Angstroms)
 Number     Number       Type             X           Y           Z
 ---------------------------------------------------------------------
      1          6           0        0.000000    0.000000    0.761748
      2          6           0        0.000000    0.000000   -0.761748
      3          1           0        0.000000    1.024459    1.164419
      4          1           0        0.887208   -0.512230    1.164419
      5          1           0       -0.887208   -0.512230    1.164419
      6          1           0        0.887208    0.512230   -1.164419
      7          1           0       -0.887208    0.512230   -1.164419
      8          1           0        0.000000   -1.024459   -1.164419
 ---------------------------------------------------------------------
                    Distance matrix (angstroms):
                    1          2          3          4          5
     1  C    0.000000
     2  C    1.523496   0.000000
     3  H    1.100754   2.181659   0.000000
     4  H    1.100755   2.181659   1.774416   0.000000
     5  H    1.100755   2.181659   1.774416   1.774416   0.000000
     6  H    2.181659   1.100755   2.544210   2.544210   3.101863
     7  H    2.181659   1.100755   2.544210   3.101863   2.544210
     8  H    2.181659   1.100754   3.101863   2.544210   2.544210
                    6          7          8
     6  H    0.000000
     7  H    1.774416   0.000000
     8  H    1.774416   1.774416   0.000000
 Stoichiometry    C2H6
 Framework group  S6[C3(C.C),X(H6)]
 Deg. of freedom     3
 Full point group                 S6      NOp   6
 Largest Abelian subgroup         CI      NOp   2
 Largest concise Abelian subgroup CI      NOp   2
                         Standard orientation:                         
 ---------------------------------------------------------------------
 Center     Atomic      Atomic             Coordinates (Angstroms)
 Number     Number       Type             X           Y           Z
 ---------------------------------------------------------------------
      1          6           0        0.000000    0.000000    0.761748
      2          6           0        0.000000    0.000000   -0.761748
      3          1           0       -1.024459    0.000000    1.164419
      4          1           0        0.512230    0.887208    1.164419
      5          1           0        0.512229   -0.887208    1.164419
      6          1           0       -0.512229    0.887208   -1.164419
      7          1           0       -0.512230   -0.887208   -1.164419
      8          1           0        1.024459   -0.000000   -1.164419
 ---------------------------------------------------------------------
 Rotational constants (GHZ):          79.6327368          19.9767856          19.9767856
 Leave Link  202 at Sat Aug 14 07:22:38 2021, MaxMem=  1073741824 cpu:               0.1 elap:               0.0
 (Enter /home/prakriti/g16/l301.exe)
 Standard basis: def2SVP (5D, 7F)
 Ernie: Thresh=  0.10000D-02 Tol=  0.10000D-05 Strict=F.
 There are    30 symmetry adapted cartesian basis functions of AG  symmetry.
 There are    30 symmetry adapted cartesian basis functions of AU  symmetry.
 There are    29 symmetry adapted basis functions of AG  symmetry.
 There are    29 symmetry adapted basis functions of AU  symmetry.
    58 basis functions,    92 primitive gaussians,    60 cartesian basis functions
     9 alpha electrons        9 beta electrons
       nuclear repulsion energy        42.0922178689 Hartrees.
 IExCor= 4639 DFT=T Ex+Corr=wB97XD ExCW=0 ScaHFX=  1.000000
 ScaDFX=  1.000000  1.000000  1.000000  1.000000 ScalE2=  1.000000  1.000000
 IRadAn=      5 IRanWt=     -1 IRanGd=            0 ICorTp=0 IEmpDi=121
 HFx  wShort=  0.000000 wLong=  0.200000 cFull=  0.222036 cShort=  0.000000 cLong=  0.777964
 DFx  wShort=  0.000000 wLong=  0.200000 cFull=  0.000000 cShort=  0.000000 cLong=  1.000000
 NAtoms=    8 NActive=    8 NUniq=    2 SFac= 4.00D+00 NAtFMM=   60 NAOKFM=F Big=F
 Integral buffers will be    131072 words long.
 Raffenetti 1 integral format.
 Two-electron integral symmetry is turned on.
 R6Disp:  Grimme-D2 Dispersion energy=       -0.0018644599 Hartrees.
 Nuclear repulsion after empirical dispersion term =       42.0903534090 Hartrees.
 Leave Link  301 at Sat Aug 14 07:22:38 2021, MaxMem=  1073741824 cpu:               0.6 elap:               0.1
 (Enter /home/prakriti/g16/l302.exe)
 NPDir=0 NMtPBC=     1 NCelOv=     1 NCel=       1 NClECP=     1 NCelD=      1
         NCelK=      1 NCelE2=     1 NClLst=     1 CellRange=     0.0.
 One-electron integrals computed using PRISM.
 One-electron integral symmetry used in STVInt
   6 Symmetry operations used in ECPInt.
 ECPInt:  NShTT=     465 NPrTT=    1529 LenC2=     466 LenP2D=    1445.
 LDataN:  DoStor=T MaxTD1= 4 Len=   56
 NBasis=    58 RedAO= T EigKep=  4.47D-03  NBF=    29    29
 NBsUse=    58 1.00D-06 EigRej= -1.00D+00 NBFU=    29    29
 Precomputing XC quadrature grid using
 IXCGrd= 4 IRadAn=           5 IRanWt=          -1 IRanGd=           0 AccXCQ= 0.00D+00.
 Generated NRdTot=       0 NPtTot=           0 NUsed=           0 NTot=          32
 NSgBfM=    60    60    60    60    60 MxSgAt=     8 MxSgA2=     8.
 Leave Link  302 at Sat Aug 14 07:22:38 2021, MaxMem=  1073741824 cpu:               1.1 elap:               0.2
 (Enter /home/prakriti/g16/l303.exe)
 DipDrv:  MaxL=1.
 Leave Link  303 at Sat Aug 14 07:22:38 2021, MaxMem=  1073741824 cpu:               0.2 elap:               0.1
 (Enter /home/prakriti/g16/l308.exe)
 Leave Link  308 at Sat Aug 14 07:22:38 2021, MaxMem=  1073741824 cpu:               0.2 elap:               0.1
 (Enter /home/prakriti/g16/l401.exe)
 ExpMin= 1.22D-01 ExpMax= 1.24D+03 ExpMxC= 1.86D+02 IAcc=3 IRadAn=         5 AccDes= 0.00D+00
 Harris functional with IExCor= 4639 and IRadAn=       5 diagonalized for initial guess.
 HarFok:  IExCor= 4639 AccDes= 0.00D+00 IRadAn=         5 IDoV= 1 UseB2=F ITyADJ=14
 ICtDFT=  3500011 ScaDFX=  1.000000  1.000000  1.000000  1.000000
 FoFCou: FMM=F IPFlag=           0 FMFlag=      100000 FMFlg1=           0
         NFxFlg=           0 DoJE=T BraDBF=F KetDBF=T FulRan=T
         wScrn=  0.000000 ICntrl=       500 IOpCl=  0 I1Cent=   200000004 NGrid=           0
         NMat0=    1 NMatS0=      1 NMatT0=    0 NMatD0=    1 NMtDS0=    0 NMtDT0=    0
 Petite list used in FoFCou.
 Harris En= -75.5373307829151    
 JPrj=0 DoOrth=F DoCkMO=F.
 Initial guess orbital symmetries:
       Occupied  (AU) (AG) (AG) (AU) (EU) (EU) (AG) (EG) (EG)
       Virtual   (AG) (AU) (EU) (EU) (EG) (EG) (AU) (EU) (EU) (AG)
                 (EG) (EG) (AU) (AG) (EG) (EG) (AU) (EU) (EU) (AG)
                 (AU) (EU) (EU) (EG) (EG) (AU) (AG) (AG) (EU) (EU)
                 (EG) (EG) (EU) (EU) (AU) (EG) (EG) (AG) (EU) (EU)
                 (AU) (EG) (EG) (AG) (AU) (EG) (EG) (EU) (EU)
 The electronic state of the initial guess is 1-AG.
 Leave Link  401 at Sat Aug 14 07:22:39 2021, MaxMem=  1073741824 cpu:               1.5 elap:               0.2
 (Enter /home/prakriti/g16/l502.exe)
 Keep R1 ints in memory in symmetry-blocked form, NReq=10117884.
 FoFCou: FMM=F IPFlag=           0 FMFlag=           0 FMFlg1=           0
         NFxFlg=           0 DoJE=F BraDBF=F KetDBF=F FulRan=T
         wScrn=  0.000000 ICntrl=       600 IOpCl=  0 I1Cent=           0 NGrid=           0
         NMat0=    1 NMatS0=   1711 NMatT0=    0 NMatD0=    1 NMtDS0=    0 NMtDT0=    0
 Petite list used in FoFCou.
 Closed shell SCF:
 Using DIIS extrapolation, IDIIS=  1040.
 NGot=  1073741824 LenX=  1072996052 LenY=  1072992011
 Requested convergence on RMS density matrix=1.00D-08 within 100 cycles.
 Requested convergence on MAX density matrix=1.00D-06.
 Requested convergence on             energy=1.00D-06.
 No special actions if energy rises.
 Integral accuracy reduced to 1.0D-05 until final iterations.

 Cycle   1  Pass 0  IDiag  1:
 E= -79.7240347021790    
 DIIS: error= 4.01D-02 at cycle   1 NSaved=   1.
 NSaved= 1 IEnMin= 1 EnMin= -79.7240347021790     IErMin= 1 ErrMin= 4.01D-02
 ErrMax= 4.01D-02  0.00D+00 EMaxC= 1.00D-01 BMatC= 3.94D-02 BMatP= 3.94D-02
 IDIUse=3 WtCom= 5.99D-01 WtEn= 4.01D-01
 Coeff-Com:  0.100D+01
 Coeff-En:   0.100D+01
 Coeff:      0.100D+01
 Gap=     0.546 Goal=   None    Shift=    0.000
 GapD=    0.546 DampG=2.000 DampE=0.500 DampFc=1.0000 IDamp=-1.
 RMSDP=2.95D-03 MaxDP=3.81D-02              OVMax= 5.35D-02

 Cycle   2  Pass 0  IDiag  1:
 E= -79.7379689111615     Delta-E=       -0.013934208982 Rises=F Damp=F
 DIIS: error= 1.18D-02 at cycle   2 NSaved=   2.
 NSaved= 2 IEnMin= 2 EnMin= -79.7379689111615     IErMin= 2 ErrMin= 1.18D-02
 ErrMax= 1.18D-02  0.00D+00 EMaxC= 1.00D-01 BMatC= 7.51D-03 BMatP= 3.94D-02
 IDIUse=3 WtCom= 8.82D-01 WtEn= 1.18D-01
 Coeff-Com:  0.235D+00 0.765D+00
 Coeff-En:   0.883D-01 0.912D+00
 Coeff:      0.218D+00 0.782D+00
 Gap=     0.575 Goal=   None    Shift=    0.000
 RMSDP=1.70D-03 MaxDP=3.12D-02 DE=-1.39D-02 OVMax= 2.71D-02

 Cycle   3  Pass 0  IDiag  1:
 E= -79.7444256051663     Delta-E=       -0.006456694005 Rises=F Damp=F
 DIIS: error= 5.41D-03 at cycle   3 NSaved=   3.
 NSaved= 3 IEnMin= 3 EnMin= -79.7444256051663     IErMin= 3 ErrMin= 5.41D-03
 ErrMax= 5.41D-03  0.00D+00 EMaxC= 1.00D-01 BMatC= 1.19D-03 BMatP= 7.51D-03
 IDIUse=3 WtCom= 9.46D-01 WtEn= 5.41D-02
 Coeff-Com: -0.109D-02 0.282D+00 0.719D+00
 Coeff-En:   0.000D+00 0.803D-02 0.992D+00
 Coeff:     -0.103D-02 0.267D+00 0.734D+00
 Gap=     0.568 Goal=   None    Shift=    0.000
 RMSDP=5.02D-04 MaxDP=7.26D-03 DE=-6.46D-03 OVMax= 9.15D-03

 Cycle   4  Pass 0  IDiag  1:
 E= -79.7456641766336     Delta-E=       -0.001238571467 Rises=F Damp=F
 DIIS: error= 5.17D-04 at cycle   4 NSaved=   4.
 NSaved= 4 IEnMin= 4 EnMin= -79.7456641766336     IErMin= 4 ErrMin= 5.17D-04
 ErrMax= 5.17D-04  0.00D+00 EMaxC= 1.00D-01 BMatC= 5.09D-06 BMatP= 1.19D-03
 IDIUse=3 WtCom= 9.95D-01 WtEn= 5.17D-03
 Coeff-Com: -0.659D-03-0.108D-01 0.318D-01 0.980D+00
 Coeff-En:   0.000D+00 0.000D+00 0.000D+00 0.100D+01
 Coeff:     -0.656D-03-0.107D-01 0.316D-01 0.980D+00
 Gap=     0.568 Goal=   None    Shift=    0.000
 RMSDP=4.34D-05 MaxDP=7.77D-04 DE=-1.24D-03 OVMax= 9.17D-04

 Cycle   5  Pass 0  IDiag  1:
 E= -79.7456699434781     Delta-E=       -0.000005766845 Rises=F Damp=F
 DIIS: error= 4.27D-05 at cycle   5 NSaved=   5.
 NSaved= 5 IEnMin= 5 EnMin= -79.7456699434781     IErMin= 5 ErrMin= 4.27D-05
 ErrMax= 4.27D-05  0.00D+00 EMaxC= 1.00D-01 BMatC= 8.84D-08 BMatP= 5.09D-06
 IDIUse=1 WtCom= 1.00D+00 WtEn= 0.00D+00
 Coeff-Com:  0.170D-03-0.163D-01-0.372D-01 0.162D-01 0.104D+01
 Coeff:      0.170D-03-0.163D-01-0.372D-01 0.162D-01 0.104D+01
 Gap=     0.568 Goal=   None    Shift=    0.000
 RMSDP=1.20D-05 MaxDP=1.45D-04 DE=-5.77D-06 OVMax= 1.64D-04

 Cycle   6  Pass 0  IDiag  1:
 E= -79.7456700966676     Delta-E=       -0.000000153189 Rises=F Damp=F
 DIIS: error= 3.84D-06 at cycle   6 NSaved=   6.
 NSaved= 6 IEnMin= 6 EnMin= -79.7456700966676     IErMin= 6 ErrMin= 3.84D-06
 ErrMax= 3.84D-06  0.00D+00 EMaxC= 1.00D-01 BMatC= 6.55D-10 BMatP= 8.84D-08
 IDIUse=1 WtCom= 1.00D+00 WtEn= 0.00D+00
 Coeff-Com: -0.144D-04 0.282D-02 0.649D-02-0.866D-02-0.202D+00 0.120D+01
 Coeff:     -0.144D-04 0.282D-02 0.649D-02-0.866D-02-0.202D+00 0.120D+01
 Gap=     0.568 Goal=   None    Shift=    0.000
 RMSDP=1.89D-06 MaxDP=1.99D-05 DE=-1.53D-07 OVMax= 2.51D-05

 Initial convergence to 1.0D-05 achieved.  Increase integral accuracy.
 Cycle   7  Pass 1  IDiag  1:
 E= -79.7456978154492     Delta-E=       -0.000027718782 Rises=F Damp=F
 DIIS: error= 2.26D-05 at cycle   1 NSaved=   1.
 NSaved= 1 IEnMin= 1 EnMin= -79.7456978154492     IErMin= 1 ErrMin= 2.26D-05
 ErrMax= 2.26D-05  0.00D+00 EMaxC= 1.00D-01 BMatC= 2.21D-08 BMatP= 2.21D-08
 IDIUse=1 WtCom= 1.00D+00 WtEn= 0.00D+00
 Coeff-Com:  0.100D+01
 Coeff:      0.100D+01
 Gap=     0.568 Goal=   None    Shift=    0.000
 RMSDP=1.89D-06 MaxDP=1.99D-05 DE=-2.77D-05 OVMax= 3.14D-05

 Cycle   8  Pass 1  IDiag  1:
 E= -79.7456978367886     Delta-E=       -0.000000021339 Rises=F Damp=F
 DIIS: error= 8.27D-06 at cycle   2 NSaved=   2.
 NSaved= 2 IEnMin= 2 EnMin= -79.7456978367886     IErMin= 2 ErrMin= 8.27D-06
 ErrMax= 8.27D-06  0.00D+00 EMaxC= 1.00D-01 BMatC= 5.29D-10 BMatP= 2.21D-08
 IDIUse=1 WtCom= 1.00D+00 WtEn= 0.00D+00
 Coeff-Com: -0.105D-01 0.101D+01
 Coeff:     -0.105D-01 0.101D+01
 Gap=     0.568 Goal=   None    Shift=    0.000
 RMSDP=5.73D-07 MaxDP=4.99D-06 DE=-2.13D-08 OVMax= 1.35D-05

 Cycle   9  Pass 1  IDiag  1:
 E= -79.7456978373619     Delta-E=       -0.000000000573 Rises=F Damp=F
 DIIS: error= 1.13D-06 at cycle   3 NSaved=   3.
 NSaved= 3 IEnMin= 3 EnMin= -79.7456978373619     IErMin= 3 ErrMin= 1.13D-06
 ErrMax= 1.13D-06  0.00D+00 EMaxC= 1.00D-01 BMatC= 5.78D-11 BMatP= 5.29D-10
 IDIUse=1 WtCom= 1.00D+00 WtEn= 0.00D+00
 Coeff-Com: -0.255D-01 0.193D+00 0.832D+00
 Coeff:     -0.255D-01 0.193D+00 0.832D+00
 Gap=     0.568 Goal=   None    Shift=    0.000
 RMSDP=1.43D-07 MaxDP=1.60D-06 DE=-5.73D-10 OVMax= 2.71D-06

 Cycle  10  Pass 1  IDiag  1:
 E= -79.7456978374162     Delta-E=       -0.000000000054 Rises=F Damp=F
 DIIS: error= 4.44D-07 at cycle   4 NSaved=   4.
 NSaved= 4 IEnMin= 4 EnMin= -79.7456978374162     IErMin= 4 ErrMin= 4.44D-07
 ErrMax= 4.44D-07  0.00D+00 EMaxC= 1.00D-01 BMatC= 7.00D-12 BMatP= 5.78D-11
 IDIUse=1 WtCom= 1.00D+00 WtEn= 0.00D+00
 Coeff-Com: -0.900D-02 0.265D-01 0.283D+00 0.699D+00
 Coeff:     -0.900D-02 0.265D-01 0.283D+00 0.699D+00
 Gap=     0.568 Goal=   None    Shift=    0.000
 DSYEVD-2 returned Info=          59 IAlg= 4 N=    29 NDim=    58 NE2=    18499861 trying  DSYEV.
 RMSDP=4.32D-08 MaxDP=7.31D-07 DE=-5.42D-11 OVMax= 9.64D-07

 Cycle  11  Pass 1  IDiag  1:
 E= -79.7456978374256     Delta-E=       -0.000000000009 Rises=F Damp=F
 DIIS: error= 6.93D-08 at cycle   5 NSaved=   5.
 NSaved= 5 IEnMin= 5 EnMin= -79.7456978374256     IErMin= 5 ErrMin= 6.93D-08
 ErrMax= 6.93D-08  0.00D+00 EMaxC= 1.00D-01 BMatC= 1.56D-13 BMatP= 7.00D-12
 IDIUse=1 WtCom= 1.00D+00 WtEn= 0.00D+00
 Coeff-Com:  0.173D-02-0.145D-01-0.619D-01 0.314D-01 0.104D+01
 Coeff:      0.173D-02-0.145D-01-0.619D-01 0.314D-01 0.104D+01
 Gap=     0.568 Goal=   None    Shift=    0.000
 RMSDP=1.70D-08 MaxDP=1.13D-07 DE=-9.46D-12 OVMax= 1.82D-07

 Cycle  12  Pass 1  IDiag  1:
 E= -79.7456978374264     Delta-E=       -0.000000000001 Rises=F Damp=F
 DIIS: error= 7.10D-09 at cycle   6 NSaved=   6.
 NSaved= 6 IEnMin= 6 EnMin= -79.7456978374264     IErMin= 6 ErrMin= 7.10D-09
 ErrMax= 7.10D-09  0.00D+00 EMaxC= 1.00D-01 BMatC= 1.23D-15 BMatP= 1.56D-13
 IDIUse=1 WtCom= 1.00D+00 WtEn= 0.00D+00
 Coeff-Com: -0.144D-03 0.173D-02 0.729D-02-0.169D-01-0.163D+00 0.117D+01
 Coeff:     -0.144D-03 0.173D-02 0.729D-02-0.169D-01-0.163D+00 0.117D+01
 Gap=     0.568 Goal=   None    Shift=    0.000
 RMSDP=2.04D-09 MaxDP=1.45D-08 DE=-8.24D-13 OVMax= 2.90D-08

 SCF Done:  E(RwB97XD) =  -79.7456978374     A.U. after   12 cycles
            NFock= 12  Conv=0.20D-08     -V/T= 2.0145
 KE= 7.860936538942D+01 PE=-2.675139786802D+02 EE= 6.706856204438D+01
 Leave Link  502 at Sat Aug 14 07:22:39 2021, MaxMem=  1073741824 cpu:               4.8 elap:               0.6
 (Enter /home/prakriti/g16/l801.exe)
 DoSCS=F DFT=T ScalE2(SS,OS)=  1.000000  1.000000
 ExpMin= 1.22D-01 ExpMax= 1.24D+03 ExpMxC= 1.86D+02 IAcc=3 IRadAn=         5 AccDes= 0.00D+00
 HarFok:  IExCor=  205 AccDes= 0.00D+00 IRadAn=         5 IDoV=-2 UseB2=F ITyADJ=14
 ICtDFT= 12500011 ScaDFX=  1.000000  1.000000  1.000000  1.000000
 Largest valence mixing into a core orbital is  7.52D-05
 Largest core mixing into a valence orbital is  3.41D-05
 Range of M.O.s used for correlation:     3    58
 NBasis=    58 NAE=     9 NBE=     9 NFC=     2 NFV=     0
 NROrb=     56 NOA=     7 NOB=     7 NVA=    49 NVB=    49
 Leave Link  801 at Sat Aug 14 07:22:39 2021, MaxMem=  1073741824 cpu:               0.6 elap:               0.1
 (Enter /home/prakriti/g16/l914.exe)
 RHF ground state
 Keep R1, R2, and R3 ints in memory in symmetry-blocked form, NReq=129903272.
 FoFCou: FMM=F IPFlag=           0 FMFlag=           0 FMFlg1=           0
         NFxFlg=           0 DoJE=F BraDBF=F KetDBF=F FulRan=T
         wScrn=  0.000000 ICntrl=       600 IOpCl=  0 I1Cent=           0 NGrid=           0
         NMat0=    1 NMatS0=   1711 NMatT0=    0 NMatD0=    1 NMtDS0=    0 NMtDT0=    0
 Petite list used in FoFCou.
 MDV=  1073741824 DFT=T DoStab=F Mixed=T DoRPA=T DoScal=F NonHer=T
 Making orbital integer symmetry assigments:
 Orbital symmetries:
       Occupied  (AG) (AU) (AG) (AU) (EU) (EU) (AG) (EG) (EG)
       Virtual   (AG) (AU) (EU) (EU) (EG) (EG) (AU) (EU) (EU) (AG)
                 (EG) (EG) (AU) (AG) (EG) (EG) (AU) (EU) (EU) (AG)
                 (AU) (EU) (EU) (EG) (EG) (AU) (AG) (AG) (EU) (EU)
                 (EG) (EG) (EU) (EU) (AU) (EG) (EG) (AG) (EU) (EU)
                 (AU) (EG) (EG) (AG) (AU) (EG) (EG) (EU) (EU)
   343 initial guesses have been made.
 Convergence on wavefunction:    0.001000000000000
 Davidson Disk Diagonalization:  ConvIn= 1.00D-03 SkipCon=T Conv= 1.00D-03.
 Max sub-space:  2058 roots to seek:   686 dimension of matrix:          686
 *** WARNING: Number of orthogonal guesses is          343
 Iteration     1 Dimension   343 NMult     0 NNew    343
 CISAX will form   343 AO SS matrices at one time.
 NMat=   343 NSing=   343 JSym2X=-1.
 DSYEVD-2 returned Info=         687 IAlg= 4 N=   343 NDim=   343 NE2=     3123998 trying  DSYEV.
 New state      4 was old state      5
 New state      5 was old state      4
 New state      7 was old state      9
 New state      9 was old state      7
 New state     11 was old state     12
 New state     12 was old state     11
 New state     14 was old state     16
 New state     16 was old state     17
 New state     17 was old state     18
 New state     18 was old state     20
 New state     20 was old state     14
 New state     21 was old state     22
 New state     22 was old state     21
 New state     23 was old state     27
 New state     24 was old state     28
 New state     25 was old state     23
 New state     27 was old state     25
 New state     28 was old state     33
 New state     30 was old state     24
 New state     33 was old state     30
 New state     37 was old state     41
 New state     40 was old state     37
 New state     41 was old state     48
 New state     42 was old state     49
 New state     43 was old state     45
 New state     45 was old state     46
 New state     46 was old state     47
 New state     47 was old state     42
 New state     48 was old state     43
 New state     49 was old state     40
 New state     51 was old state     54
 New state     52 was old state     51
 New state     53 was old state     52
 New state     54 was old state     62
 New state     55 was old state     61
 New state     56 was old state     53
 New state     57 was old state     55
 New state     58 was old state     60
 New state     59 was old state     57
 New state     60 was old state     58
 New state     61 was old state     56
 New state     62 was old state     66
 New state     63 was old state     67
 New state     64 was old state     63
 New state     66 was old state     64
 New state     67 was old state     59
 New state     68 was old state     69
 New state     69 was old state     68
 New state     70 was old state     71
 New state     71 was old state     73
 New state     72 was old state     74
 New state     73 was old state     75
 New state     74 was old state     70
 New state     75 was old state     72
 New state     76 was old state     78
 New state     77 was old state     76
 New state     78 was old state     77
 New state     80 was old state     81
 New state     81 was old state     80
 New state     82 was old state     83
 New state     83 was old state     84
 New state     84 was old state     85
 New state     85 was old state     86
 New state     86 was old state     90
 New state     87 was old state     93
 New state     88 was old state     95
 New state     89 was old state     94
 New state     90 was old state     96
 New state     91 was old state     97
 New state     92 was old state     99
 New state     93 was old state    100
 New state     94 was old state     91
 New state     95 was old state     92
 New state     96 was old state     98
 New state     97 was old state     87
 New state     98 was old state     88
 New state     99 was old state     82
 New state    100 was old state    102
 New state    102 was old state    107
 New state    103 was old state    104
 New state    104 was old state    103
 New state    106 was old state    111
 New state    107 was old state    109
 New state    108 was old state    110
 New state    109 was old state    108
 New state    110 was old state    106
 New state    111 was old state    113
 New state    112 was old state    115
 New state    113 was old state    114
 New state    114 was old state    116
 New state    115 was old state    117
 New state    116 was old state    120
 New state    117 was old state    118
 New state    118 was old state    119
 New state    119 was old state    124
 New state    120 was old state    122
 New state    122 was old state    123
 New state    123 was old state    129
 New state    124 was old state    125
 New state    125 was old state    126
 New state    126 was old state    127
 New state    127 was old state    128
 New state    128 was old state    135
 New state    129 was old state    133
 New state    130 was old state    132
 New state    132 was old state    130
 New state    133 was old state    134
 New state    134 was old state    137
 New state    135 was old state    136
 New state    136 was old state    139
 New state    137 was old state    138
 New state    138 was old state    143
 New state    139 was old state    146
 New state    140 was old state    150
 New state    141 was old state    149
 New state    142 was old state    151
 New state    143 was old state    145
 New state    145 was old state    148
 New state    146 was old state    147
 New state    147 was old state    142
 New state    148 was old state    141
 New state    149 was old state    140
 No map to state    150
 New state    151 was old state    155
 New state    152 was old state    156
 New state    153 was old state    154
 New state    154 was old state    152
 New state    155 was old state    153
 No map to state    156
 New state    157 was old state    160
 New state    158 was old state    157
 New state    160 was old state    162
 New state    162 was old state    165
 New state    165 was old state    158
 New state    166 was old state    169
 New state    167 was old state    166
 New state    169 was old state    167
 New state    170 was old state    171
 New state    171 was old state    170
 New state    178 was old state    181
 New state    179 was old state    180
 New state    180 was old state    178
 New state    181 was old state    179
 New state    182 was old state    183
 New state    183 was old state    182
 New state    189 was old state    190
 New state    190 was old state    192
 New state    192 was old state    189
 New state    193 was old state    194
 New state    194 was old state    196
 New state    196 was old state    193
 New state    199 was old state    200
 New state    200 was old state    199
 New state    201 was old state    207
 New state    202 was old state    208
 New state    203 was old state    204
 New state    204 was old state    201
 New state    205 was old state    203
 New state    206 was old state    202
 New state    207 was old state    206
 New state    208 was old state    205
 New state    214 was old state    215
 New state    215 was old state    216
 New state    216 was old state    214
 New state    217 was old state    221
 New state    218 was old state    217
 New state    220 was old state    224
 New state    221 was old state    218
 New state    222 was old state    220
 New state    223 was old state    222
 New state    224 was old state    223
 New state    232 was old state    233
 New state    233 was old state    234
 New state    234 was old state    232
 New state    235 was old state    240
 New state    236 was old state    239
 New state    237 was old state    235
 New state    238 was old state    236
 New state    239 was old state    237
 New state    240 was old state    238
 New state    243 was old state    246
 New state    244 was old state    247
 New state    246 was old state    243
 New state    247 was old state    244
 New state    249 was old state    250
 New state    250 was old state    249
 New state    251 was old state    252
 New state    252 was old state    251
 New state    253 was old state    254
 New state    254 was old state    253
 New state    259 was old state    260
 New state    260 was old state    259
 New state    261 was old state    262
 New state    262 was old state    261
 New state    263 was old state    266
 New state    264 was old state    263
 New state    266 was old state    264
 New state    267 was old state    268
 New state    268 was old state    267
 New state    269 was old state    276
 New state    271 was old state    269
 New state    273 was old state    271
 New state    274 was old state    273
 New state    276 was old state    277
 New state    277 was old state    274
 New state    279 was old state    280
 New state    280 was old state    279
 New state    281 was old state    284
 New state    282 was old state    283
 New state    283 was old state    281
 New state    284 was old state    282
 New state    289 was old state    294
 New state    291 was old state    289
 New state    292 was old state    293
 New state    293 was old state    292
 New state    294 was old state    291
 New state    297 was old state    298
 New state    298 was old state    299
 New state    299 was old state    297
 New state    300 was old state    301
 New state    301 was old state    300
 New state    302 was old state    303
 New state    303 was old state    302
 New state    306 was old state    307
 New state    307 was old state    306
 New state    308 was old state    309
 New state    309 was old state    310
 New state    310 was old state    308
 New state    311 was old state    314
 New state    312 was old state    313
 New state    313 was old state    311
 New state    314 was old state    312
 New state    315 was old state    317
 New state    316 was old state    318
 New state    317 was old state    316
 New state    318 was old state    315
 New state    319 was old state    322
 New state    321 was old state    319
 New state    322 was old state    321
 New state    323 was old state    327
 New state    324 was old state    328
 New state    325 was old state    329
 New state    326 was old state    325
 New state    327 was old state    326
 New state    328 was old state    323
 New state    329 was old state    324
 New state    332 was old state    333
 New state    333 was old state    332
 Excitation Energies [eV] at current iteration:
 Root      1 :    10.474393418462120
 Root      2 :    10.474397281331650
 Root      3 :    11.421903984139740
 Root      4 :    11.862805043255700
 Root      5 :    11.862812066906980
 Root      6 :    11.974480554632130
 Root      7 :    12.163697538586780
 Root      8 :    12.163718911472010
 Root      9 :    12.497560688183050
 Root     10 :    12.666454539604190
 Root     11 :    12.773966184436920
 Root     12 :    12.773969231537990
 Root     13 :    12.808874816926860
 Root     14 :    12.992770529712090
 Root     15 :    12.992780008403220
 Root     16 :    13.300511568467860
 Root     17 :    13.300520115574530
 Root     18 :    13.522545093308620
 Root     19 :    13.522555196925300
 Root     20 :    13.639169111263850
 Root     21 :    14.621177791901410
 Root     22 :    14.621181069096490
 Root     23 :    14.654037917871660
 Root     24 :    14.654107440287480
 Root     25 :    14.696162055032850
 Root     26 :    14.775461714931460
 Root     27 :    14.775474023929230
 Root     28 :    15.434138920854100
 Root     29 :    15.536872436505080
 Root     30 :    15.608041538189130
 Root     31 :    15.852749083080760
 Root     32 :    15.852751977042490
 Root     33 :    16.591893648926360
 Root     34 :    17.095780019237980
 Root     35 :    17.095831999464940
 Root     36 :    18.649975387897910
 Root     37 :    19.569191072559980
 Root     38 :    19.632778446553510
 Root     39 :    19.632786661011990
 Root     40 :    19.845165647751110
 Root     41 :    19.847080546798620
 Root     42 :    19.847097225563690
 Root     43 :    19.919212685959280
 Root     44 :    19.919215482466260
 Root     45 :    20.631082059019370
 Root     46 :    20.631096472494580
 Root     47 :    20.945829177371750
 Root     48 :    20.945848444177160
 Root     49 :    21.167053987979490
 Root     50 :    21.280269231812880
 Root     51 :    21.836374785272170
 Root     52 :    22.033321622265620
 Root     53 :    22.230584322384740
 Root     54 :    22.562404203069690
 Root     55 :    22.562406457427760
 Root     56 :    22.587910825462730
 Root     57 :    22.587920605170520
 Root     58 :    22.865493134207350
 Root     59 :    22.866364735843020
 Root     60 :    22.866394882898960
 Root     61 :    23.009488620537410
 Root     62 :    23.173785364563450
 Root     63 :    23.173788379084590
 Root     64 :    23.479333602395450
 Root     65 :    23.621573453172510
 Root     66 :    23.621575134224290
 Root     67 :    23.782802304255610
 Root     68 :    24.485701284379530
 Root     69 :    24.485701303548140
 Root     70 :    25.083612293449480
 Root     71 :    25.175008467610270
 Root     72 :    25.231984325599540
 Root     73 :    25.232022542739500
 Root     74 :    25.528812680576970
 Root     75 :    25.528831738274250
 Root     76 :    25.794702292221430
 Root     77 :    26.054238214062380
 Root     78 :    26.054261299448460
 Root     79 :    26.498055894537050
 Root     80 :    26.716344642467750
 Root     81 :    26.772678835968240
 Root     82 :    26.988054607651880
 Root     83 :    26.988058455252760
 Root     84 :    27.023616051681770
 Root     85 :    27.023667018802100
 Root     86 :    27.183545188019010
 Root     87 :    27.429093270303650
 Root     88 :    27.438060057040410
 Root     89 :    27.438069610180990
 Root     90 :    27.530173045337560
 Root     91 :    27.530179377285980
 Root     92 :    27.582703204075330
 Root     93 :    27.582705826545930
 Root     94 :    27.814696675136640
 Root     95 :    27.814702587974520
 Root     96 :    27.856780795571620
 Root     97 :    27.987085026741420
 Root     98 :    27.987121280509580
 Root     99 :    28.398561874848220
 Root    100 :    29.006462572260020
 Root    101 :    29.006463862794760
 Root    102 :    29.059242003298530
 Root    103 :    29.455151265743100
 Root    104 :    29.455162866050170
 Root    105 :    29.513752411091540
 Root    106 :    29.705304421686660
 Root    107 :    29.889811031875650
 Root    108 :    29.889841418018970
 Root    109 :    29.920686105312440
 Root    110 :    29.920702256055870
 Root    111 :    29.974880619265100
 Root    112 :    30.220428554539630
 Root    113 :    30.220439399501320
 Root    114 :    30.316047345980110
 Root    115 :    30.316060159892750
 Root    116 :    31.150561038106590
 Root    117 :    31.160912452545870
 Root    118 :    31.160913835660430
 Root    119 :    31.546176661234950
 Root    120 :    31.828888913610370
 Root    121 :    31.828900199630500
 Root    122 :    32.151662024395380
 Root    123 :    33.008332987961810
 Root    124 :    33.985762776995510
 Root    125 :    33.985769690855300
 Root    126 :    34.616733396842290
 Root    127 :    34.616752685555770
 Root    128 :    34.629763062227780
 Root    129 :    35.016850576046660
 Root    130 :    35.016857806666450
 Root    131 :    35.106748079151990
 Root    132 :    35.106751488090760
 Root    133 :    35.441778919764640
 Root    134 :    36.355661544900980
 Root    135 :    36.804736642780790
 Root    136 :    37.402681082620940
 Root    137 :    37.402688740832920
 Root    138 :    37.886590562311100
 Root    139 :    38.079828286909170
 Root    140 :    38.093038162668380
 Root    141 :    38.093143887175080
 Root    142 :    38.309864679538720
 Root    143 :    38.334903035413550
 Root    144 :    38.334905204804580
 Root    145 :    38.675744858351120
 Root    146 :    38.675745622186900
 Root    147 :    38.711065456785720
 Root    148 :    39.397392936495310
 Root    149 :    39.803666154446420
 Root    150 :    39.803738769340960
 Root    151 :    40.376723674361760
 Root    152 :    40.474379557202810
 Root    153 :    40.868084795384310
 Root    154 :    40.868111472352710
 Root    155 :    41.736823067477720
 Root    156 :    42.484710686514670
 Root    157 :    45.242050651267240
 Root    158 :    45.304776799354940
 Root    159 :    45.304922009813000
 Root    160 :    45.919227885898020
 Root    161 :    45.919473625219640
 Root    162 :    46.039755452724900
 Root    163 :    46.137068438911770
 Root    164 :    46.137094986331740
 Root    165 :    46.235570407544810
 Root    166 :    47.751965753336580
 Root    167 :    47.960377627394770
 Root    168 :    47.960406803611800
 Root    169 :    48.378961040729740
 Root    170 :    49.538421943295750
 Root    171 :    49.538552497864090
 Root    172 :    50.267725309471410
 Root    173 :    50.267744848030450
 Root    174 :    50.394651204844460
 Root    175 :    50.394678415970870
 Root    176 :    50.712421949296410
 Root    177 :    50.838049174575040
 Root    178 :    52.965295415256480
 Root    179 :    52.965515280970860
 Root    180 :    53.057401408160290
 Root    181 :    53.057408219489780
 Root    182 :    53.163331203393510
 Root    183 :    53.163367536912840
 Root    184 :    55.030533851277010
 Root    185 :    55.030811302954850
 Root    186 :    56.135048607854730
 Root    187 :    56.459874792268400
 Root    188 :    56.500166505668020
 Root    189 :    56.500318701944110
 Root    190 :    56.533878171015320
 Root    191 :    56.534043007631850
 Root    192 :    56.546376205338190
 Root    193 :    56.624558541520390
 Root    194 :    56.688066453018320
 Root    195 :    57.003379905403950
 Root    196 :    57.003465180161070
 Root    197 :    57.232757041908800
 Root    198 :    57.232765189029400
 Root    199 :    57.276876815477910
 Root    200 :    57.276881554118690
 Root    201 :    57.389932432389510
 Root    202 :    57.390096834180170
 Root    203 :    57.533301752759600
 Root    204 :    57.671378051882540
 Root    205 :    57.676482731011310
 Root    206 :    57.676563812372020
 Root    207 :    57.808040775843250
 Root    208 :    57.854938442495170
 Root    209 :    58.584193613922810
 Root    210 :    58.584199595292110
 Root    211 :    58.988995865558960
 Root    212 :    58.989038934235430
 Root    213 :    59.193982204653520
 Root    214 :    59.249006763220710
 Root    215 :    59.249054815116980
 Root    216 :    59.309560633184350
 Root    217 :    59.364343132860750
 Root    218 :    59.566326677109050
 Root    219 :    59.606714688456520
 Root    220 :    60.057693554112350
 Root    221 :    60.074603658472540
 Root    222 :    60.074618482904050
 Root    223 :    60.208190703100070
 Root    224 :    60.208220282118450
 Root    225 :    60.854768397449040
 Root    226 :    61.416763786407850
 Root    227 :    61.416829101071310
 Root    228 :    61.567465034362220
 Root    229 :    61.686319008581980
 Root    230 :    62.805141193403340
 Root    231 :    63.313884108580970
 Root    232 :    63.431639858168650
 Root    233 :    63.431663436259330
 Root    234 :    63.683248206590780
 Root    235 :    64.002571078369230
 Root    236 :    64.002619743165620
 Root    237 :    64.186251961309840
 Root    238 :    64.186272190757050
 Root    239 :    64.321689878695180
 Root    240 :    64.321771857171170
 Root    241 :    65.294256744546490
 Root    242 :    65.294267018265050
 Root    243 :    65.767274344633460
 Root    244 :    65.969065234418030
 Root    245 :    66.166238674103180
 Root    246 :    66.166252913655880
 Root    247 :    66.188991877254740
 Root    248 :    66.715933397728220
 Root    249 :    67.861646001616140
 Root    250 :    67.861651120088620
 Root    251 :    68.188036295515530
 Root    252 :    68.188039856147540
 Root    253 :    68.817587289731070
 Root    254 :    68.817628109258240
 Root    255 :    68.943690245265370
 Root    256 :    68.943716541506010
 Root    257 :    69.752285967768030
 Root    258 :    70.117581442770390
 Root    259 :    70.926297280469750
 Root    260 :    70.926305807445470
 Root    261 :    71.245500794414640
 Root    262 :    71.245557721522150
 Root    263 :    71.936101520665670
 Root    264 :    72.354491111958050
 Root    265 :    72.354526302922220
 Root    266 :    72.359198135019750
 Root    267 :    73.061280687849870
 Root    268 :    73.061294959310740
 Root    269 :    74.331206855270650
 Root    270 :    74.452528539926670
 Root    271 :    74.452561061017430
 Root    272 :    74.533079499037070
 Root    273 :    74.533080104256650
 Root    274 :    74.960089661588000
 Root    275 :    74.960152589118590
 Root    276 :    75.006983417531760
 Root    277 :    75.008948636593020
 Root    278 :    76.491200923471040
 Root    279 :    76.826847999949240
 Root    280 :    76.826910913248400
 Root    281 :    77.241034656207650
 Root    282 :    77.241054704685710
 Root    283 :    77.288136348322340
 Root    284 :    77.504970669911830
 Root    285 :    77.831715756981990
 Root    286 :    77.831736365995880
 Root    287 :    79.621657606284150
 Root    288 :    79.621696813175080
 Root    289 :    79.661735239258290
 Root    290 :    79.878119719608660
 Root    291 :    79.878223207398490
 Root    292 :    79.960282782949420
 Root    293 :    79.969201525608670
 Root    294 :    79.969265331653120
 Root    295 :    79.990608995210650
 Root    296 :    80.375805830696650
 Root    297 :    82.002807319297460
 Root    298 :    82.002899439099660
 Root    299 :    82.167767287163230
 Root    300 :    83.383883748026080
 Root    301 :    83.384019132013050
 Root    302 :    84.825996831516430
 Root    303 :    84.826133591720430
 Root    304 :    85.048326266472220
 Root    305 :    85.048339652962280
 Root    306 :    85.564495587831420
 Root    307 :    85.735364098607580
 Root    308 :    87.323209897476060
 Root    309 :    87.323333669238710
 Root    310 :    87.405629860722480
 Root    311 :    87.663332051878740
 Root    312 :    87.663502536735360
 Root    313 :    87.800973670476950
 Root    314 :    88.234564460619580
 Root    315 :    88.355908485823210
 Root    316 :    88.355964686986400
 Root    317 :    88.500759713705220
 Root    318 :    88.500776774408120
 Root    319 :    89.343812468100580
 Root    320 :    89.343957325867360
 Root    321 :    89.354372276391150
 Root    322 :    89.679946539371950
 Root    323 :    90.096136939677460
 Root    324 :    90.096220283075040
 Root    325 :    90.783402600228100
 Root    326 :    90.843039431824550
 Root    327 :    90.843042109998090
 Root    328 :    90.868823677528180
 Root    329 :    90.982862619316310
 Root    330 :    92.387306990542700
 Root    331 :    92.467060906771380
 Root    332 :    92.489278000460330
 Root    333 :    92.489281353277850
 Root    334 :    92.712760990847700
 Root    335 :    95.385510874747100
 Root    336 :    95.385529870060940
 Root    337 :    95.944671947018680
 Root    338 :    97.067514926887770
 Root    339 :    97.067596556223190
 Root    340 :    99.249012093256000
 Root    341 :    99.249018014597740
 Root    342 :   100.970457016123900
 Root    343 :   100.970511461230700
 Convergence achieved for final wavefunctions.
 ***********************************************************************
 Excited states from <AA,BB:AA,BB> singles matrix:
 ***********************************************************************
 
 1PDM for each excited state written to RWF  633
 Ground to excited state transition densities written to RWF  633
 Ground to excited state transition electric dipole moments (Au):
       state          X           Y           Z        Dip. S.      Osc.
         1        -0.0000      0.0000     -0.0000      0.0000      0.0000
         2         0.0000      0.0000     -0.0000      0.0000      0.0000
         3        -0.0000      0.0000     -0.0000      0.0000      0.0000
         4         1.0512      0.0000      0.0000      1.1049      0.3211
         5        -0.0000      1.0511      0.0000      1.1049      0.3211
         6        -0.0000      0.0000      0.0000      0.0000      0.0000
         7        -0.0000     -0.8212     -0.0000      0.6744      0.2010
         8        -0.8212      0.0000     -0.0000      0.6744      0.2010
         9        -0.0000     -0.0000      1.1146      1.2423      0.3804
        10        -0.0000     -0.0000      1.3307      1.7708      0.5495
        11         0.0000     -0.4292     -0.0000      0.1842      0.0577
        12         0.4293      0.0000      0.0000      0.1843      0.0577
        13        -0.0000      0.0000     -0.0000      0.0000      0.0000
        14        -0.0000      0.0000     -0.0000      0.0000      0.0000
        15        -0.0000      0.0000      0.0000      0.0000      0.0000
        16        -0.0000      0.7549      0.0000      0.5699      0.1857
        17         0.7549      0.0000     -0.0000      0.5698      0.1857
        18        -0.0000      0.0000      0.0000      0.0000      0.0000
        19         0.0000     -0.0000     -0.0000      0.0000      0.0000
        20         0.0000      0.0000      0.0000      0.0000      0.0000
        21         0.0000     -0.0000     -0.0000      0.0000      0.0000
        22        -0.0000     -0.0000      0.0000      0.0000      0.0000
        23         0.0000      0.4328     -0.0000      0.1873      0.0672
        24         0.4328     -0.0000     -0.0000      0.1873      0.0672
        25         0.0000      0.0000     -0.0000      0.0000      0.0000
        26         0.0000     -0.0000     -0.0000      0.0000      0.0000
        27        -0.0000      0.0000     -0.0000      0.0000      0.0000
        28         0.0000     -0.0000     -0.8289      0.6871      0.2598
        29         0.0000      0.0000      0.0000      0.0000      0.0000
        30        -0.0000      0.0000     -0.0000      0.0000      0.0000
        31         0.9679     -0.0000      0.0000      0.9369      0.3639
        32         0.0000      0.9679     -0.0000      0.9369      0.3639
        33        -0.0000     -0.0000     -0.6123      0.3749      0.1524
        34        -0.0000      0.0000     -0.0000      0.0000      0.0000
        35         0.0000     -0.0000      0.0000      0.0000      0.0000
        36        -0.0000      0.0000     -0.0719      0.0052      0.0024
        37        -0.0000     -0.0000      0.0000      0.0000      0.0000
        38        -0.0000      0.0000     -0.0000      0.0000      0.0000
        39         0.0000      0.0000      0.0000      0.0000      0.0000
        40         0.0000      0.0000     -0.0000      0.0000      0.0000
        41        -0.0000      0.3793     -0.0000      0.1439      0.0700
        42        -0.3793     -0.0000      0.0000      0.1439      0.0700
        43         0.0000     -0.0000     -0.0000      0.0000      0.0000
        44         0.0000     -0.0000      0.0000      0.0000      0.0000
        45         0.4537      0.0000      0.0000      0.2059      0.1041
        46        -0.0000      0.4537     -0.0000      0.2059      0.1041
        47        -0.0000     -0.4394     -0.0000      0.1931      0.0991
        48         0.4394     -0.0000      0.0000      0.1931      0.0991
        49         0.0000      0.0000     -1.2691      1.6106      0.8352
        50        -0.0000      0.0000     -0.0000      0.0000      0.0000
        51         0.0000     -0.0000      0.0000      0.0000      0.0000
        52         0.0000     -0.0000      0.0000      0.0000      0.0000
        53         0.0000     -0.0000      0.0000      0.0000      0.0000
        54         0.5122      0.0000      0.0000      0.2624      0.1450
        55        -0.0000      0.5122     -0.0000      0.2624      0.1450
        56         0.0000      0.0000      0.0000      0.0000      0.0000
        57         0.0000     -0.0000     -0.0000      0.0000      0.0000
        58        -0.0000     -0.0000      0.0000      0.0000      0.0000
        59        -0.0000      0.0000      0.0000      0.0000      0.0000
        60         0.0000     -0.0000      0.0000      0.0000      0.0000
        61         0.0000     -0.0000     -0.0000      0.0000      0.0000
        62        -0.0000      0.0000      0.0000      0.0000      0.0000
        63        -0.0000     -0.0000      0.0000      0.0000      0.0000
        64        -0.0000     -0.0000      0.0077      0.0001      0.0000
        65         0.0000     -0.0954      0.0000      0.0091      0.0053
        66         0.0953      0.0000      0.0000      0.0091      0.0053
        67         0.0000      0.0000      0.0000      0.0000      0.0000
        68         0.0000     -0.0000      0.0000      0.0000      0.0000
        69         0.0000     -0.0000     -0.0000      0.0000      0.0000
        70        -0.0001      0.0000     -0.5179      0.2682      0.1648
        71         0.0000     -0.0001      0.0000      0.0000      0.0000
        72         0.0000     -0.2885     -0.0000      0.0833      0.0515
        73        -0.2886     -0.0000      0.0001      0.0833      0.0515
        74         0.0000      0.6599      0.0000      0.4354      0.2723
        75         0.6598     -0.0000     -0.0000      0.4353      0.2723
        76         0.0000      0.0000     -0.1910      0.0365      0.0230
        77         0.0000     -0.0000     -0.0000      0.0000      0.0000
        78         0.0000     -0.0000      0.0000      0.0000      0.0000
        79         0.0000      0.0000     -0.1838      0.0338      0.0219
        80         0.0000      0.0000     -0.0000      0.0000      0.0000
        81         0.0000      0.0000     -0.0000      0.0000      0.0000
        82         0.0000     -0.0000     -0.0000      0.0000      0.0000
        83        -0.0000     -0.0000     -0.0000      0.0000      0.0000
        84        -0.0000     -0.3333     -0.0000      0.1111      0.0736
        85        -0.3334      0.0000     -0.0000      0.1111      0.0736
        86        -0.0000      0.0001      0.0000      0.0000      0.0000
        87        -0.0000      0.0000     -0.6287      0.3953      0.2656
        88         0.0000      0.0000     -0.0000      0.0000      0.0000
        89        -0.0000      0.0000     -0.0000      0.0000      0.0000
        90         0.0000     -0.0000     -0.0000      0.0000      0.0000
        91         0.0000      0.0000     -0.0000      0.0000      0.0000
        92        -0.0000      0.5136      0.0000      0.2638      0.1783
        93         0.5136      0.0000     -0.0000      0.2638      0.1782
        94         0.0000     -0.4725     -0.0000      0.2233      0.1522
        95        -0.4725     -0.0000      0.0000      0.2233      0.1522
        96        -0.0000      0.0000     -0.3451      0.1191      0.0813
        97         0.0000      0.0000      0.0000      0.0000      0.0000
        98        -0.0000     -0.0000      0.0000      0.0000      0.0000
        99        -0.0000     -0.0000      0.0000      0.0000      0.0000
       100        -0.2448      0.0000     -0.0000      0.0599      0.0426
       101        -0.0000     -0.2448      0.0000      0.0599      0.0426
       102         0.0000     -0.0000     -0.2388      0.0570      0.0406
       103         0.0000     -0.0000      0.0000      0.0000      0.0000
       104         0.0000     -0.0000      0.0000      0.0000      0.0000
       105        -0.0000     -0.0000      0.0000      0.0000      0.0000
       106        -0.0000      0.0000      0.0000      0.0000      0.0000
       107        -0.0000      0.0000     -0.0000      0.0000      0.0000
       108        -0.0000     -0.0000     -0.0000      0.0000      0.0000
       109         0.0000     -0.5357     -0.0000      0.2869      0.2103
       110         0.5356      0.0000     -0.0000      0.2869      0.2103
       111         0.0000      0.0000      0.0000      0.0000      0.0000
       112        -0.0000      0.0000     -0.0000      0.0000      0.0000
       113         0.0000     -0.0000     -0.0000      0.0000      0.0000
       114        -0.4643     -0.0000     -0.0000      0.2156      0.1601
       115         0.0000     -0.4643      0.0000      0.2156      0.1601
       116         0.0000     -0.0000      0.0000      0.0000      0.0000
       117         0.0000      0.0679     -0.0000      0.0046      0.0035
       118        -0.0679      0.0000     -0.0000      0.0046      0.0035
       119         0.0000     -0.0000     -0.0080      0.0001      0.0000
       120         0.1780      0.0000     -0.0000      0.0317      0.0247
       121        -0.0000      0.1780      0.0000      0.0317      0.0247
       122         0.0000      0.0000      0.0000      0.0000      0.0000
       123        -0.0000      0.0000     -0.0000      0.0000      0.0000
       124        -0.0000     -0.0000     -0.0000      0.0000      0.0000
       125         0.0000      0.0000      0.0000      0.0000      0.0000
       126        -0.2033     -0.0000      0.0006      0.0413      0.0350
       127         0.0000     -0.2033     -0.0000      0.0413      0.0350
       128        -0.0004      0.0000     -0.3330      0.1109      0.0941
       129         0.0000     -0.0000      0.0000      0.0000      0.0000
       130         0.0000     -0.0000      0.0000      0.0000      0.0000
       131         0.2328      0.0000     -0.0000      0.0542      0.0466
       132        -0.0000      0.2328      0.0000      0.0542      0.0466
       133        -0.0000     -0.0000      0.1378      0.0190      0.0165
       134         0.0000      0.0000      0.0000      0.0000      0.0000
       135        -0.0000     -0.0000      0.0822      0.0068      0.0061
       136        -0.0000     -0.0000      0.0000      0.0000      0.0000
       137        -0.0000      0.0000     -0.0000      0.0000      0.0000
       138         0.0000      0.0001      0.0000      0.0000      0.0000
       139         0.0019      0.0000      0.0592      0.0035      0.0033
       140        -0.0000      0.3126     -0.0000      0.0977      0.0912
       141         0.3127      0.0000     -0.0006      0.0978      0.0913
       142        -0.0000     -0.0000      0.0000      0.0000      0.0000
       143        -0.0000     -0.0000      0.0000      0.0000      0.0000
       144        -0.0000      0.0000      0.0000      0.0000      0.0000
       145        -0.4186      0.0000      0.0002      0.1752      0.1661
       146        -0.0000     -0.4186      0.0000      0.1753      0.1661
       147        -0.0001      0.0000     -0.9033      0.8160      0.7739
       148        -0.0001     -0.0000      0.6464      0.4178      0.4033
       149        -1.0737      0.0000     -0.0000      1.1527      1.1241
       150        -0.0000     -1.0737     -0.0000      1.1527      1.1241
       151         0.0000      0.0000     -0.0000      0.0000      0.0000
       152         0.0000     -0.0000      0.0000      0.0000      0.0000
       153        -0.0000      0.0000      0.0000      0.0000      0.0000
       154        -0.0000      0.0000     -0.0000      0.0000      0.0000
       155        -0.0000      0.0000      0.0000      0.0000      0.0000
       156        -0.0000      0.0000     -0.0000      0.0000      0.0000
       157         0.0000     -0.0000     -0.0000      0.0000      0.0000
       158         0.0000      0.0000      0.0000      0.0000      0.0000
       159         0.0000      0.0000      0.0000      0.0000      0.0000
       160         0.0000      0.0000     -0.0000      0.0000      0.0000
       161        -0.0000      0.0000     -0.0000      0.0000      0.0000
       162         0.0000      0.0000      0.0635      0.0040      0.0046
       163         0.0000     -0.0000     -0.0000      0.0000      0.0000
       164        -0.0000      0.0000     -0.0000      0.0000      0.0000
       165        -0.0000     -0.0000     -0.0000      0.0000      0.0000
       166         0.0000     -0.0000      0.0000      0.0000      0.0000
       167        -0.0000     -0.3131      0.0000      0.0980      0.1152
       168        -0.3131      0.0000      0.0002      0.0980      0.1152
       169         0.0001     -0.0000      0.6837      0.4675      0.5541
       170        -0.0000      0.0579     -0.0000      0.0034      0.0041
       171         0.0580      0.0000      0.0000      0.0034      0.0041
       172        -0.3619      0.0000     -0.0000      0.1309      0.1613
       173         0.0000      0.3619      0.0000      0.1310      0.1613
       174         0.0000     -0.0000      0.0000      0.0000      0.0000
       175         0.0000      0.0000      0.0000      0.0000      0.0000
       176        -0.0000     -0.0000      0.0000      0.0000      0.0000
       177         0.0000     -0.0000      0.0000      0.0000      0.0000
       178         0.0000     -0.0563      0.0000      0.0032      0.0041
       179        -0.0564     -0.0000     -0.0000      0.0032      0.0041
       180         0.0000     -0.0000     -0.0000      0.0000      0.0000
       181         0.0000     -0.0000      0.0000      0.0000      0.0000
       182        -0.0000      0.1367      0.0000      0.0187      0.0243
       183        -0.1366     -0.0000     -0.0000      0.0187      0.0243
       184        -0.0000      0.0000     -0.0000      0.0000      0.0000
       185        -0.0000      0.0000     -0.0000      0.0000      0.0000
       186        -0.0000      0.0000     -0.0000      0.0000      0.0000
       187        -0.0000      0.0000     -0.2994      0.0896      0.1240
       188        -0.0000     -0.0742     -0.0000      0.0055      0.0076
       189         0.0742     -0.0000     -0.0002      0.0055      0.0076
       190         0.0000     -0.0000      0.0000      0.0000      0.0000
       191         0.0000      0.0000      0.0000      0.0000      0.0000
       192         0.0000     -0.0002     -0.0000      0.0000      0.0000
       193        -0.0000      0.0000     -0.0000      0.0000      0.0000
       194        -0.0000     -0.0000     -0.0000      0.0000      0.0000
       195         0.0000      0.0000      0.0000      0.0000      0.0000
       196        -0.0000      0.0000     -0.0000      0.0000      0.0000
       197        -0.0000      0.0592     -0.0000      0.0035      0.0049
       198         0.0592      0.0000      0.0000      0.0035      0.0049
       199        -0.0000     -0.0000     -0.0000      0.0000      0.0000
       200         0.0000     -0.0000     -0.0000      0.0000      0.0000
       201        -0.0000     -0.0897     -0.0000      0.0080      0.0113
       202        -0.0896      0.0000     -0.0001      0.0080      0.0113
       203        -0.0000      0.0000      0.0000      0.0000      0.0000
       204        -0.0000      0.0000     -0.0000      0.0000      0.0000
       205        -0.0000     -0.0406      0.0000      0.0017      0.0023
       206        -0.0407      0.0000     -0.0000      0.0017      0.0023
       207        -0.0000      0.0000      0.0000      0.0000      0.0000
       208        -0.0000      0.0000      0.0216      0.0005      0.0007
       209        -0.0000     -0.1770      0.0000      0.0313      0.0450
       210        -0.1770      0.0000      0.0000      0.0313      0.0450
       211        -0.0000      0.0099     -0.0000      0.0001      0.0001
       212         0.0099      0.0000      0.0000      0.0001      0.0001
       213         0.0000     -0.0000      0.0000      0.0000      0.0000
       214        -0.0000     -0.0000     -0.0000      0.0000      0.0000
       215        -0.0000     -0.0000      0.0000      0.0000      0.0000
       216        -0.0000      0.0000      0.0000      0.0000      0.0000
       217         0.0000      0.0000     -0.1481      0.0219      0.0319
       218         0.0000     -0.0000     -0.0000      0.0000      0.0000
       219         0.0000      0.0000     -0.1210      0.0146      0.0214
       220        -0.0000      0.0000     -0.0000      0.0000      0.0000
       221         0.2946     -0.0000      0.0000      0.0868      0.1277
       222        -0.0000     -0.2946     -0.0000      0.0868      0.1277
       223        -0.0000     -0.0000      0.0000      0.0000      0.0000
       224        -0.0000     -0.0000     -0.0000      0.0000      0.0000
       225         0.0000     -0.0000      0.0000      0.0000      0.0000
       226        -0.0000      0.0000      0.0000      0.0000      0.0000
       227         0.0000      0.0000      0.0000      0.0000      0.0000
       228        -0.0000     -0.0000     -0.0000      0.0000      0.0000
       229        -0.0000     -0.0000      0.0000      0.0000      0.0000
       230         0.0000      0.0000      0.1736      0.0302      0.0464
       231         0.0000     -0.0000     -0.0000      0.0000      0.0000
       232         0.0000     -0.0000      0.0000      0.0000      0.0000
       233         0.0000     -0.0000     -0.0000      0.0000      0.0000
       234        -0.0000     -0.0000      0.0000      0.0000      0.0000
       235         0.0000     -0.0000     -0.0000      0.0000      0.0000
       236         0.0000     -0.0000     -0.0000      0.0000      0.0000
       237        -0.0000      0.0000      0.0000      0.0000      0.0000
       238        -0.0000     -0.0000     -0.0000      0.0000      0.0000
       239         0.1410     -0.0000      0.0000      0.0199      0.0313
       240         0.0000      0.1410      0.0000      0.0199      0.0313
       241        -0.0000     -0.0000      0.0000      0.0000      0.0000
       242        -0.0000      0.0000     -0.0000      0.0000      0.0000
       243        -0.0000     -0.0000     -0.0000      0.0000      0.0000
       244        -0.0000     -0.0000      0.0000      0.0000      0.0000
       245         0.0668      0.0000      0.0000      0.0045      0.0072
       246        -0.0000      0.0668      0.0000      0.0045      0.0072
       247        -0.0001     -0.0000      0.0549      0.0030      0.0049
       248        -0.0000      0.0000      0.0000      0.0000      0.0000
       249         0.0404      0.0000      0.0000      0.0016      0.0027
       250        -0.0000      0.0404     -0.0000      0.0016      0.0027
       251         0.0000     -0.0000      0.0000      0.0000      0.0000
       252        -0.0000      0.0000     -0.0000      0.0000      0.0000
       253        -0.0000     -0.0000      0.0000      0.0000      0.0000
       254         0.0000     -0.0000      0.0000      0.0000      0.0000
       255         0.0000      0.0442     -0.0000      0.0020      0.0033
       256         0.0442     -0.0000      0.0000      0.0020      0.0033
       257         0.0000      0.0000     -0.0000      0.0000      0.0000
       258        -0.0000      0.0000     -0.1746      0.0305      0.0524
       259        -0.0000      0.1069      0.0000      0.0114      0.0199
       260         0.1069      0.0000     -0.0000      0.0114      0.0199
       261         0.0261     -0.0000      0.0000      0.0007      0.0012
       262         0.0000      0.0261     -0.0000      0.0007      0.0012
       263        -0.0000     -0.0000     -0.0000      0.0000      0.0000
       264        -0.0000     -0.0346     -0.0000      0.0012      0.0021
       265         0.0346     -0.0000      0.0002      0.0012      0.0021
       266         0.0007      0.0000     -0.0100      0.0001      0.0002
       267        -0.0000      0.0871     -0.0000      0.0076      0.0136
       268        -0.0871     -0.0000     -0.0000      0.0076      0.0136
       269         0.0000     -0.0000     -0.0000      0.0000      0.0000
       270         0.0037     -0.0000      0.0000      0.0000      0.0000
       271         0.0000      0.0037      0.0000      0.0000      0.0000
       272        -0.0000     -0.0000     -0.0000      0.0000      0.0000
       273        -0.0000     -0.0000     -0.0000      0.0000      0.0000
       274         0.0000     -0.0000     -0.0000      0.0000      0.0000
       275        -0.0000      0.0000      0.0000      0.0000      0.0000
       276         0.0000      0.0000     -0.0906      0.0082      0.0151
       277         0.0000     -0.0000     -0.0000      0.0000      0.0000
       278         0.0000     -0.0000      0.0639      0.0041      0.0077
       279         0.0000     -0.0000     -0.0000      0.0000      0.0000
       280         0.0000      0.0000     -0.0000      0.0000      0.0000
       281         0.0000     -0.0000      0.0000      0.0000      0.0000
       282        -0.0000      0.0000      0.0000      0.0000      0.0000
       283        -0.0000     -0.0000     -0.0000      0.0000      0.0000
       284         0.0000      0.0000     -0.0000      0.0000      0.0000
       285        -0.0000     -0.0000     -0.0000      0.0000      0.0000
       286         0.0000     -0.0000     -0.0000      0.0000      0.0000
       287         0.0000     -0.0000      0.0000      0.0000      0.0000
       288         0.0000     -0.0000      0.0000      0.0000      0.0000
       289         0.0000     -0.0000     -0.0000      0.0000      0.0000
       290        -0.0000     -0.0000     -0.0000      0.0000      0.0000
       291         0.0000      0.0000      0.0000      0.0000      0.0000
       292        -0.0005      0.0000      0.0181      0.0003      0.0006
       293        -0.0992      0.0000     -0.0001      0.0098      0.0193
       294         0.0000      0.0992     -0.0000      0.0098      0.0193
       295        -0.0000      0.0000     -0.0000      0.0000      0.0000
       296         0.0000     -0.0000     -0.0000      0.0000      0.0000
       297        -0.0000     -0.0648     -0.0000      0.0042      0.0084
       298        -0.0648      0.0000      0.0000      0.0042      0.0084
       299        -0.0000     -0.0000     -0.0000      0.0000      0.0000
       300        -0.0000     -0.0697      0.0000      0.0049      0.0099
       301         0.0697     -0.0000     -0.0000      0.0049      0.0099
       302        -0.0000      0.0215     -0.0000      0.0005      0.0010
       303        -0.0215     -0.0000     -0.0000      0.0005      0.0010
       304        -0.0000      0.0948      0.0000      0.0090      0.0187
       305         0.0948      0.0000     -0.0000      0.0090      0.0187
       306        -0.0000      0.0000     -0.1014      0.0103      0.0216
       307         0.0000     -0.0000      0.1138      0.0130      0.0272
       308        -0.0000      0.0000      0.0000      0.0000      0.0000
       309         0.0000     -0.0000      0.0000      0.0000      0.0000
       310         0.0000     -0.0000      0.0540      0.0029      0.0063
       311        -0.0000     -0.0000      0.0000      0.0000      0.0000
       312         0.0000      0.0000     -0.0000      0.0000      0.0000
       313         0.0000      0.0000      0.0000      0.0000      0.0000
       314         0.0000      0.0000      0.0000      0.0000      0.0000
       315         0.0000     -0.0000      0.0000      0.0000      0.0000
       316        -0.0000      0.0000     -0.0000      0.0000      0.0000
       317        -0.0000     -0.0000      0.0000      0.0000      0.0000
       318         0.0000     -0.0000      0.0000      0.0000      0.0000
       319        -0.0000     -0.1343      0.0000      0.0180      0.0395
       320        -0.1343      0.0000     -0.0000      0.0180      0.0395
       321         0.0000      0.0002      0.0000      0.0000      0.0000
       322        -0.0000      0.0000      0.1333      0.0178      0.0390
       323         0.1121     -0.0000     -0.0000      0.0126      0.0277
       324        -0.0000     -0.1121     -0.0000      0.0126      0.0277
       325         0.0000     -0.0000     -0.0000      0.0000      0.0000
       326        -0.0107     -0.0000     -0.0000      0.0001      0.0003
       327         0.0000     -0.0107      0.0000      0.0001      0.0003
       328         0.0000     -0.0000     -0.0000      0.0000      0.0000
       329         0.0000     -0.0000     -0.0744      0.0055      0.0123
       330         0.0000     -0.0000     -0.0000      0.0000      0.0000
       331         0.0000     -0.0000     -0.0000      0.0000      0.0000
       332        -0.0000     -0.0000      0.0000      0.0000      0.0000
       333         0.0000      0.0000     -0.0000      0.0000      0.0000
       334         0.0000      0.0000      0.0000      0.0000      0.0000
       335         0.0765      0.0000     -0.0000      0.0058      0.0137
       336        -0.0000      0.0765      0.0000      0.0058      0.0137
       337        -0.0000      0.0000     -0.0878      0.0077      0.0181
       338        -0.0000      0.0000     -0.0000      0.0000      0.0000
       339        -0.0000     -0.0000     -0.0000      0.0000      0.0000
       340         0.0000     -0.0000     -0.0000      0.0000      0.0000
       341        -0.0000      0.0000      0.0000      0.0000      0.0000
       342        -0.1138     -0.0000     -0.0000      0.0130      0.0320
       343        -0.0000      0.1138     -0.0000      0.0130      0.0320
 Ground to excited state transition velocity dipole moments (Au):
       state          X           Y           Z        Dip. S.      Osc.
         1         0.0000     -0.0000      0.0000      0.0000      0.0000
         2        -0.0000     -0.0000      0.0000      0.0000      0.0000
         3         0.0000     -0.0000      0.0000      0.0000      0.0000
         4        -0.4970     -0.0000     -0.0000      0.2470      0.3777
         5         0.0000     -0.4970     -0.0000      0.2470      0.3777
         6         0.0000     -0.0000     -0.0000      0.0000      0.0000
         7         0.0000      0.3912      0.0000      0.1530      0.2282
         8         0.3912     -0.0000      0.0000      0.1530      0.2282
         9         0.0000      0.0000     -0.5143      0.2645      0.3839
        10         0.0000      0.0000     -0.6354      0.4037      0.5781
        11        -0.0000      0.2003      0.0000      0.0401      0.0570
        12        -0.2003     -0.0000     -0.0000      0.0401      0.0570
        13         0.0000     -0.0000      0.0000      0.0000      0.0000
        14         0.0000     -0.0000     -0.0000      0.0000      0.0000
        15         0.0000     -0.0000      0.0000      0.0000      0.0000
        16         0.0000     -0.3914     -0.0000      0.1532      0.2089
        17        -0.3914     -0.0000      0.0000      0.1532      0.2089
        18         0.0000     -0.0000     -0.0000      0.0000      0.0000
        19        -0.0000      0.0000      0.0000      0.0000      0.0000
        20        -0.0000     -0.0000     -0.0000      0.0000      0.0000
        21        -0.0000      0.0000     -0.0000      0.0000      0.0000
        22         0.0000      0.0000     -0.0000      0.0000      0.0000
        23        -0.0000     -0.2296      0.0000      0.0527      0.0652
        24        -0.2296      0.0000      0.0000      0.0527      0.0652
        25        -0.0000     -0.0000      0.0000      0.0000      0.0000
        26        -0.0000      0.0000      0.0000      0.0000      0.0000
        27         0.0000     -0.0000      0.0000      0.0000      0.0000
        28         0.0000      0.0000      0.5053      0.2553      0.3001
        29        -0.0000     -0.0000     -0.0000      0.0000      0.0000
        30         0.0000     -0.0000      0.0000      0.0000      0.0000
        31        -0.5681      0.0000     -0.0000      0.3227      0.3693
        32        -0.0000     -0.5681      0.0000      0.3227      0.3693
        33         0.0000      0.0000      0.3773      0.1424      0.1556
        34         0.0000      0.0000      0.0000      0.0000      0.0000
        35        -0.0000      0.0000     -0.0000      0.0000      0.0000
        36         0.0000     -0.0000      0.0711      0.0051      0.0049
        37         0.0000      0.0000     -0.0000      0.0000      0.0000
        38         0.0000     -0.0000      0.0000      0.0000      0.0000
        39        -0.0000     -0.0000     -0.0000      0.0000      0.0000
        40        -0.0000     -0.0000      0.0000      0.0000      0.0000
        41         0.0000     -0.2309      0.0000      0.0533      0.0487
        42         0.2309      0.0000     -0.0000      0.0533      0.0487
        43        -0.0000      0.0000      0.0000      0.0000      0.0000
        44        -0.0000      0.0000     -0.0000      0.0000      0.0000
        45        -0.2937     -0.0000     -0.0000      0.0863      0.0759
        46         0.0000     -0.2937      0.0000      0.0863      0.0759
        47         0.0000      0.3475      0.0000      0.1208      0.1046
        48        -0.3475      0.0000      0.0000      0.1208      0.1046
        49        -0.0000     -0.0000      0.8768      0.7688      0.6589
        50         0.0000     -0.0000      0.0000      0.0000      0.0000
        51        -0.0000     -0.0000     -0.0000      0.0000      0.0000
        52        -0.0000      0.0000     -0.0000      0.0000      0.0000
        53        -0.0000      0.0000     -0.0000      0.0000      0.0000
        54        -0.4204     -0.0000     -0.0000      0.1767      0.1421
        55         0.0000     -0.4204      0.0000      0.1767      0.1421
        56        -0.0000     -0.0000     -0.0000      0.0000      0.0000
        57        -0.0000      0.0000      0.0000      0.0000      0.0000
        58         0.0000      0.0000     -0.0000      0.0000      0.0000
        59         0.0000     -0.0000     -0.0000      0.0000      0.0000
        60        -0.0000      0.0000     -0.0000      0.0000      0.0000
        61        -0.0000      0.0000      0.0000      0.0000      0.0000
        62         0.0000     -0.0000     -0.0000      0.0000      0.0000
        63         0.0000      0.0000     -0.0000      0.0000      0.0000
        64         0.0000      0.0000     -0.0312      0.0010      0.0008
        65        -0.0000      0.0384      0.0000      0.0015      0.0011
        66        -0.0384     -0.0000     -0.0000      0.0015      0.0011
        67        -0.0000     -0.0000     -0.0000      0.0000      0.0000
        68        -0.0000      0.0000     -0.0000      0.0000      0.0000
        69        -0.0000     -0.0000      0.0000      0.0000      0.0000
        70         0.0001     -0.0000      0.3401      0.1156      0.0836
        71        -0.0000      0.0001     -0.0000      0.0000      0.0000
        72        -0.0000      0.2626      0.0000      0.0690      0.0496
        73         0.2627      0.0000     -0.0001      0.0690      0.0496
        74        -0.0000     -0.4976     -0.0000      0.2476      0.1760
        75        -0.4976      0.0000      0.0000      0.2476      0.1759
        76        -0.0000     -0.0000      0.2506      0.0628      0.0442
        77        -0.0000      0.0000      0.0000      0.0000      0.0000
        78        -0.0000      0.0000     -0.0000      0.0000      0.0000
        79        -0.0000     -0.0000      0.1335      0.0178      0.0122
        80        -0.0000     -0.0000      0.0000      0.0000      0.0000
        81        -0.0000     -0.0000      0.0000      0.0000      0.0000
        82        -0.0000      0.0000      0.0000      0.0000      0.0000
        83         0.0000      0.0000      0.0000      0.0000      0.0000
        84         0.0000      0.3528      0.0000      0.1245      0.0835
        85         0.3528     -0.0000      0.0000      0.1245      0.0836
        86         0.0000     -0.0001     -0.0000      0.0000      0.0000
        87         0.0000     -0.0000      0.6312      0.3984      0.2635
        88         0.0000     -0.0000      0.0000      0.0000      0.0000
        89         0.0000     -0.0000      0.0000      0.0000      0.0000
        90        -0.0000      0.0000      0.0000      0.0000      0.0000
        91        -0.0000     -0.0000      0.0000      0.0000      0.0000
        92         0.0000     -0.4689     -0.0000      0.2199      0.1446
        93        -0.4689     -0.0000      0.0000      0.2199      0.1446
        94        -0.0000      0.4240      0.0000      0.1798      0.1173
        95         0.4240      0.0000     -0.0000      0.1798      0.1173
        96         0.0000     -0.0000      0.3476      0.1208      0.0787
        97        -0.0000     -0.0000     -0.0000      0.0000      0.0000
        98         0.0000      0.0000     -0.0000      0.0000      0.0000
        99         0.0000     -0.0000     -0.0000      0.0000      0.0000
       100         0.2524     -0.0000      0.0000      0.0637      0.0398
       101         0.0000      0.2524     -0.0000      0.0637      0.0398
       102        -0.0000      0.0000      0.2413      0.0582      0.0363
       103        -0.0000      0.0000      0.0000      0.0000      0.0000
       104        -0.0000      0.0000     -0.0000      0.0000      0.0000
[...]
      8   0.000000D+00  0.000000D+00 -0.191817D+00  0.000000D+00  0.251027D+00
      9   0.000000D+00 -0.191832D+00  0.000000D+00 -0.251005D+00  0.000000D+00
     10   0.000000D+00 -0.342872D-04  0.000000D+00  0.291133D-04  0.000000D+00
     11   0.000000D+00  0.000000D+00  0.235549D+00  0.000000D+00  0.511376D-01
     12   0.000000D+00  0.000000D+00 -0.235594D+00  0.000000D+00 -0.522426D-01
     13   0.000000D+00  0.000000D+00  0.142737D-04  0.000000D+00 -0.532019D-03
     14   0.000000D+00 -0.235553D+00  0.000000D+00  0.516529D-01  0.000000D+00
     15   0.000000D+00 -0.190570D+00  0.000000D+00 -0.197097D+00  0.000000D+00
     16   0.000000D+00  0.000000D+00  0.190574D+00  0.000000D+00 -0.197080D+00
               276           277           278           279           280 
      1  -0.769892D+02 -0.769892D+02 -0.769347D+02 -0.769224D+02 -0.769224D+02
      2   0.000000D+00  0.000000D+00  0.000000D+00  0.000000D+00  0.000000D+00
      3  -0.468690D-05  0.000000D+00  0.000000D+00  0.000000D+00  0.000000D+00
      4  -0.906051D-01  0.000000D+00  0.639318D-01  0.000000D+00  0.000000D+00
      5   0.000000D+00  0.000000D+00  0.000000D+00  0.000000D+00  0.000000D+00
      6   0.313198D-04  0.000000D+00  0.231181D-05  0.000000D+00  0.000000D+00
      7   0.203322D+00  0.000000D+00 -0.167238D+00  0.000000D+00  0.000000D+00
      8   0.000000D+00  0.391786D-03  0.000000D+00  0.201470D-01  0.000000D+00
      9   0.000000D+00  0.000000D+00  0.000000D+00  0.000000D+00  0.201391D-01
     10   0.000000D+00  0.000000D+00  0.000000D+00  0.000000D+00 -0.574909D-05
     11   0.000000D+00  0.367998D+00  0.000000D+00  0.503192D+00  0.000000D+00
     12   0.000000D+00  0.367792D+00  0.000000D+00 -0.503194D+00  0.000000D+00
     13   0.000000D+00  0.403196D+00  0.000000D+00 -0.526438D-04  0.000000D+00
     14   0.000000D+00  0.000000D+00  0.000000D+00  0.000000D+00 -0.503208D+00
     15   0.000000D+00  0.000000D+00  0.000000D+00  0.000000D+00 -0.122490D+00
     16   0.000000D+00 -0.270406D-03  0.000000D+00  0.122471D+00  0.000000D+00
               281           282           283           284           285 
      1  -0.769071D+02 -0.769071D+02 -0.769054D+02 -0.768974D+02 -0.768854D+02
      2   0.000000D+00  0.000000D+00  0.000000D+00  0.000000D+00  0.000000D+00
      3   0.000000D+00  0.000000D+00  0.000000D+00  0.000000D+00  0.000000D+00
      4   0.000000D+00  0.000000D+00  0.000000D+00  0.000000D+00  0.000000D+00
      5   0.000000D+00  0.000000D+00  0.000000D+00  0.000000D+00  0.000000D+00
      6   0.000000D+00  0.000000D+00  0.000000D+00  0.000000D+00  0.000000D+00
      7   0.000000D+00  0.000000D+00  0.000000D+00  0.000000D+00  0.000000D+00
      8   0.000000D+00  0.113976D+00  0.000000D+00  0.649006D-04  0.344078D+00
      9   0.113940D+00  0.000000D+00 -0.813091D-04  0.000000D+00  0.000000D+00
     10   0.136455D-03  0.000000D+00  0.224619D+00  0.000000D+00  0.000000D+00
     11   0.000000D+00  0.119977D+00  0.000000D+00  0.843343D-01  0.356156D+00
     12   0.000000D+00 -0.120030D+00  0.000000D+00  0.843451D-01 -0.356161D+00
     13   0.000000D+00  0.981958D-04  0.000000D+00 -0.156321D+00  0.204716D-05
     14  -0.119919D+00  0.000000D+00  0.716036D-04  0.000000D+00  0.000000D+00
     15   0.475319D+00  0.000000D+00 -0.283809D-03  0.000000D+00  0.000000D+00
     16   0.000000D+00 -0.475281D+00  0.000000D+00 -0.138327D-03 -0.109188D+00
               286           287           288           289           290 
      1  -0.768854D+02 -0.768197D+02 -0.768197D+02 -0.768182D+02 -0.768102D+02
      2   0.000000D+00  0.000000D+00  0.000000D+00 -0.836029D-05  0.000000D+00
      3   0.000000D+00  0.000000D+00  0.000000D+00  0.000000D+00  0.000000D+00
      4   0.000000D+00  0.000000D+00  0.000000D+00  0.000000D+00  0.000000D+00
      5   0.000000D+00  0.000000D+00  0.000000D+00  0.274741D-04  0.000000D+00
      6   0.000000D+00  0.000000D+00  0.000000D+00  0.000000D+00  0.000000D+00
      7   0.000000D+00  0.000000D+00  0.000000D+00  0.000000D+00  0.000000D+00
      8   0.000000D+00  0.000000D+00  0.633861D-01  0.000000D+00  0.000000D+00
      9  -0.344099D+00  0.634260D-01  0.000000D+00  0.000000D+00  0.189837D+00
     10   0.114620D-05  0.346570D-05  0.000000D+00  0.000000D+00  0.238049D-05
     11   0.000000D+00  0.000000D+00  0.130339D+00  0.000000D+00  0.000000D+00
     12   0.000000D+00  0.000000D+00 -0.130346D+00  0.000000D+00  0.000000D+00
     13   0.000000D+00  0.000000D+00 -0.261764D-04  0.000000D+00  0.000000D+00
     14   0.356212D+00 -0.130325D+00  0.000000D+00  0.000000D+00  0.235240D+00
     15  -0.109197D+00  0.376541D+00  0.000000D+00  0.000000D+00  0.445190D+00
     16   0.000000D+00  0.000000D+00 -0.376475D+00  0.000000D+00  0.000000D+00
               291           292           293           294           295 
      1  -0.768102D+02 -0.768072D+02 -0.768069D+02 -0.768069D+02 -0.768061D+02
      2   0.000000D+00  0.000000D+00  0.000000D+00  0.991825D-01  0.000000D+00
      3   0.000000D+00  0.492803D-03  0.991782D-01  0.000000D+00  0.000000D+00
      4   0.000000D+00  0.181160D-01 -0.935481D-04  0.000000D+00  0.000000D+00
      5   0.000000D+00  0.000000D+00  0.000000D+00 -0.345157D+00  0.000000D+00
      6   0.000000D+00 -0.171575D-02 -0.345146D+00  0.000000D+00  0.000000D+00
      7   0.000000D+00 -0.129617D+00  0.653295D-03  0.000000D+00  0.000000D+00
      8  -0.189862D+00  0.000000D+00  0.000000D+00  0.000000D+00  0.464449D-04
      9   0.000000D+00  0.000000D+00  0.000000D+00  0.000000D+00  0.000000D+00
     10   0.000000D+00  0.000000D+00  0.000000D+00  0.000000D+00  0.000000D+00
     11   0.235233D+00  0.000000D+00  0.000000D+00  0.000000D+00  0.952748D-01
     12  -0.235181D+00  0.000000D+00  0.000000D+00  0.000000D+00  0.953878D-01
     13  -0.165277D-03  0.000000D+00  0.000000D+00  0.000000D+00 -0.720205D+00
     14   0.000000D+00  0.000000D+00  0.000000D+00  0.000000D+00  0.000000D+00
     15   0.000000D+00  0.000000D+00  0.000000D+00  0.000000D+00  0.000000D+00
     16   0.445220D+00  0.000000D+00  0.000000D+00  0.000000D+00 -0.114511D-03
               296           297           298           299           300 
      1  -0.767919D+02 -0.767322D+02 -0.767321D+02 -0.767261D+02 -0.766814D+02
      2   0.000000D+00 -0.647836D-01  0.000000D+00  0.000000D+00 -0.696752D-01
      3   0.000000D+00  0.000000D+00  0.647768D-01  0.000000D+00  0.000000D+00
      4   0.000000D+00  0.000000D+00  0.000000D+00  0.000000D+00  0.000000D+00
      5   0.000000D+00  0.127228D+00  0.000000D+00  0.000000D+00  0.172163D+00
      6   0.000000D+00  0.000000D+00 -0.127210D+00  0.000000D+00  0.000000D+00
      7   0.000000D+00  0.000000D+00 -0.520666D-05  0.000000D+00  0.000000D+00
      8  -0.518259D-04  0.000000D+00  0.000000D+00  0.639280D-05  0.000000D+00
      9   0.000000D+00  0.000000D+00  0.000000D+00  0.000000D+00  0.000000D+00
     10   0.000000D+00  0.000000D+00  0.000000D+00  0.000000D+00  0.000000D+00
     11   0.588598D-01  0.000000D+00  0.000000D+00  0.815119D-01  0.000000D+00
     12   0.588719D-01  0.000000D+00  0.000000D+00  0.815143D-01  0.000000D+00
     13  -0.708606D+00  0.000000D+00  0.000000D+00  0.473214D+00  0.000000D+00
     14   0.000000D+00  0.000000D+00  0.000000D+00  0.000000D+00  0.000000D+00
     15   0.000000D+00  0.000000D+00  0.000000D+00  0.000000D+00  0.000000D+00
     16   0.688628D-04  0.000000D+00  0.000000D+00 -0.688989D-05  0.000000D+00
               301           302           303           304           305 
      1  -0.766814D+02 -0.766284D+02 -0.766284D+02 -0.766202D+02 -0.766202D+02
      2   0.000000D+00  0.215148D-01  0.000000D+00  0.947673D-01  0.000000D+00
      3  -0.696808D-01  0.000000D+00  0.215220D-01  0.000000D+00 -0.947659D-01
      4   0.000000D+00  0.000000D+00 -0.111264D-04  0.000000D+00 -0.104898D-04
      5   0.000000D+00 -0.589493D-01  0.000000D+00 -0.267275D+00  0.000000D+00
      6   0.172179D+00  0.000000D+00 -0.589726D-01  0.000000D+00  0.267272D+00
      7   0.354560D-05  0.000000D+00  0.370201D-04  0.000000D+00  0.340935D-04
      8   0.000000D+00  0.000000D+00  0.000000D+00  0.000000D+00  0.000000D+00
      9   0.000000D+00  0.000000D+00  0.000000D+00  0.000000D+00  0.000000D+00
     10   0.000000D+00  0.000000D+00  0.000000D+00  0.000000D+00  0.000000D+00
     11   0.000000D+00  0.000000D+00  0.000000D+00  0.000000D+00  0.000000D+00
     12   0.000000D+00  0.000000D+00  0.000000D+00  0.000000D+00  0.000000D+00
     13   0.000000D+00  0.000000D+00  0.000000D+00  0.000000D+00  0.000000D+00
     14   0.000000D+00  0.000000D+00  0.000000D+00  0.000000D+00  0.000000D+00
     15   0.000000D+00  0.000000D+00  0.000000D+00  0.000000D+00  0.000000D+00
     16   0.000000D+00  0.000000D+00  0.000000D+00  0.000000D+00  0.000000D+00
               306           307           308           309           310 
      1  -0.766013D+02 -0.765950D+02 -0.765366D+02 -0.765366D+02 -0.765336D+02
      2   0.000000D+00  0.000000D+00  0.000000D+00  0.000000D+00  0.000000D+00
      3   0.985127D-05 -0.685984D-05  0.000000D+00  0.000000D+00 -0.100091D-04
      4  -0.101410D+00  0.113820D+00  0.000000D+00  0.000000D+00  0.540288D-01
      5   0.000000D+00  0.000000D+00  0.000000D+00  0.000000D+00  0.000000D+00
      6  -0.254656D-04  0.186455D-04  0.000000D+00  0.000000D+00  0.283546D-04
      7   0.321176D+00 -0.372852D+00  0.000000D+00  0.000000D+00 -0.165430D+00
      8   0.000000D+00  0.000000D+00  0.000000D+00 -0.172781D+00  0.000000D+00
      9   0.000000D+00  0.000000D+00 -0.172711D+00  0.000000D+00  0.000000D+00
     10   0.000000D+00  0.000000D+00 -0.212777D-05  0.000000D+00  0.000000D+00
     11   0.000000D+00  0.000000D+00  0.000000D+00  0.158824D+00  0.000000D+00
     12   0.000000D+00  0.000000D+00  0.000000D+00 -0.158812D+00  0.000000D+00
     13   0.000000D+00  0.000000D+00  0.000000D+00 -0.183412D-04  0.000000D+00
     14   0.000000D+00  0.000000D+00 -0.158839D+00  0.000000D+00  0.000000D+00
     15   0.000000D+00  0.000000D+00 -0.407465D+00  0.000000D+00  0.000000D+00
     16   0.000000D+00  0.000000D+00  0.000000D+00  0.407485D+00  0.000000D+00
               311           312           313           314           315 
      1  -0.765241D+02 -0.765241D+02 -0.765191D+02 -0.765031D+02 -0.764987D+02
      2   0.000000D+00  0.000000D+00  0.000000D+00  0.000000D+00  0.000000D+00
      3   0.000000D+00  0.000000D+00  0.000000D+00  0.000000D+00  0.000000D+00
      4   0.000000D+00  0.000000D+00  0.000000D+00  0.000000D+00  0.000000D+00
      5   0.000000D+00  0.000000D+00  0.000000D+00  0.000000D+00  0.000000D+00
      6   0.000000D+00  0.000000D+00  0.000000D+00  0.000000D+00  0.000000D+00
      7   0.000000D+00  0.000000D+00  0.000000D+00  0.000000D+00  0.000000D+00
      8   0.000000D+00  0.427279D+00  0.000000D+00  0.899552D-04  0.309390D+00
      9   0.427343D+00  0.000000D+00  0.190000D-03  0.000000D+00  0.000000D+00
     10  -0.162284D-04  0.000000D+00  0.332969D-01  0.000000D+00  0.000000D+00
     11   0.000000D+00  0.137543D+00  0.000000D+00  0.127817D+00 -0.120545D+00
     12   0.000000D+00 -0.137532D+00  0.000000D+00  0.127911D+00  0.120507D+00
     13   0.000000D+00  0.506063D-04  0.000000D+00  0.998311D+00 -0.116611D-03
     14  -0.137524D+00  0.000000D+00 -0.963401D-05  0.000000D+00  0.000000D+00
     15   0.201562D-01  0.000000D+00  0.904843D-04  0.000000D+00  0.000000D+00
     16   0.000000D+00 -0.201032D-01  0.000000D+00 -0.130616D-03 -0.559581D+00
               316           317           318           319           320 
      1  -0.764987D+02 -0.764934D+02 -0.764934D+02 -0.764624D+02 -0.764624D+02
      2   0.000000D+00  0.000000D+00  0.000000D+00 -0.134331D+00  0.000000D+00
      3   0.000000D+00  0.000000D+00  0.000000D+00  0.000000D+00  0.134318D+00
      4   0.000000D+00  0.000000D+00  0.000000D+00  0.000000D+00 -0.627365D-05
      5   0.000000D+00  0.000000D+00  0.000000D+00  0.464833D+00  0.000000D+00
      6   0.000000D+00  0.000000D+00  0.000000D+00  0.000000D+00 -0.464801D+00
      7   0.000000D+00  0.000000D+00  0.000000D+00  0.000000D+00  0.180742D-04
      8   0.000000D+00  0.000000D+00  0.637245D+00  0.000000D+00  0.000000D+00
      9   0.309147D+00 -0.637356D+00  0.000000D+00  0.000000D+00  0.000000D+00
     10   0.215438D-05  0.691727D-05  0.000000D+00  0.000000D+00  0.000000D+00
     11   0.000000D+00  0.000000D+00 -0.144135D+00  0.000000D+00  0.000000D+00
     12   0.000000D+00  0.000000D+00  0.144108D+00  0.000000D+00  0.000000D+00
     13   0.000000D+00  0.000000D+00 -0.115659D-03  0.000000D+00  0.000000D+00
     14   0.120463D+00 -0.144168D+00  0.000000D+00  0.000000D+00  0.000000D+00
     15   0.559346D+00 -0.604320D+00  0.000000D+00  0.000000D+00  0.000000D+00
     16   0.000000D+00  0.000000D+00 -0.604103D+00  0.000000D+00  0.000000D+00
               321           322           323           324           325 
      1  -0.764620D+02 -0.764500D+02 -0.764347D+02 -0.764347D+02 -0.764095D+02
      2   0.242439D-03  0.000000D+00  0.000000D+00 -0.112053D+00  0.000000D+00
      3   0.000000D+00  0.400463D-05 -0.112064D+00  0.000000D+00  0.000000D+00
      4   0.000000D+00  0.133283D+00 -0.455542D-05  0.000000D+00  0.000000D+00
      5  -0.835503D-03  0.000000D+00  0.000000D+00  0.247375D+00  0.000000D+00
      6   0.000000D+00 -0.143894D-04  0.247412D+00  0.000000D+00  0.000000D+00
      7   0.000000D+00 -0.392069D+00  0.143938D-04  0.000000D+00  0.000000D+00
      8   0.000000D+00  0.000000D+00  0.000000D+00  0.000000D+00  0.536278D-05
      9   0.000000D+00  0.000000D+00  0.000000D+00  0.000000D+00  0.000000D+00
     10   0.000000D+00  0.000000D+00  0.000000D+00  0.000000D+00  0.000000D+00
     11   0.000000D+00  0.000000D+00  0.000000D+00  0.000000D+00  0.139684D+00
     12   0.000000D+00  0.000000D+00  0.000000D+00  0.000000D+00  0.139685D+00
     13   0.000000D+00  0.000000D+00  0.000000D+00  0.000000D+00 -0.785619D+00
     14   0.000000D+00  0.000000D+00  0.000000D+00  0.000000D+00  0.000000D+00
     15   0.000000D+00  0.000000D+00  0.000000D+00  0.000000D+00  0.000000D+00
     16   0.000000D+00  0.000000D+00  0.000000D+00  0.000000D+00 -0.443153D-05
               326           327           328           329           330 
      1  -0.764073D+02 -0.764073D+02 -0.764063D+02 -0.764021D+02 -0.763505D+02
      2   0.000000D+00 -0.106870D-01 -0.607892D-05  0.000000D+00  0.000000D+00
      3   0.106901D-01  0.000000D+00  0.000000D+00 -0.283532D-05  0.000000D+00
      4   0.000000D+00  0.000000D+00  0.000000D+00 -0.744070D-01  0.000000D+00
      5   0.000000D+00 -0.154840D-01 -0.145031D-05  0.000000D+00  0.000000D+00
      6   0.154708D-01  0.000000D+00  0.000000D+00  0.382718D-05  0.000000D+00
      7   0.296811D-05  0.000000D+00  0.000000D+00  0.243435D+00  0.000000D+00
      8   0.000000D+00  0.000000D+00  0.000000D+00  0.000000D+00  0.000000D+00
      9   0.000000D+00  0.000000D+00  0.000000D+00  0.000000D+00 -0.742055D-05
     10   0.000000D+00  0.000000D+00  0.000000D+00  0.000000D+00  0.440650D-01
     11   0.000000D+00  0.000000D+00  0.000000D+00  0.000000D+00  0.000000D+00
     12   0.000000D+00  0.000000D+00  0.000000D+00  0.000000D+00  0.000000D+00
     13   0.000000D+00  0.000000D+00  0.000000D+00  0.000000D+00  0.000000D+00
     14   0.000000D+00  0.000000D+00  0.000000D+00  0.000000D+00  0.633720D-05
     15   0.000000D+00  0.000000D+00  0.000000D+00  0.000000D+00  0.209465D-05
     16   0.000000D+00  0.000000D+00  0.000000D+00  0.000000D+00  0.000000D+00
               331           332           333           334           335 
      1  -0.763476D+02 -0.763468D+02 -0.763468D+02 -0.763386D+02 -0.762403D+02
      2   0.000000D+00  0.000000D+00  0.000000D+00  0.000000D+00  0.000000D+00
      3   0.000000D+00  0.000000D+00  0.000000D+00  0.000000D+00 -0.764778D-01
      4   0.000000D+00  0.000000D+00  0.000000D+00  0.000000D+00 -0.470124D-05
      5   0.000000D+00  0.000000D+00  0.000000D+00  0.000000D+00  0.000000D+00
      6   0.000000D+00  0.000000D+00  0.000000D+00  0.000000D+00  0.218621D+00
      7   0.000000D+00  0.000000D+00  0.000000D+00  0.000000D+00  0.918846D-05
      8   0.705860D-04  0.000000D+00  0.449098D+00  0.648515D-04  0.000000D+00
      9   0.000000D+00  0.449102D+00  0.000000D+00  0.000000D+00  0.000000D+00
     10   0.000000D+00 -0.128554D-05  0.000000D+00  0.000000D+00  0.000000D+00
     11  -0.327384D-02  0.000000D+00  0.129038D+00 -0.881618D-01  0.000000D+00
     12  -0.332735D-02  0.000000D+00 -0.129024D+00 -0.881996D-01  0.000000D+00
     13  -0.773023D+00  0.000000D+00 -0.712692D-05  0.116858D+01  0.000000D+00
     14   0.000000D+00 -0.129025D+00  0.000000D+00  0.000000D+00  0.000000D+00
     15   0.000000D+00  0.434960D+00  0.000000D+00  0.000000D+00  0.000000D+00
     16  -0.666905D-04  0.000000D+00 -0.434955D+00 -0.564288D-04  0.000000D+00
               336           337           338           339           340 
      1  -0.762403D+02 -0.762198D+02 -0.761785D+02 -0.761785D+02 -0.760984D+02
      2   0.764770D-01  0.000000D+00  0.000000D+00  0.000000D+00  0.000000D+00
      3   0.000000D+00  0.757047D-05  0.000000D+00  0.000000D+00  0.000000D+00
      4   0.000000D+00 -0.877977D-01  0.000000D+00  0.000000D+00  0.000000D+00
      5  -0.218619D+00  0.000000D+00  0.000000D+00  0.000000D+00  0.000000D+00
      6   0.000000D+00 -0.232596D-04  0.000000D+00  0.000000D+00  0.000000D+00
      7   0.000000D+00  0.218398D+00  0.000000D+00  0.000000D+00  0.000000D+00
      8   0.000000D+00  0.000000D+00  0.521325D+00  0.000000D+00 -0.315383D+00
      9   0.000000D+00  0.000000D+00  0.000000D+00 -0.521331D+00  0.000000D+00
     10   0.000000D+00  0.000000D+00  0.000000D+00  0.000000D+00  0.000000D+00
     11   0.000000D+00  0.000000D+00 -0.130721D+00  0.000000D+00  0.168794D+00
     12   0.000000D+00  0.000000D+00  0.130727D+00  0.000000D+00 -0.168798D+00
     13   0.000000D+00  0.000000D+00  0.389952D-04  0.000000D+00 -0.648500D-05
     14   0.000000D+00  0.000000D+00  0.000000D+00 -0.130728D+00  0.000000D+00
     15   0.000000D+00  0.000000D+00  0.000000D+00 -0.328335D+00  0.000000D+00
     16   0.000000D+00  0.000000D+00 -0.328332D+00  0.000000D+00  0.318383D+00
               341           342           343 
      1  -0.760984D+02 -0.760351D+02 -0.760351D+02
      2   0.000000D+00  0.000000D+00  0.113812D+00
      3   0.000000D+00  0.113810D+00  0.000000D+00
      4   0.000000D+00  0.000000D+00  0.000000D+00
      5   0.000000D+00  0.000000D+00 -0.337989D+00
      6   0.000000D+00 -0.337983D+00  0.000000D+00
      7   0.000000D+00  0.299980D-05  0.000000D+00
      8   0.000000D+00  0.000000D+00  0.000000D+00
      9  -0.315387D+00  0.000000D+00  0.000000D+00
     10  -0.143477D-05  0.000000D+00  0.000000D+00
     11   0.000000D+00  0.000000D+00  0.000000D+00
     12   0.000000D+00  0.000000D+00  0.000000D+00
     13   0.000000D+00  0.000000D+00  0.000000D+00
     14  -0.168802D+00  0.000000D+00  0.000000D+00
     15  -0.318391D+00  0.000000D+00  0.000000D+00
     16   0.000000D+00  0.000000D+00  0.000000D+00
 Unable to Open any file for archive entry.
 1\1\GINC-HEL13\SP\RwB97XD TD-FC\def2SVP\C2H6\PRAKRITI\14-Aug-2021\0\\#
 P TD(Nstates=10000) wB97XD/def2SVP SCF(maxcycles=100) Int(Grid=ultrafi
 ne)\\xGDB7_00001_tier4.com\\0,1\C,0,0.,0.,0.761748\C,0,0.,0.,-0.761748
 \H,0,0.,1.024459,1.164419\H,0,0.887208,-0.51223,1.164419\H,0,-0.887208
 ,-0.51223,1.164419\H,0,0.887208,0.51223,-1.164419\H,0,-0.887208,0.5122
 3,-1.164419\H,0,0.,-1.024459,-1.164419\\Version=EM64L-G16RevC.01\State
 =1-AG\HF=-79.7456978\RMSD=2.039e-09\PG=S06 [C3(C1.C1),X(H6)]\\@
 The archive entry for this job was punched.


 THERE ARE PEOPLE SO ADDICTED TO EXAGERATING THEY
 CAN'T TELL THE TRUTH WITHOUT LYING. -- FORTUNE COOKIE
 Job cpu time:       0 days  0 hours  1 minutes 21.2 seconds.
 Elapsed time:       0 days  0 hours  0 minutes 10.5 seconds.
 File lengths (MBytes):  RWF=    152 Int=      0 D2E=      0 Chk=     31 Scr=      1
 Normal termination of Gaussian 16 at Sat Aug 14 07:22:48 2021.
