
                                        *****************
                                        * O   R   C   A *
                                        *****************

                                            #,                                       
                                            ###                                      
                                            ####                                     
                                            #####                                    
                                            ######                                   
                                           ########,                                 
                                     ,,################,,,,,                         
                               ,,#################################,,                 
                          ,,##########################################,,             
                       ,#########################################, ''#####,          
                    ,#############################################,,   '####,        
                  ,##################################################,,,,####,       
                ,###########''''           ''''###############################       
              ,#####''   ,,,,##########,,,,          '''####'''          '####       
            ,##' ,,,,###########################,,,                        '##       
           ' ,,###''''                  '''############,,,                           
         ,,##''                                '''############,,,,        ,,,,,,###''
      ,#''                                            '''#######################'''  
     '                                                          ''''####''''         
             ,#######,   #######,   ,#######,      ##                                
            ,#'     '#,  ##    ##  ,#'     '#,    #''#        ######   ,####,        
            ##       ##  ##   ,#'  ##            #'  '#       #        #'  '#        
            ##       ##  #######   ##           ,######,      #####,   #    #        
            '#,     ,#'  ##    ##  '#,     ,#' ,#      #,         ##   #,  ,#        
             '#######'   ##     ##  '#######'  #'      '#     #####' # '####'        



                  #######################################################
                  #                        -***-                        #
                  #          Department of theory and spectroscopy      #
                  #    Directorship and core code : Frank Neese         #
                  #        Max Planck Institute fuer Kohlenforschung    #
                  #                Kaiser Wilhelm Platz 1               #
                  #                 D-45470 Muelheim/Ruhr               #
                  #                      Germany                        #
                  #                                                     #
                  #                  All rights reserved                #
                  #                        -***-                        #
                  #######################################################


                         Program Version 5.0.0 -  RELEASE  -
                                (SVN: $Rev: 19529$)
                ($Date: 2021-06-28 11:36:33 +0200 (Mo, 28 Jun 2021) $)


 With contributions from (in alphabetic order):
   Daniel Aravena         : Magnetic Suceptibility
   Michael Atanasov       : Ab Initio Ligand Field Theory (pilot matlab implementation)
   Alexander A. Auer      : GIAO ZORA, VPT2 properties, NMR spectrum
   Ute Becker             : Parallelization
   Giovanni Bistoni       : ED, misc. LED, open-shell LED, HFLD
   Martin Brehm           : Molecular dynamics
   Dmytro Bykov           : SCF Hessian
   Vijay G. Chilkuri      : MRCI spin determinant printing, contributions to CSF-ICE
   Dipayan Datta          : RHF DLPNO-CCSD density
   Achintya Kumar Dutta   : EOM-CC, STEOM-CC
   Dmitry Ganyushin       : Spin-Orbit,Spin-Spin,Magnetic field MRCI
   Miquel Garcia          : C-PCM Hessian, Gaussian charge scheme
   Yang Guo               : DLPNO-NEVPT2, F12-NEVPT2, CIM, IAO-localization
   Andreas Hansen         : Spin unrestricted coupled pair/coupled cluster methods
   Benjamin Helmich-Paris : MC-RPA, TRAH-SCF, COSX integrals
   Lee Huntington         : MR-EOM, pCC
   Robert Izsak           : Overlap fitted RIJCOSX, COSX-SCS-MP3, EOM
   Marcus Kettner         : VPT2
   Christian Kollmar      : KDIIS, OOCD, Brueckner-CCSD(T), CCSD density, CASPT2, CASPT2-K
   Simone Kossmann        : Meta GGA functionals, TD-DFT gradient, OOMP2, MP2 Hessian
   Martin Krupicka        : Initial AUTO-CI
   Lucas Lang             : DCDCAS
   Marvin Lechner         : AUTO-CI (C++ implementation), FIC-MRCC
   Dagmar Lenk            : GEPOL surface, SMD
   Dimitrios Liakos       : Extrapolation schemes; Compound Job, initial MDCI parallelization
   Dimitrios Manganas     : Further ROCIS development; embedding schemes
   Dimitrios Pantazis     : SARC Basis sets
   Anastasios Papadopoulos: AUTO-CI, single reference methods and gradients
   Taras Petrenko         : DFT Hessian,TD-DFT gradient, ASA, ECA, R-Raman, ABS, FL, XAS/XES, NRVS
   Peter Pinski           : DLPNO-MP2, DLPNO-MP2 Gradient
   Christoph Reimann      : Effective Core Potentials
   Marius Retegan         : Local ZFS, SOC
   Christoph Riplinger    : Optimizer, TS searches, QM/MM, DLPNO-CCSD(T), (RO)-DLPNO pert. Triples
   Tobias Risthaus        : Range-separated hybrids, TD-DFT gradient, RPA, STAB
   Michael Roemelt        : Original ROCIS implementation
   Masaaki Saitow         : Open-shell DLPNO-CCSD energy and density
   Barbara Sandhoefer     : DKH picture change effects
   Avijit Sen             : IP-ROCIS
   Kantharuban Sivalingam : CASSCF convergence, NEVPT2, FIC-MRCI
   Bernardo de Souza      : ESD, SOC TD-DFT
   Georgi Stoychev        : AutoAux, RI-MP2 NMR
   Willem Van den Heuvel  : Paramagnetic NMR
   Boris Wezisla          : Elementary symmetry handling
   Frank Wennmohs         : Technical directorship


 We gratefully acknowledge several colleagues who have allowed us to
 interface, adapt or use parts of their codes:
   Stefan Grimme, W. Hujo, H. Kruse, P. Pracht,  : VdW corrections, initial TS optimization,
                  C. Bannwarth, S. Ehlert          DFT functionals, gCP, sTDA/sTD-DF
   Ed Valeev, F. Pavosevic, A. Kumar             : LibInt (2-el integral package), F12 methods
   Garnet Chan, S. Sharma, J. Yang, R. Olivares  : DMRG
   Ulf Ekstrom                                   : XCFun DFT Library
   Mihaly Kallay                                 : mrcc  (arbitrary order and MRCC methods)
   Jiri Pittner, Ondrej Demel                    : Mk-CCSD
   Frank Weinhold                                : gennbo (NPA and NBO analysis)
   Christopher J. Cramer and Donald G. Truhlar   : smd solvation model
   Lars Goerigk                                  : TD-DFT with DH, B97 family of functionals
   V. Asgeirsson, H. Jonsson                     : NEB implementation
   FAccTs GmbH                                   : IRC, NEB, NEB-TS, DLPNO-Multilevel, CI-OPT
                                                   MM, QMMM, 2- and 3-layer-ONIOM, Crystal-QMMM,
                                                   LR-CPCM, SF, NACMEs, symmetry and pop. for TD-DFT,
                                                   nearIR, NL-DFT gradient (VV10), updates on ESD,
                                                   ML-optimized integration grids
   S Lehtola, MJT Oliveira, MAL Marques          : LibXC Library
   Liviu Ungur et al                             : ANISO software


 Your calculation uses the libint2 library for the computation of 2-el integrals
 For citations please refer to: http://libint.valeyev.net

 Your ORCA version has been built with support for libXC version: 5.1.0
 For citations please refer to: https://tddft.org/programs/libxc/

 This ORCA versions uses:
   CBLAS   interface :  Fast vector & matrix operations
   LAPACKE interface :  Fast linear algebra routines
   SCALAPACK package :  Parallel linear algebra routines
   Shared memory     :  Shared parallel matrices
   BLAS/LAPACK       :  OpenBLAS 0.3.15  USE64BITINT DYNAMIC_ARCH NO_AFFINITY Haswell SINGLE_THREADED
        Core in use  :  Haswell
   Copyright (c) 2011-2014, The OpenBLAS Project




***************************************
The coordinates will be read from file: 000018.xyz
***************************************


================================================================================

----- Orbital basis set information -----
Your calculation utilizes the basis: aug-cc-pVTZ 
    H, B-Ne : Obtained from the ccRepo (grant-hill.group.shef.ac.uk/ccrepo) Feb. 2017
              R. A. Kendall, T. H. Dunning, Jr., R. J. Harrison, J. Chem. Phys. 96, 6796 (1992)
         He : Obtained from the ccRepo (grant-hill.group.shef.ac.uk/ccrepo) Feb. 2017
              D. E. Woon, T. H. Dunning, Jr., J. Chem. Phys. 100, 2975 (1994)
  Li-Be, Na : Obtained from the ccRepo (grant-hill.group.shef.ac.uk/ccrepo) Feb. 2017
              B. P. Prascher, D. E. Woon, K. A. Peterson, T. H. Dunning, Jr., A. K. Wilson, Theor. Chem. Acc. 128, 69 (2011)
         Mg : Obtained from the Peterson Research Group Website (tyr0.chem.wsu.edu/~kipeters) Feb. 2017
              B. P. Prascher, D. E. Woon, K. A. Peterson, T. H. Dunning, Jr., A. K. Wilson, Theor. Chem. Acc. 128, 69 (2011)
      Al-Ar : Obtained from the ccRepo (grant-hill.group.shef.ac.uk/ccrepo) Feb. 2017
              D. E. Woon, T. H. Dunning, Jr., J. Chem. Phys. 98, 1358 (1993)
      Sc-Zn : Obtained from the ccRepo (grant-hill.group.shef.ac.uk/ccrepo) Feb. 2017
              N. B. Balabanov, K. A. Peterson, J. Chem. Phys. 123, 064107 (2005)
              N. B. Balabanov, K. A. Peterson, J. Chem. Phys. 125, 074110 (2006)
      Ga-Kr : Obtained from the ccRepo (grant-hill.group.shef.ac.uk/ccrepo) Feb. 2017
              A. K. Wilson, D. E. Woon, K. A. Peterson, T. H. Dunning, Jr., J. Chem. Phys. 110, 7667 (1999)
     Ag, Au : Obtained from the Peterson Research Group Website (tyr0.chem.wsu.edu/~kipeters) Feb. 2017
              K. A. Peterson, C. Puzzarini, Theor. Chem. Acc. 114, 283 (2005)

================================================================================
                                        WARNINGS
                       Please study these warnings very carefully!
================================================================================


WARNING: Post HF methods need fully converged wavefunctions
  ===> : Setting SCFConvForced true
         You can overwrite this default with %scf ConvForced false 


WARNING: MDCI localization with Augmented Hessian Foster-Boys
  ===> : Switching off randomization!

INFO   : the flag for use of the SHARK integral package has been found!

================================================================================
                                       INPUT FILE
================================================================================
NAME = 000018.com
|  1> !STEOM-CCSD aug-cc-pVTZ TightSCF PrintMOs
|  2> 
|  3> *xyzfile 0 1 000018.xyz
|  4> 
|  5> %MaxCore 64000
|  6> %scf
|  7>  MaxIter 150
|  8> end
|  9> 
| 10> %pal nprocs 8
| 11> end
| 12> 
| 13> %mdci
| 14>  nroots 10
| 15>  DoRootwise true
| 16> end
| 17> 
| 18>                          ****END OF INPUT****
================================================================================

                       ****************************
                       * Single Point Calculation *
                       ****************************

---------------------------------
CARTESIAN COORDINATES (ANGSTROEM)
---------------------------------
  F     -0.000000    1.098813   -0.289120
  C      0.000000   -0.000000    0.499944
  F     -0.000000   -1.098813   -0.289120
  H     -0.911346    0.000000    1.102246
  H      0.911346   -0.000000    1.102246

----------------------------
CARTESIAN COORDINATES (A.U.)
----------------------------
  NO LB      ZA    FRAG     MASS         X           Y           Z
   0 F     9.0000    0    18.998   -0.000000    2.076456   -0.546358
   1 C     6.0000    0    12.011    0.000000   -0.000000    0.944757
   2 F     9.0000    0    18.998   -0.000000   -2.076456   -0.546358
   3 H     1.0000    0     1.008   -1.722194    0.000000    2.082943
   4 H     1.0000    0     1.008    1.722194   -0.000000    2.082943

--------------------------------
INTERNAL COORDINATES (ANGSTROEM)
--------------------------------
 F      0   0   0     0.000000000000     0.00000000     0.00000000
 C      1   0   0     1.352779363039     0.00000000     0.00000000
 F      2   1   0     1.352779363039   108.63530580     0.00000000
 H      2   1   3     1.092391519063   108.75994700   241.77225400
 H      2   1   3     1.092391519063   108.75994700   118.22774600

---------------------------
INTERNAL COORDINATES (A.U.)
---------------------------
 F      0   0   0     0.000000000000     0.00000000     0.00000000
 C      1   0   0     2.556382515765     0.00000000     0.00000000
 F      2   1   0     2.556382515765   108.63530580     0.00000000
 H      2   1   3     2.064320802047   108.75994700   241.77225400
 H      2   1   3     2.064320802047   108.75994700   118.22774600

---------------------
BASIS SET INFORMATION
---------------------
There are 3 groups of distinct atoms

 Group   1 Type F   : 19s6p3d2f contracted to 5s4p3d2f pattern {88111/3111/111/11}
 Group   2 Type C   : 19s6p3d2f contracted to 5s4p3d2f pattern {88111/3111/111/11}
 Group   3 Type H   : 6s3p2d contracted to 4s3p2d pattern {3111/111/11}

Atom   0F    basis set group =>   1
Atom   1C    basis set group =>   2
Atom   2F    basis set group =>   1
Atom   3H    basis set group =>   3
Atom   4H    basis set group =>   3


           ************************************************************
           *        Program running with 8 parallel MPI-processes     *
           *              working on a common directory               *
           ************************************************************
------------------------------------------------------------------------------
                           ORCA GTO INTEGRAL CALCULATION
------------------------------------------------------------------------------
------------------------------------------------------------------------------
                   ___                                                        
                  /   \      - P O W E R E D   B Y -                         
                 /     \                                                     
                 |  |  |   _    _      __       _____    __    __             
                 |  |  |  | |  | |    /  \     |  _  \  |  |  /  |          
                  \  \/   | |  | |   /    \    | | | |  |  | /  /          
                 / \  \   | |__| |  /  /\  \   | |_| |  |  |/  /          
                |  |  |   |  __  | /  /__\  \  |    /   |      \           
                |  |  |   | |  | | |   __   |  |    \   |  |\   \          
                \     /   | |  | | |  |  |  |  | |\  \  |  | \   \       
                 \___/    |_|  |_| |__|  |__|  |_| \__\ |__|  \__/        
                                                                              
                      - O R C A' S   B I G   F R I E N D -                    
                                      &                                       
                       - I N T E G R A L  F E E D E R -                       
                                                                              
 v1 FN, 2020, v2 2021                                                         
------------------------------------------------------------------------------


Reading SHARK input file 000018.SHARKINP.tmp ... ok
----------------------
SHARK INTEGRAL PACKAGE
----------------------

Number of atoms                             ...      5
Number of basis functions                   ...    184
Number of shells                            ...     60
Maximum angular momentum                    ...      3
Integral batch strategy                     ... SHARK/LIBINT Hybrid
RI-J (if used) integral strategy            ... SPLIT-RIJ (Revised 2003 algorithm where possible)
Printlevel                                  ...      1
Contraction scheme used                     ... SEGMENTED contraction
Coulomb Range Separation                    ... NOT USED
Exchange Range Separation                   ... NOT USED
Finite Nucleus Model                        ... NOT USED
Auxiliary Coulomb fitting basis             ... NOT available
Auxiliary J/K fitting basis                 ... NOT available
Auxiliary Correlation fitting basis         ... NOT available
Auxiliary 'external' fitting basis          ... NOT available
Integral threshold                          ...     2.500000e-11
Primitive cut-off                           ...     2.500000e-12
Primitive pair pre-selection threshold      ...     2.500000e-12

Calculating pre-screening integrals         ... done (  0.7 sec) Dimension = 60
Organizing shell pair data                  ... done (  0.0 sec)
Shell pair information
Total number of shell pairs                 ...      1830
Shell pairs after pre-screening             ...      1830
Total number of primitive shell pairs       ...      6511
Primitive shell pairs kept                  ...      5573
          la=0 lb=0:    276 shell pairs
          la=1 lb=0:    414 shell pairs
          la=1 lb=1:    171 shell pairs
          la=2 lb=0:    299 shell pairs
          la=2 lb=1:    234 shell pairs
          la=2 lb=2:     91 shell pairs
          la=3 lb=0:    138 shell pairs
          la=3 lb=1:    108 shell pairs
          la=3 lb=2:     78 shell pairs
          la=3 lb=3:     21 shell pairs

Calculating one electron integrals          ... done (  0.0 sec)
Calculating Nuclear repulsion               ... done (  0.0 sec) ENN=     77.411455270175 Eh

SHARK setup successfully completed in   0.8 seconds

Maximum memory used throughout the entire GTOINT-calculation: 15.9 MB


           ************************************************************
           *        Program running with 8 parallel MPI-processes     *
           *              working on a common directory               *
           ************************************************************
-------------------------------------------------------------------------------
                                 ORCA SCF
-------------------------------------------------------------------------------

------------
SCF SETTINGS
------------
Hamiltonian:
 Ab initio Hamiltonian  Method          .... Hartree-Fock(GTOs)


General Settings:
 Integral files         IntName         .... 000018
 Hartree-Fock type      HFTyp           .... RHF
 Total Charge           Charge          ....    0
 Multiplicity           Mult            ....    1
 Number of Electrons    NEL             ....   26
 Basis Dimension        Dim             ....  184
 Nuclear Repulsion      ENuc            ....     77.4114552702 Eh

Convergence Acceleration:
 DIIS                   CNVDIIS         .... on
   Start iteration      DIISMaxIt       ....    12
   Startup error        DIISStart       ....  0.200000
   # of expansion vecs  DIISMaxEq       ....     5
   Bias factor          DIISBfac        ....   1.050
   Max. coefficient     DIISMaxC        ....  10.000
 Trust-Rad. Augm. Hess. CNVTRAH         .... auto
   Auto Start mean grad. ratio tolernc. ....  1.125000
   Auto Start start iteration           ....    20
   Auto Start num. interpolation iter.  ....    10
   Max. Number of Micro iterations      ....    16
   Max. Number of Macro iterations      .... Maxiter - #DIIS iter
   Number of Davidson start vectors     ....     2
   Converg. threshold I  (grad. norm)   ....   1.000e-05
   Converg. threshold II (energy diff.) ....   1.000e-08
   Grad. Scal. Fac. for Micro threshold ....   0.100
   Minimum threshold for Micro iter.    ....   0.010
   NR start threshold (gradient norm)   ....   0.001
   Initial trust radius                 ....   0.400
   Minimum AH scaling param. (alpha)    ....   1.000
   Maximum AH scaling param. (alpha)    .... 1000.000
   Orbital update algorithm             .... Taylor
   White noise on init. David. guess    .... on
   Maximum white noise                  ....   0.010
   Quad. conv. algorithm                .... NR
 SOSCF                  CNVSOSCF        .... on
   Start iteration      SOSCFMaxIt      ....   150
   Startup grad/error   SOSCFStart      ....  0.003300
 Level Shifting         CNVShift        .... on
   Level shift para.    LevelShift      ....    0.2500
   Turn off err/grad.   ShiftErr        ....    0.0010
 Zerner damping         CNVZerner       .... off
 Static damping         CNVDamp         .... on
   Fraction old density DampFac         ....    0.7000
   Max. Damping (<1)    DampMax         ....    0.9800
   Min. Damping (>=0)   DampMin         ....    0.0000
   Turn off err/grad.   DampErr         ....    0.1000
 Fernandez-Rico         CNVRico         .... off

SCF Procedure:
 Maximum # iterations   MaxIter         ....   150
 SCF integral mode      SCFMode         .... Direct
   Integral package                     .... SHARK and LIBINT hybrid scheme
 Reset frequency        DirectResetFreq ....    20
 Integral Threshold     Thresh          ....  2.500e-11 Eh
 Primitive CutOff       TCut            ....  2.500e-12 Eh

Convergence Tolerance:
 Convergence Check Mode ConvCheckMode   .... Total+1el-Energy
 Convergence forced     ConvForced      .... 1
 Energy Change          TolE            ....  1.000e-08 Eh
 1-El. energy change                    ....  1.000e-05 Eh
 Orbital Gradient       TolG            ....  1.000e-05
 Orbital Rotation angle TolX            ....  1.000e-05
 DIIS Error             TolErr          ....  5.000e-07


Diagonalization of the overlap matrix:
Smallest eigenvalue                        ... 7.890e-05
Time for diagonalization                   ...    0.029 sec
Threshold for overlap eigenvalues          ... 1.000e-08
Number of eigenvalues below threshold      ... 0
Time for construction of square roots      ...    0.010 sec
Total time needed                          ...    0.041 sec

Time for model grid setup =    0.056 sec

------------------------------
INITIAL GUESS: MODEL POTENTIAL
------------------------------
Loading Hartree-Fock densities                     ... done
Calculating cut-offs                               ... done
Initializing the effective Hamiltonian             ... done
Setting up the integral package (SHARK)            ... done
Starting the Coulomb interaction                   ... done (   0.2 sec)
Reading the grid                                   ... done
Mapping shells                                     ... done
Starting the XC term evaluation                    ... done (   0.0 sec)
Transforming the Hamiltonian                       ... done (   0.0 sec)
Diagonalizing the Hamiltonian                      ... done (   0.0 sec)
Back transforming the eigenvectors                 ... done (   0.0 sec)
Now organizing SCF variables                       ... done
                      ------------------
                      INITIAL GUESS DONE (   0.3 sec)
                      ------------------
--------------
SCF ITERATIONS
--------------
ITER       Energy         Delta-E        Max-DP      RMS-DP      [F,P]     Damp
               ***  Starting incremental Fock matrix formation  ***
  0   -237.9394888207   0.000000000000 0.02911310  0.00056347  0.2146207 0.7000
  1   -237.9573975267  -0.017908706071 0.02090312  0.00043011  0.1587200 0.7000
                               ***Turning on DIIS***
  2   -237.9696313300  -0.012233803223 0.01488445  0.00031392  0.1166047 0.7000
  3   -238.1261689851  -0.156537655102 0.03620158  0.00082940  0.0851424 0.0000
  4   -238.0059811592   0.120187825920 0.00505756  0.00011473  0.0051962 0.0000
                      *** Initiating the SOSCF procedure ***
                           *** Shutting down DIIS ***
                      *** Re-Reading the Fockian *** 
                      *** Removing any level shift *** 
ITER      Energy       Delta-E        Grad      Rot      Max-DP    RMS-DP
  5   -237.99877731   0.0072038538  0.000957  0.000957  0.000992  0.000029
               *** Restarting incremental Fock matrix formation ***
  6   -237.99931000  -0.0005326975  0.000363  0.000367  0.000249  0.000010
  7   -237.99931237  -0.0000023691  0.000153  0.000315  0.000144  0.000006
  8   -237.99931288  -0.0000005035  0.000049  0.000032  0.000039  0.000001
  9   -237.99931291  -0.0000000366  0.000008  0.000008  0.000010  0.000000
                  ***Gradient check signals convergence***
              ***Rediagonalizing the Fockian in SOSCF/NRSCF***

               *****************************************************
               *                     SUCCESS                       *
               *           SCF CONVERGED AFTER  10 CYCLES          *
               *****************************************************


----------------
TOTAL SCF ENERGY
----------------

Total Energy       :         -237.99931291 Eh           -6476.29055 eV

Components:
Nuclear Repulsion  :           77.41145527 Eh            2106.47279 eV
Electronic Energy  :         -315.41076818 Eh           -8582.76334 eV
One Electron Energy:         -484.72776624 Eh          -13190.11309 eV
Two Electron Energy:          169.31699805 Eh            4607.34975 eV

Virial components:
Potential Energy   :         -475.73899056 Eh          -12945.51607 eV
Kinetic Energy     :          237.73967764 Eh            6469.22552 eV
Virial Ratio       :            2.00109210


---------------
SCF CONVERGENCE
---------------

  Last Energy change         ...   -1.7608e-09  Tolerance :   1.0000e-08
  Last MAX-Density change    ...    4.9296e-06  Tolerance :   1.0000e-07
  Last RMS-Density change    ...    1.1112e-07  Tolerance :   5.0000e-09
  Last Orbital Gradient      ...    2.0552e-06  Tolerance :   1.0000e-05
  Last Orbital Rotation      ...    2.4049e-06  Tolerance :   1.0000e-05

             **** THE GBW FILE WAS UPDATED (000018.gbw) ****
             **** DENSITY 000018.scfp WAS UPDATED ****
             **** ENERGY FILE WAS UPDATED (000018.en.tmp) ****
             **** THE GBW FILE WAS UPDATED (000018.gbw) ****
             **** DENSITY 000018.scfp WAS UPDATED ****
----------------
ORBITAL ENERGIES
----------------

  NO   OCC          E(Eh)            E(eV) 
   0   2.0000     -26.314318      -716.0490 
   1   2.0000     -26.314300      -716.0485 
   2   2.0000     -11.407392      -310.4109 
   3   2.0000      -1.664320       -45.2885 
   4   2.0000      -1.603837       -43.6426 
   5   2.0000      -0.971234       -26.4286 
   6   2.0000      -0.779998       -21.2248 
   7   2.0000      -0.771952       -21.0059 
   8   2.0000      -0.757670       -20.6172 
   9   2.0000      -0.668645       -18.1947 
  10   2.0000      -0.634543       -17.2668 
  11   2.0000      -0.622607       -16.9420 
  12   2.0000      -0.536048       -14.5866 
  13   0.0000       0.028252         0.7688 
  14   0.0000       0.042521         1.1571 
  15   0.0000       0.073548         2.0014 
  16   0.0000       0.075558         2.0560 
  17   0.0000       0.125958         3.4275 
  18   0.0000       0.138094         3.7577 
  19   0.0000       0.185979         5.0607 
  20   0.0000       0.192634         5.2418 
  21   0.0000       0.196355         5.3431 
  22   0.0000       0.201482         5.4826 
  23   0.0000       0.224720         6.1149 
  24   0.0000       0.239019         6.5040 
  25   0.0000       0.255879         6.9628 
  26   0.0000       0.298013         8.1094 
  27   0.0000       0.301634         8.2079 
  28   0.0000       0.311263         8.4699 
  29   0.0000       0.320889         8.7318 
  30   0.0000       0.335953         9.1417 
  31   0.0000       0.372308        10.1310 
  32   0.0000       0.387305        10.5391 
  33   0.0000       0.391365        10.6496 
  34   0.0000       0.397266        10.8102 
  35   0.0000       0.443254        12.0616 
  36   0.0000       0.448808        12.2127 
  37   0.0000       0.459011        12.4903 
  38   0.0000       0.462242        12.5782 
  39   0.0000       0.464048        12.6274 
  40   0.0000       0.521685        14.1958 
  41   0.0000       0.563039        15.3211 
  42   0.0000       0.633786        17.2462 
  43   0.0000       0.687039        18.6953 
  44   0.0000       0.712390        19.3851 
  45   0.0000       0.713960        19.4278 
  46   0.0000       0.792080        21.5536 
  47   0.0000       0.834957        22.7203 
  48   0.0000       0.881846        23.9962 
  49   0.0000       0.907841        24.7036 
  50   0.0000       0.948037        25.7974 
  51   0.0000       0.948236        25.8028 
  52   0.0000       0.978939        26.6383 
  53   0.0000       0.979358        26.6497 
  54   0.0000       0.985355        26.8129 
  55   0.0000       1.004752        27.3407 
  56   0.0000       1.013027        27.5659 
  57   0.0000       1.048352        28.5271 
  58   0.0000       1.053943        28.6793 
  59   0.0000       1.061035        28.8722 
  60   0.0000       1.106712        30.1152 
  61   0.0000       1.121259        30.5110 
  62   0.0000       1.181487        32.1499 
  63   0.0000       1.191649        32.4264 
  64   0.0000       1.201532        32.6953 
  65   0.0000       1.208769        32.8923 
  66   0.0000       1.234693        33.5977 
  67   0.0000       1.243232        33.8301 
  68   0.0000       1.264378        34.4055 
  69   0.0000       1.270983        34.5852 
  70   0.0000       1.299414        35.3589 
  71   0.0000       1.365861        37.1670 
  72   0.0000       1.502910        40.8963 
  73   0.0000       1.534581        41.7581 
  74   0.0000       1.541499        41.9463 
  75   0.0000       1.572868        42.7999 
  76   0.0000       1.594934        43.4004 
  77   0.0000       1.648615        44.8611 
  78   0.0000       1.658395        45.1272 
  79   0.0000       1.658555        45.1316 
  80   0.0000       1.733336        47.1665 
  81   0.0000       1.738202        47.2989 
  82   0.0000       1.740447        47.3600 
  83   0.0000       1.762325        47.9553 
  84   0.0000       1.807299        49.1791 
  85   0.0000       1.809076        49.2275 
  86   0.0000       1.895432        51.5773 
  87   0.0000       1.973493        53.7015 
  88   0.0000       1.996530        54.3284 
  89   0.0000       2.064793        56.1859 
  90   0.0000       2.071699        56.3738 
  91   0.0000       2.421370        65.8888 
  92   0.0000       2.651384        72.1478 
  93   0.0000       2.659503        72.3688 
  94   0.0000       2.844187        77.3943 
  95   0.0000       2.874466        78.2182 
  96   0.0000       2.897317        78.8400 
  97   0.0000       2.912586        79.2555 
  98   0.0000       2.933482        79.8241 
  99   0.0000       2.957768        80.4850 
 100   0.0000       2.977347        81.0177 
 101   0.0000       3.028951        82.4219 
 102   0.0000       3.081680        83.8568 
 103   0.0000       3.095201        84.2247 
 104   0.0000       3.126102        85.0656 
 105   0.0000       3.139237        85.4230 
 106   0.0000       3.154031        85.8256 
 107   0.0000       3.186384        86.7059 
 108   0.0000       3.242215        88.2252 
 109   0.0000       3.328703        90.5786 
 110   0.0000       3.388050        92.1935 
 111   0.0000       3.397926        92.4623 
 112   0.0000       3.414313        92.9082 
 113   0.0000       3.428421        93.2921 
 114   0.0000       3.432834        93.4122 
 115   0.0000       3.522051        95.8399 
 116   0.0000       3.529430        96.0407 
 117   0.0000       3.550994        96.6275 
 118   0.0000       3.604658        98.0877 
 119   0.0000       3.658080        99.5414 
 120   0.0000       3.706206       100.8510 
 121   0.0000       3.807377       103.6040 
 122   0.0000       3.848320       104.7181 
 123   0.0000       3.852307       104.8266 
 124   0.0000       3.963157       107.8430 
 125   0.0000       3.996766       108.7575 
 126   0.0000       4.048832       110.1743 
 127   0.0000       4.103753       111.6688 
 128   0.0000       4.132706       112.4566 
 129   0.0000       4.159024       113.1728 
 130   0.0000       4.295543       116.8877 
 131   0.0000       4.337088       118.0182 
 132   0.0000       4.396695       119.6402 
 133   0.0000       4.544214       123.6544 
 134   0.0000       4.599496       125.1587 
 135   0.0000       4.729733       128.7026 
 136   0.0000       4.760740       129.5463 
 137   0.0000       4.788759       130.3087 
 138   0.0000       4.804995       130.7506 
 139   0.0000       4.839328       131.6848 
 140   0.0000       4.887364       132.9919 
 141   0.0000       4.903804       133.4393 
 142   0.0000       4.969612       135.2300 
 143   0.0000       5.220634       142.0607 
 144   0.0000       5.261686       143.1778 
 145   0.0000       5.461474       148.6143 
 146   0.0000       5.513532       150.0308 
 147   0.0000       5.643954       153.5798 
 148   0.0000       5.678789       154.5277 
 149   0.0000       5.724330       155.7669 
 150   0.0000       5.772895       157.0885 
 151   0.0000       5.794098       157.6654 
 152   0.0000       6.019558       163.8005 
 153   0.0000       6.060744       164.9212 
 154   0.0000       6.501814       176.9234 
 155   0.0000       7.030997       191.3232 
 156   0.0000       7.264453       197.6758 
 157   0.0000       8.895072       242.0472 
 158   0.0000       8.939237       243.2490 
 159   0.0000       8.939806       243.2645 
 160   0.0000       8.973754       244.1883 
 161   0.0000       9.116353       248.0686 
 162   0.0000       9.122017       248.2227 
 163   0.0000       9.252874       251.7835 
 164   0.0000       9.291001       252.8210 
 165   0.0000       9.304393       253.1854 
 166   0.0000       9.338905       254.1245 
 167   0.0000       9.367913       254.9139 
 168   0.0000       9.388499       255.4741 
 169   0.0000       9.397210       255.7111 
 170   0.0000       9.410089       256.0615 
 171   0.0000       9.418223       256.2829 
 172   0.0000       9.432733       256.6777 
 173   0.0000       9.443405       256.9681 
 174   0.0000       9.566709       260.3234 
 175   0.0000       9.615995       261.6645 
 176   0.0000       9.771036       265.8834 
 177   0.0000       9.785307       266.2717 
 178   0.0000       9.874394       268.6959 
 179   0.0000       9.890431       269.1323 
 180   0.0000      10.025909       272.8189 
 181   0.0000      14.849616       404.0786 
 182   0.0000      15.395861       418.9427 
 183   0.0000      17.400063       473.4798 
------------------
MOLECULAR ORBITALS
------------------
                      0         1         2         3         4         5   
                 -26.31432 -26.31430 -11.40739  -1.66432  -1.60384  -0.97123
                   2.00000   2.00000   2.00000   2.00000   2.00000   2.00000
                  --------  --------  --------  --------  --------  --------
  0F   1s        -0.689335  0.689381 -0.000127 -0.003333 -0.003053 -0.001761
  0F   2s         0.001427 -0.001354  0.000077  0.366837  0.392358 -0.150935
  0F   3s        -0.031058  0.031035  0.000146  0.103757  0.111519 -0.046556
  0F   4s        -0.001690  0.003934  0.003832  0.229042  0.233720 -0.149751
  0F   5s         0.000130  0.000339  0.003155  0.014964  0.010461 -0.003962
  0F   1pz       -0.000540  0.000548  0.000162  0.014907  0.014296  0.086104
  0F   1px        0.000000 -0.000000 -0.000000  0.000000  0.000000  0.000000
  0F   1py        0.000766 -0.000718 -0.000217 -0.025893 -0.013521 -0.101095
  0F   2pz        0.000633 -0.000609  0.000286  0.021506  0.021189  0.105722
  0F   2px       -0.000000  0.000000  0.000000  0.000000  0.000000  0.000000
  0F   2py       -0.000952  0.000755 -0.000344 -0.036958 -0.021282 -0.123580
  0F   3pz       -0.000817  0.000236  0.000911  0.007198  0.013236  0.055025
  0F   3px        0.000000 -0.000000 -0.000000 -0.000000  0.000000 -0.000000
  0F   3py       -0.000037 -0.001154 -0.001356 -0.018218 -0.003670 -0.065336
  0F   4pz        0.000013 -0.000052  0.000463 -0.000410 -0.000501  0.002681
  0F   4px       -0.000000 -0.000000 -0.000000  0.000000 -0.000000  0.000000
  0F   4py       -0.000067 -0.000137 -0.000375 -0.000912  0.000493 -0.002100
  0F   1dz2       0.000014  0.000008  0.000006 -0.000103  0.000148  0.000301
  0F   1dxz      -0.000000 -0.000000  0.000000  0.000000 -0.000000  0.000000
  0F   1dyz      -0.000014  0.000001 -0.000079 -0.001345 -0.001096 -0.003222
  0F   1dx2y2    -0.000005  0.000011 -0.000045 -0.001110 -0.000564 -0.001976
  0F   1dxy      -0.000000  0.000000  0.000000 -0.000000  0.000000 -0.000000
  0F   2dz2      -0.000054 -0.000071 -0.000020 -0.000889  0.000852  0.001002
  0F   2dxz       0.000000  0.000000 -0.000000 -0.000000  0.000000 -0.000000
  0F   2dyz      -0.000215  0.000285  0.000188 -0.006509 -0.006806 -0.009171
  0F   2dx2y2    -0.000207  0.000154  0.000079 -0.005448 -0.004081 -0.005650
  0F   2dxy       0.000000 -0.000000 -0.000000  0.000000  0.000000  0.000000
  0F   3dz2      -0.000207 -0.000118  0.000018 -0.000863  0.002178  0.000040
  0F   3dxz       0.000000 -0.000000 -0.000000  0.000000 -0.000000 -0.000000
  0F   3dyz       0.000384 -0.000043  0.000002  0.001523 -0.001986 -0.002716
  0F   3dx2y2    -0.000042 -0.000259 -0.000071 -0.000482  0.001329 -0.001679
  0F   3dxy      -0.000000  0.000000  0.000000 -0.000000 -0.000000 -0.000000
  0F   1f0       -0.000020  0.000016 -0.000008 -0.000447 -0.000330 -0.000573
  0F   1f+1       0.000000 -0.000000  0.000000  0.000000  0.000000  0.000000
  0F   1f-1      -0.000020  0.000016 -0.000004 -0.000287 -0.000394 -0.000791
  0F   1f+2      -0.000002  0.000014 -0.000023 -0.000929 -0.000845 -0.001164
  0F   1f-2       0.000000 -0.000000  0.000000 -0.000000  0.000000 -0.000000
  0F   1f+3      -0.000000  0.000000  0.000000 -0.000000 -0.000000 -0.000000
  0F   1f-3      -0.000028  0.000005  0.000012 -0.000614 -0.000316 -0.000582
  0F   2f0        0.000037 -0.000018  0.000159 -0.001066 -0.000971 -0.000686
  0F   2f+1      -0.000000 -0.000000 -0.000000 -0.000000 -0.000000 -0.000000
  0F   2f-1       0.000078  0.000026  0.000168 -0.000379 -0.001451 -0.000632
  0F   2f+2      -0.000026  0.000028  0.000334 -0.001685 -0.001755 -0.001764
  0F   2f-2      -0.000000  0.000000 -0.000000  0.000000 -0.000000  0.000000
  0F   2f+3       0.000000 -0.000000 -0.000000  0.000000  0.000000  0.000000
  0F   2f-3       0.000035 -0.000005  0.000092 -0.001172 -0.001208 -0.000901
  1C   1s         0.000000  0.000516  0.980132 -0.007758  0.000000 -0.006282
  1C   2s         0.000000  0.001069  0.003899  0.170284  0.000000  0.415666
  1C   3s        -0.000000 -0.000144  0.041010  0.037283 -0.000000  0.094235
  1C   4s        -0.000000 -0.015661  0.001053 -0.111626  0.000000  0.170155
  1C   5s        -0.000000 -0.001070 -0.000724 -0.012706  0.000000 -0.006737
  1C   1pz        0.000000  0.000111 -0.002087 -0.041821 -0.000000  0.029671
  1C   1px        0.000000  0.000000  0.000000  0.000000  0.000000  0.000000
  1C   1py        0.000118 -0.000000 -0.000000 -0.000000  0.065865 -0.000000
  1C   2pz       -0.000000 -0.001029  0.003763 -0.050183  0.000000  0.032715
  1C   2px       -0.000000 -0.000000  0.000000 -0.000000 -0.000000  0.000000
  1C   2py       -0.000200  0.000000  0.000000 -0.000000  0.069832  0.000000
  1C   3pz       -0.000000 -0.000934  0.003934 -0.007355  0.000000  0.034232
  1C   3px       -0.000000 -0.000000  0.000000 -0.000000 -0.000000  0.000000
  1C   3py        0.001052 -0.000000 -0.000000 -0.000000 -0.003488  0.000000
  1C   4pz       -0.000000 -0.000017 -0.000047  0.000298  0.000000  0.000022
  1C   4px        0.000000  0.000000  0.000000 -0.000000  0.000000 -0.000000
  1C   4py        0.000061 -0.000000 -0.000000 -0.000000 -0.001304 -0.000000
  1C   1dz2       0.000000  0.000026 -0.000041  0.000949  0.000000 -0.001333
  1C   1dxz      -0.000000 -0.000000 -0.000000  0.000000  0.000000  0.000000
  1C   1dyz       0.000154 -0.000000 -0.000000  0.000000 -0.015594  0.000000
  1C   1dx2y2    -0.000000 -0.000141 -0.000002 -0.009062 -0.000000  0.003665
  1C   1dxy      -0.000000 -0.000000 -0.000000 -0.000000  0.000000  0.000000
  1C   2dz2       0.000000  0.000127 -0.000384  0.000685 -0.000000 -0.003900
  1C   2dxz      -0.000000 -0.000000  0.000000 -0.000000 -0.000000 -0.000000
  1C   2dyz       0.002312 -0.000000 -0.000000  0.000000 -0.031899 -0.000000
  1C   2dx2y2    -0.000000 -0.002140  0.002486 -0.023761  0.000000  0.003495
  1C   2dxy       0.000000  0.000000  0.000000  0.000000 -0.000000 -0.000000
  1C   3dz2       0.000000  0.000060 -0.000208 -0.001243 -0.000000  0.001727
  1C   3dxz      -0.000000 -0.000000  0.000000 -0.000000 -0.000000  0.000000
  1C   3dyz      -0.000000  0.000000  0.000000 -0.000000  0.001632 -0.000000
  1C   3dx2y2    -0.000000 -0.000412  0.001009 -0.001603  0.000000  0.004873
  1C   3dxy      -0.000000 -0.000000 -0.000000  0.000000 -0.000000 -0.000000
  1C   1f0        0.000000  0.000279 -0.000136  0.002467 -0.000000  0.000134
  1C   1f+1      -0.000000 -0.000000  0.000000 -0.000000 -0.000000 -0.000000
  1C   1f-1      -0.000208  0.000000  0.000000 -0.000000  0.002336  0.000000
  1C   1f+2       0.000000  0.000443  0.000998  0.008140  0.000000  0.007419
  1C   1f-2      -0.000000 -0.000000  0.000000  0.000000 -0.000000  0.000000
  1C   1f+3       0.000000  0.000000  0.000000  0.000000  0.000000 -0.000000
  1C   1f-3      -0.000345  0.000000 -0.000000 -0.000000  0.003476  0.000000
  1C   2f0        0.000000  0.000881 -0.000364  0.007518 -0.000000  0.000229
  1C   2f+1      -0.000000  0.000000  0.000000 -0.000000 -0.000000 -0.000000
  1C   2f-1      -0.001027  0.000000  0.000000  0.000000  0.009158  0.000000
  1C   2f+2      -0.000000 -0.000811 -0.001473 -0.006081  0.000000  0.004396
  1C   2f-2       0.000000 -0.000000  0.000000  0.000000  0.000000  0.000000
  1C   2f+3      -0.000000  0.000000  0.000000  0.000000 -0.000000  0.000000
  1C   2f-3      -0.000971  0.000000 -0.000000 -0.000000  0.007665  0.000000
  2F   1s         0.689335  0.689381 -0.000127 -0.003333  0.003053 -0.001761
  2F   2s        -0.001427 -0.001354  0.000077  0.366837 -0.392358 -0.150935
  2F   3s         0.031058  0.031035  0.000146  0.103757 -0.111519 -0.046556
  2F   4s         0.001690  0.003934  0.003832  0.229042 -0.233720 -0.149751
  2F   5s        -0.000130  0.000339  0.003155  0.014964 -0.010461 -0.003962
  2F   1pz        0.000540  0.000548  0.000162  0.014907 -0.014296  0.086104
  2F   1px        0.000000 -0.000000 -0.000000  0.000000 -0.000000  0.000000
  2F   1py        0.000766  0.000718  0.000217  0.025893 -0.013521  0.101095
  2F   2pz       -0.000633 -0.000609  0.000286  0.021506 -0.021189  0.105722
  2F   2px       -0.000000  0.000000  0.000000  0.000000 -0.000000  0.000000
  2F   2py       -0.000952 -0.000755  0.000344  0.036958 -0.021282  0.123580
  2F   3pz        0.000817  0.000236  0.000911  0.007198 -0.013236  0.055025
  2F   3px        0.000000 -0.000000 -0.000000  0.000000 -0.000000 -0.000000
  2F   3py       -0.000037  0.001154  0.001356  0.018218 -0.003670  0.065336
  2F   4pz       -0.000013 -0.000052  0.000463 -0.000410  0.000501  0.002681
  2F   4px       -0.000000 -0.000000 -0.000000  0.000000 -0.000000  0.000000
  2F   4py       -0.000067  0.000137  0.000375  0.000912  0.000493  0.002100
  2F   1dz2      -0.000014  0.000008  0.000006 -0.000103 -0.000148  0.000301
  2F   1dxz      -0.000000 -0.000000  0.000000  0.000000  0.000000  0.000000
  2F   1dyz      -0.000014 -0.000001  0.000079  0.001345 -0.001096  0.003222
  2F   1dx2y2     0.000005  0.000011 -0.000045 -0.001110  0.000564 -0.001976
  2F   1dxy      -0.000000 -0.000000  0.000000  0.000000  0.000000  0.000000
  2F   2dz2       0.000054 -0.000071 -0.000020 -0.000889 -0.000852  0.001002
  2F   2dxz       0.000000  0.000000  0.000000 -0.000000 -0.000000 -0.000000
  2F   2dyz      -0.000215 -0.000285 -0.000188  0.006509 -0.006806  0.009171
  2F   2dx2y2     0.000207  0.000154  0.000079 -0.005448  0.004081 -0.005650
  2F   2dxy       0.000000  0.000000  0.000000 -0.000000 -0.000000 -0.000000
  2F   3dz2       0.000207 -0.000118  0.000018 -0.000863 -0.002178  0.000040
  2F   3dxz       0.000000 -0.000000 -0.000000  0.000000 -0.000000 -0.000000
  2F   3dyz       0.000384  0.000043 -0.000002 -0.001523 -0.001986  0.002716
  2F   3dx2y2     0.000042 -0.000259 -0.000071 -0.000482 -0.001329 -0.001679
  2F   3dxy       0.000000 -0.000000 -0.000000  0.000000  0.000000  0.000000
  2F   1f0        0.000020  0.000016 -0.000008 -0.000447  0.000330 -0.000573
  2F   1f+1      -0.000000 -0.000000  0.000000  0.000000 -0.000000  0.000000
  2F   1f-1      -0.000020 -0.000016  0.000004  0.000287 -0.000394  0.000791
  2F   1f+2       0.000002  0.000014 -0.000023 -0.000929  0.000845 -0.001164
  2F   1f-2      -0.000000  0.000000 -0.000000  0.000000  0.000000  0.000000
  2F   1f+3      -0.000000  0.000000  0.000000 -0.000000 -0.000000 -0.000000
  2F   1f-3      -0.000028 -0.000005 -0.000012  0.000614 -0.000316  0.000582
  2F   2f0       -0.000037 -0.000018  0.000159 -0.001066  0.000971 -0.000686
  2F   2f+1       0.000000  0.000000 -0.000000 -0.000000  0.000000 -0.000000
  2F   2f-1       0.000078 -0.000026 -0.000168  0.000379 -0.001451  0.000632
  2F   2f+2       0.000026  0.000028  0.000334 -0.001685  0.001755 -0.001764
  2F   2f-2       0.000000 -0.000000  0.000000 -0.000000 -0.000000 -0.000000
  2F   2f+3       0.000000 -0.000000 -0.000000  0.000000  0.000000  0.000000
  2F   2f-3       0.000035  0.000005 -0.000092  0.001172 -0.001208  0.000901
  3H   1s         0.000000 -0.000001  0.000056  0.010102  0.000000  0.080789
  3H   2s         0.000000  0.003663 -0.001164  0.035942 -0.000000  0.092261
  3H   3s         0.000000  0.004261 -0.004404  0.029027 -0.000000 -0.013467
  3H   4s         0.000000  0.000136  0.000020  0.001081 -0.000000  0.000638
  3H   1pz       -0.000000 -0.000022  0.000145 -0.001048  0.000000 -0.004450
  3H   1px        0.000000  0.000017 -0.000251  0.000801 -0.000000  0.007401
  3H   1py       -0.000024  0.000000  0.000000 -0.000000  0.000815 -0.000000
  3H   2pz       -0.000000 -0.000732  0.000935 -0.003782  0.000000 -0.000165
  3H   2px        0.000000  0.000282 -0.001045  0.000078 -0.000000  0.003870
  3H   2py       -0.000899  0.000000 -0.000000  0.000000  0.006388  0.000000
  3H   3pz       -0.000000 -0.000912  0.001278 -0.003864  0.000000  0.006277
  3H   3px        0.000000  0.000800 -0.001136  0.004727 -0.000000 -0.008988
  3H   3py       -0.000335  0.000000 -0.000000  0.000000  0.001268  0.000000
  3H   1dz2       0.000000  0.000046  0.000019  0.000471 -0.000000 -0.000134
  3H   1dxz      -0.000000 -0.000020  0.000140 -0.000264  0.000000 -0.001295
  3H   1dyz       0.000096 -0.000000 -0.000000 -0.000000 -0.000704 -0.000000
  3H   1dx2y2    -0.000000 -0.000035 -0.000135 -0.000211 -0.000000  0.001140
  3H   1dxy      -0.000104  0.000000  0.000000 -0.000000  0.000878  0.000000
  3H   2dz2       0.000000  0.000038 -0.000100 -0.000213 -0.000000 -0.000241
  3H   2dxz       0.000000  0.000016  0.000454  0.002572  0.000000  0.003362
  3H   2dyz       0.000307 -0.000000 -0.000000 -0.000000 -0.001472 -0.000000
  3H   2dx2y2    -0.000000 -0.000237 -0.000306 -0.003057  0.000000 -0.000871
  3H   2dxy       0.000017 -0.000000 -0.000000  0.000000 -0.000911  0.000000
  4H   1s         0.000000 -0.000001  0.000056  0.010102  0.000000  0.080789
  4H   2s         0.000000  0.003663 -0.001164  0.035942 -0.000000  0.092261
  4H   3s         0.000000  0.004261 -0.004404  0.029027 -0.000000 -0.013467
  4H   4s         0.000000  0.000136  0.000020  0.001081 -0.000000  0.000638
  4H   1pz       -0.000000 -0.000022  0.000145 -0.001048  0.000000 -0.004450
  4H   1px       -0.000000 -0.000017  0.000251 -0.000801  0.000000 -0.007401
  4H   1py       -0.000024  0.000000  0.000000  0.000000  0.000815 -0.000000
  4H   2pz       -0.000000 -0.000732  0.000935 -0.003782  0.000000 -0.000165
  4H   2px       -0.000000 -0.000282  0.001045 -0.000078  0.000000 -0.003870
  4H   2py       -0.000899  0.000000 -0.000000 -0.000000  0.006388  0.000000
  4H   3pz       -0.000000 -0.000912  0.001278 -0.003864  0.000000  0.006277
  4H   3px       -0.000000 -0.000800  0.001136 -0.004727  0.000000  0.008988
  4H   3py       -0.000335  0.000000 -0.000000  0.000000  0.001268  0.000000
  4H   1dz2       0.000000  0.000046  0.000019  0.000471 -0.000000 -0.000134
  4H   1dxz       0.000000  0.000020 -0.000140  0.000264 -0.000000  0.001295
  4H   1dyz       0.000096 -0.000000  0.000000  0.000000 -0.000704 -0.000000
  4H   1dx2y2    -0.000000 -0.000035 -0.000135 -0.000211 -0.000000  0.001140
  4H   1dxy       0.000104 -0.000000  0.000000  0.000000 -0.000878 -0.000000
  4H   2dz2       0.000000  0.000038 -0.000100 -0.000213 -0.000000 -0.000241
  4H   2dxz      -0.000000 -0.000016 -0.000454 -0.002572  0.000000 -0.003362
  4H   2dyz       0.000307 -0.000000 -0.000000 -0.000000 -0.001472 -0.000000
  4H   2dx2y2    -0.000000 -0.000237 -0.000306 -0.003057  0.000000 -0.000871
  4H   2dxy      -0.000017  0.000000  0.000000 -0.000000  0.000911 -0.000000
                      6         7         8         9        10        11   
                  -0.78000  -0.77195  -0.75767  -0.66864  -0.63454  -0.62261
                   2.00000   2.00000   2.00000   2.00000   2.00000   2.00000
                  --------  --------  --------  --------  --------  --------
  0F   1s        -0.000000  0.000393 -0.001788 -0.000000  0.000553 -0.000737
  0F   2s        -0.000000  0.044973 -0.084126 -0.000000  0.004131 -0.004979
  0F   3s        -0.000000  0.015289 -0.028449 -0.000000  0.002239 -0.002935
  0F   4s        -0.000000  0.061005 -0.125123 -0.000000  0.036894 -0.029394
  0F   5s         0.000000  0.004182 -0.022543  0.000000  0.043885 -0.040279
  0F   1pz       -0.000000  0.082882  0.197207 -0.000000  0.153975  0.229842
  0F   1px        0.195732  0.000000 -0.000000  0.272167  0.000000 -0.000000
  0F   1py       -0.000000  0.197207 -0.122391 -0.000000  0.230081  0.002002
  0F   2pz       -0.000000  0.102597  0.245070 -0.000000  0.190896  0.285374
  0F   2px        0.242148  0.000000 -0.000000  0.337135  0.000000 -0.000000
  0F   2py       -0.000000  0.245497 -0.152626 -0.000000  0.284839  0.001613
  0F   3pz       -0.000000  0.079907  0.160337 -0.000000  0.154190  0.199800
  0F   3px        0.174253  0.000000 -0.000000  0.245381  0.000000 -0.000000
  0F   3py       -0.000000  0.153431 -0.075703 -0.000000  0.207174  0.007444
  0F   4pz        0.000000  0.009392  0.007521  0.000000  0.019822  0.016572
  0F   4px        0.005066  0.000000 -0.000000  0.029639  0.000000  0.000000
  0F   4py       -0.000000  0.014039 -0.005809 -0.000000  0.013006  0.007786
  0F   1dz2      -0.000000  0.002244  0.001270 -0.000000  0.001741  0.000926
  0F   1dxz       0.001914  0.000000 -0.000000  0.001599  0.000000  0.000000
  0F   1dyz      -0.000000  0.001103 -0.004394 -0.000000  0.001102 -0.002474
  0F   1dx2y2    -0.000000  0.002988 -0.002087 -0.000000  0.001861 -0.000912
  0F   1dxy      -0.002654 -0.000000  0.000000 -0.001852 -0.000000  0.000000
  0F   2dz2      -0.000000  0.009074  0.004810 -0.000000  0.007042  0.003889
  0F   2dxz       0.006562  0.000000  0.000000  0.005694  0.000000 -0.000000
  0F   2dyz      -0.000000  0.004138 -0.015328 -0.000000  0.003232 -0.008585
  0F   2dx2y2    -0.000000  0.010210 -0.007273 -0.000000  0.006941 -0.003311
  0F   2dxy      -0.009444 -0.000000  0.000000 -0.007947 -0.000000 -0.000000
  0F   3dz2       0.000000  0.005006  0.008701 -0.000000  0.012048  0.001394
  0F   3dxz       0.006500 -0.000000 -0.000000  0.005621 -0.000000  0.000000
  0F   3dyz      -0.000000 -0.000933 -0.005823 -0.000000  0.001473 -0.003061
  0F   3dx2y2     0.000000  0.001160  0.002449 -0.000000  0.010278 -0.003528
  0F   3dxy      -0.011224  0.000000 -0.000000 -0.005789 -0.000000 -0.000000
  0F   1f0       -0.000000  0.000896 -0.000684 -0.000000  0.000888 -0.000319
  0F   1f+1       0.000450  0.000000  0.000000  0.000415  0.000000 -0.000000
  0F   1f-1       0.000000 -0.001049 -0.001483  0.000000 -0.000735 -0.001182
  0F   1f+2      -0.000000  0.001043 -0.002012 -0.000000  0.000818 -0.001202
  0F   1f-2      -0.001464 -0.000000  0.000000 -0.001308 -0.000000  0.000000
  0F   1f+3       0.001230  0.000000 -0.000000  0.000916 -0.000000 -0.000000
  0F   1f-3      -0.000000  0.001535 -0.000835 -0.000000  0.000701 -0.000195
  0F   2f0       -0.000000  0.002836 -0.000896 -0.000000  0.001732  0.000087
  0F   2f+1       0.000107  0.000000 -0.000000  0.000273 -0.000000  0.000000
  0F   2f-1      -0.000000 -0.001591 -0.003372  0.000000 -0.001934 -0.001840
  0F   2f+2      -0.000000  0.001747 -0.002682 -0.000000  0.001108 -0.001444
  0F   2f-2      -0.002124 -0.000000 -0.000000 -0.001983 -0.000000 -0.000000
  0F   2f+3       0.002377  0.000000  0.000000  0.002310  0.000000  0.000000
  0F   2f-3      -0.000000  0.001117 -0.001032 -0.000000  0.002502 -0.001218
  1C   1s        -0.000000  0.000814 -0.000000 -0.000000  0.000000 -0.000326
  1C   2s        -0.000000  0.037690  0.000000 -0.000000  0.000000 -0.084694
  1C   3s        -0.000000  0.009532  0.000000 -0.000000  0.000000 -0.018810
  1C   4s         0.000000  0.062864 -0.000000  0.000000 -0.000000 -0.207733
  1C   5s        -0.000000 -0.000115 -0.000000  0.000000 -0.000000 -0.024525
  1C   1pz       -0.000000  0.156972  0.000000 -0.000000  0.000000 -0.136309
  1C   1px        0.174085  0.000000 -0.000000  0.000000 -0.000000  0.000000
  1C   1py        0.000000 -0.000000  0.165096  0.000000 -0.036712 -0.000000
  1C   2pz       -0.000000  0.208844 -0.000000  0.000000 -0.000000 -0.176558
  1C   2px        0.240142  0.000000  0.000000  0.000000  0.000000  0.000000
  1C   2py       -0.000000 -0.000000  0.213035  0.000000 -0.040421 -0.000000
  1C   3pz        0.000000  0.046151 -0.000000  0.000000 -0.000000 -0.140880
  1C   3px       -0.046646  0.000000  0.000000  0.000000  0.000000  0.000000
  1C   3py       -0.000000  0.000000  0.045134 -0.000000 -0.058821 -0.000000
  1C   4pz       -0.000000 -0.003009 -0.000000  0.000000 -0.000000 -0.007756
  1C   4px       -0.002529  0.000000  0.000000 -0.000000 -0.000000 -0.000000
  1C   4py        0.000000  0.000000  0.000727 -0.000000 -0.003266 -0.000000
  1C   1dz2       0.000000 -0.012877 -0.000000 -0.000000  0.000000 -0.009002
  1C   1dxz       0.001550  0.000000  0.000000  0.000000  0.000000  0.000000
  1C   1dyz      -0.000000  0.000000 -0.018593 -0.000000  0.016815  0.000000
  1C   1dx2y2    -0.000000  0.006990  0.000000 -0.000000  0.000000 -0.025501
  1C   1dxy      -0.000000 -0.000000  0.000000  0.015886  0.000000 -0.000000
  1C   2dz2       0.000000 -0.024762 -0.000000 -0.000000  0.000000 -0.025495
  1C   2dxz       0.013913  0.000000  0.000000  0.000000  0.000000  0.000000
  1C   2dyz       0.000000 -0.000000 -0.050316 -0.000000  0.045060  0.000000
  1C   2dx2y2     0.000000  0.026019 -0.000000  0.000000 -0.000000 -0.066722
  1C   2dxy       0.000000  0.000000 -0.000000  0.037501  0.000000 -0.000000
  1C   3dz2      -0.000000  0.029413 -0.000000 -0.000000  0.000000  0.000587
  1C   3dxz      -0.010821  0.000000  0.000000  0.000000  0.000000  0.000000
  1C   3dyz       0.000000  0.000000 -0.003018 -0.000000  0.016657 -0.000000
  1C   3dx2y2     0.000000 -0.006465 -0.000000  0.000000 -0.000000 -0.031620
  1C   3dxy       0.000000  0.000000  0.000000 -0.022944 -0.000000  0.000000
  1C   1f0       -0.000000  0.001424  0.000000 -0.000000  0.000000  0.006103
  1C   1f+1       0.002212  0.000000  0.000000  0.000000  0.000000  0.000000
  1C   1f-1      -0.000000  0.000000 -0.001191  0.000000 -0.011099 -0.000000
  1C   1f+2       0.000000 -0.001950 -0.000000  0.000000 -0.000000  0.002228
  1C   1f-2       0.000000 -0.000000 -0.000000 -0.008297 -0.000000  0.000000
  1C   1f+3       0.005286 -0.000000 -0.000000 -0.000000 -0.000000 -0.000000
  1C   1f-3      -0.000000 -0.000000  0.004722 -0.000000  0.002304  0.000000
  1C   2f0       -0.000000 -0.002623  0.000000 -0.000000  0.000000  0.016994
  1C   2f+1      -0.003872  0.000000 -0.000000  0.000000  0.000000  0.000000
  1C   2f-1      -0.000000 -0.000000  0.011888  0.000000 -0.005137 -0.000000
  1C   2f+2       0.000000  0.000471 -0.000000  0.000000 -0.000000 -0.001310
  1C   2f-2      -0.000000 -0.000000 -0.000000  0.000522  0.000000 -0.000000
  1C   2f+3      -0.004078 -0.000000 -0.000000 -0.000000 -0.000000 -0.000000
  1C   2f-3      -0.000000  0.000000  0.006143  0.000000 -0.012329  0.000000
  2F   1s         0.000000  0.000393  0.001788  0.000000 -0.000553 -0.000737
  2F   2s        -0.000000  0.044973  0.084126  0.000000 -0.004131 -0.004979
  2F   3s        -0.000000  0.015289  0.028449  0.000000 -0.002239 -0.002935
  2F   4s        -0.000000  0.061005  0.125123  0.000000 -0.036894 -0.029394
  2F   5s         0.000000  0.004182  0.022543  0.000000 -0.043885 -0.040279
  2F   1pz       -0.000000  0.082882 -0.197207  0.000000 -0.153975  0.229842
  2F   1px        0.195732  0.000000 -0.000000 -0.272167 -0.000000 -0.000000
  2F   1py        0.000000 -0.197207 -0.122391 -0.000000  0.230081 -0.002002
  2F   2pz       -0.000000  0.102597 -0.245070  0.000000 -0.190896  0.285374
  2F   2px        0.242148  0.000000 -0.000000 -0.337135 -0.000000 -0.000000
  2F   2py        0.000000 -0.245497 -0.152626 -0.000000  0.284839 -0.001613
  2F   3pz       -0.000000  0.079907 -0.160337  0.000000 -0.154190  0.199800
  2F   3px        0.174253  0.000000 -0.000000 -0.245381 -0.000000 -0.000000
  2F   3py        0.000000 -0.153431 -0.075703 -0.000000  0.207174 -0.007444
  2F   4pz        0.000000  0.009392 -0.007521  0.000000 -0.019822  0.016572
  2F   4px        0.005066  0.000000  0.000000 -0.029639  0.000000  0.000000
  2F   4py        0.000000 -0.014039 -0.005809  0.000000  0.013006 -0.007786
  2F   1dz2      -0.000000  0.002244 -0.001270  0.000000 -0.001741  0.000926
  2F   1dxz       0.001914  0.000000 -0.000000 -0.001599 -0.000000  0.000000
  2F   1dyz       0.000000 -0.001103 -0.004394 -0.000000  0.001102  0.002474
  2F   1dx2y2    -0.000000  0.002988  0.002087  0.000000 -0.001861 -0.000912
  2F   1dxy       0.002654  0.000000 -0.000000 -0.001852 -0.000000  0.000000
  2F   2dz2      -0.000000  0.009074 -0.004810  0.000000 -0.007042  0.003889
  2F   2dxz       0.006562  0.000000  0.000000 -0.005694  0.000000  0.000000
  2F   2dyz       0.000000 -0.004138 -0.015328 -0.000000  0.003232  0.008585
  2F   2dx2y2    -0.000000  0.010210  0.007273  0.000000 -0.006941 -0.003311
  2F   2dxy       0.009444  0.000000 -0.000000 -0.007947 -0.000000  0.000000
  2F   3dz2       0.000000  0.005006 -0.008701  0.000000 -0.012048  0.001394
  2F   3dxz       0.006500 -0.000000 -0.000000 -0.005621 -0.000000  0.000000
  2F   3dyz       0.000000  0.000933 -0.005823  0.000000  0.001473  0.003061
  2F   3dx2y2     0.000000  0.001160 -0.002449  0.000000 -0.010278 -0.003528
  2F   3dxy       0.011224 -0.000000  0.000000 -0.005789  0.000000  0.000000
  2F   1f0       -0.000000  0.000896  0.000684  0.000000 -0.000888 -0.000319
  2F   1f+1       0.000450  0.000000  0.000000 -0.000415 -0.000000  0.000000
  2F   1f-1      -0.000000  0.001049 -0.001483  0.000000 -0.000735  0.001182
  2F   1f+2      -0.000000  0.001043  0.002012  0.000000 -0.000818 -0.001202
  2F   1f-2       0.001464  0.000000 -0.000000 -0.001308 -0.000000 -0.000000
  2F   1f+3       0.001230  0.000000 -0.000000 -0.000916 -0.000000 -0.000000
  2F   1f-3       0.000000 -0.001535 -0.000835 -0.000000  0.000701  0.000195
  2F   2f0       -0.000000  0.002836  0.000896  0.000000 -0.001732  0.000087
  2F   2f+1       0.000107  0.000000 -0.000000 -0.000273 -0.000000 -0.000000
  2F   2f-1       0.000000  0.001591 -0.003372  0.000000 -0.001934  0.001840
  2F   2f+2      -0.000000  0.001747  0.002682 -0.000000 -0.001108 -0.001444
  2F   2f-2       0.002124  0.000000  0.000000 -0.001983  0.000000  0.000000
  2F   2f+3       0.002377  0.000000  0.000000 -0.002310  0.000000  0.000000
  2F   2f-3       0.000000 -0.001117 -0.001032 -0.000000  0.002502  0.001218
  3H   1s        -0.078337  0.059055  0.000000 -0.000000  0.000000 -0.080100
  3H   2s        -0.092813  0.060252  0.000000  0.000000  0.000000 -0.080947
  3H   3s        -0.138118  0.023171  0.000000  0.000000  0.000000  0.049812
  3H   4s        -0.000782 -0.000018  0.000000 -0.000000  0.000000  0.003305
  3H   1pz        0.006962 -0.002416 -0.000000 -0.000000 -0.000000  0.001788
  3H   1px       -0.006281  0.006237  0.000000 -0.000000  0.000000 -0.006672
  3H   1py        0.000000 -0.000000  0.002509 -0.001872  0.000672 -0.000000
  3H   2pz       -0.004792  0.010143 -0.000000 -0.000000 -0.000000 -0.003303
  3H   2px        0.007412  0.003053  0.000000  0.000000  0.000000 -0.003425
  3H   2py       -0.000000  0.000000  0.008285  0.008130 -0.008108  0.000000
  3H   3pz        0.012057 -0.011907 -0.000000 -0.000000 -0.000000 -0.011554
  3H   3px       -0.023021 -0.010662  0.000000  0.000000  0.000000  0.012290
  3H   3py        0.000000 -0.000000 -0.000913 -0.009830 -0.001818  0.000000
  3H   1dz2      -0.000844 -0.001037  0.000000 -0.000000 -0.000000  0.000798
  3H   1dxz       0.001618 -0.000576 -0.000000 -0.000000 -0.000000  0.000695
  3H   1dyz       0.000000  0.000000 -0.000901 -0.000568  0.000504  0.000000
  3H   1dx2y2    -0.000728  0.001346  0.000000  0.000000  0.000000 -0.001223
  3H   1dxy      -0.000000 -0.000000  0.001473 -0.000409 -0.000131 -0.000000
  3H   2dz2       0.001784 -0.001953 -0.000000 -0.000000 -0.000000 -0.001303
  3H   2dxz      -0.007999  0.002262  0.000000 -0.000000 -0.000000  0.001077
  3H   2dyz       0.000000 -0.000000  0.001456 -0.004534  0.003488 -0.000000
  3H   2dx2y2     0.002185 -0.000675 -0.000000  0.000000  0.000000 -0.001344
  3H   2dxy      -0.000000  0.000000 -0.001102  0.005406 -0.002686  0.000000
  4H   1s         0.078337  0.059055  0.000000  0.000000  0.000000 -0.080100
  4H   2s         0.092813  0.060252  0.000000 -0.000000  0.000000 -0.080947
  4H   3s         0.138118  0.023171  0.000000 -0.000000 -0.000000  0.049812
  4H   4s         0.000782 -0.000018 -0.000000 -0.000000  0.000000  0.003305
  4H   1pz       -0.006962 -0.002416 -0.000000  0.000000 -0.000000  0.001788
  4H   1px       -0.006281 -0.006237 -0.000000  0.000000 -0.000000  0.006672
  4H   1py       -0.000000 -0.000000  0.002509  0.001872  0.000672 -0.000000
  4H   2pz        0.004792  0.010143 -0.000000  0.000000 -0.000000 -0.003303
  4H   2px        0.007412 -0.003053 -0.000000  0.000000 -0.000000  0.003425
  4H   2py       -0.000000  0.000000  0.008285 -0.008130 -0.008108  0.000000
  4H   3pz       -0.012057 -0.011907 -0.000000  0.000000 -0.000000 -0.011554
  4H   3px       -0.023021  0.010662 -0.000000  0.000000  0.000000 -0.012290
  4H   3py       -0.000000 -0.000000 -0.000913  0.009830 -0.001818  0.000000
  4H   1dz2       0.000844 -0.001037 -0.000000  0.000000  0.000000  0.000798
  4H   1dxz       0.001618  0.000576  0.000000 -0.000000  0.000000 -0.000695
  4H   1dyz       0.000000  0.000000 -0.000901  0.000568  0.000504 -0.000000
  4H   1dx2y2     0.000728  0.001346  0.000000 -0.000000  0.000000 -0.001223
  4H   1dxy       0.000000  0.000000 -0.001473 -0.000409  0.000131  0.000000
  4H   2dz2      -0.001784 -0.001953  0.000000  0.000000  0.000000 -0.001303
  4H   2dxz      -0.007999 -0.002262  0.000000 -0.000000 -0.000000 -0.001077
  4H   2dyz       0.000000 -0.000000  0.001456  0.004534  0.003488 -0.000000
  4H   2dx2y2    -0.002185 -0.000675  0.000000 -0.000000 -0.000000 -0.001344
  4H   2dxy       0.000000 -0.000000  0.001102  0.005406  0.002686 -0.000000
                     12        13        14        15        16        17   
                  -0.53605   0.02825   0.04252   0.07355   0.07556   0.12596
                   2.00000   0.00000   0.00000   0.00000   0.00000   0.00000
                  --------  --------  --------  --------  --------  --------
  0F   1s         0.000000  0.005905  0.000000  0.003294 -0.001352  0.000000
  0F   2s         0.000000  0.021592  0.000000 -0.026499  0.031750  0.000000
  0F   3s         0.000000  0.005921  0.000000 -0.008922  0.010598  0.000000
  0F   4s        -0.000000 -0.135110 -0.000000 -0.192407  0.136662 -0.000000
  0F   5s        -0.000000 -0.781312 -0.000000 -1.208776  0.967337 -0.000000
  0F   1pz       -0.000000 -0.008814  0.000000 -0.019955 -0.010171  0.000000
  0F   1px       -0.185667 -0.000000  0.000906 -0.000000  0.000000 -0.019531
  0F   1py       -0.000000  0.008481 -0.000000 -0.013367 -0.011750 -0.000000
  0F   2pz       -0.000000 -0.008615  0.000000 -0.022742 -0.010553  0.000000
  0F   2px       -0.228548  0.000000  0.001972  0.000000 -0.000000 -0.016847
  0F   2py        0.000000  0.008858 -0.000000 -0.018954 -0.007745 -0.000000
  0F   3pz       -0.000000 -0.106031 -0.000000 -0.101277 -0.039207 -0.000000
  0F   3px       -0.192301 -0.000000 -0.005138 -0.000000  0.000000 -0.133829
  0F   3py        0.000000  0.132805  0.000000  0.074760 -0.118511  0.000000
  0F   4pz       -0.000000 -0.127651 -0.000000 -0.156536 -0.375819 -0.000000
  0F   4px       -0.027978  0.000000 -0.181010  0.000000 -0.000000 -0.624906
  0F   4py        0.000000  0.185849  0.000000 -0.279130 -0.188893  0.000000
  0F   1dz2      -0.000000  0.000227 -0.000000 -0.000189 -0.000257 -0.000000
  0F   1dxz       0.000295 -0.000000 -0.000010 -0.000000  0.000000 -0.001392
  0F   1dyz      -0.000000 -0.000388 -0.000000 -0.000950  0.001153 -0.000000
  0F   1dx2y2    -0.000000 -0.000094 -0.000000 -0.000961 -0.000021 -0.000000
  0F   1dxy       0.000052  0.000000  0.000021  0.000000 -0.000000  0.001222
  0F   2dz2      -0.000000  0.001023  0.000000  0.002314  0.002315  0.000000
  0F   2dxz       0.000594  0.000000  0.002537  0.000000 -0.000000  0.004595
  0F   2dyz       0.000000  0.001536  0.000000  0.006802 -0.006122  0.000000
  0F   2dx2y2     0.000000  0.001807  0.000000  0.007204 -0.000561  0.000000
  0F   2dxy       0.001133 -0.000000 -0.004671 -0.000000  0.000000 -0.002169
  0F   3dz2      -0.000000 -0.002340  0.000000 -0.009457 -0.036348  0.000000
  0F   3dxz      -0.004456 -0.000000 -0.009285 -0.000000  0.000000 -0.075572
  0F   3dyz      -0.000000  0.027119  0.000000 -0.002413  0.047555  0.000000
  0F   3dx2y2    -0.000000  0.015627  0.000000 -0.020287 -0.031468  0.000000
  0F   3dxy       0.005590  0.000000  0.011303  0.000000 -0.000000  0.053808
  0F   1f0        0.000000 -0.000099 -0.000000  0.000031 -0.000454 -0.000000
  0F   1f+1       0.000145  0.000000  0.000159  0.000000 -0.000000  0.000944
  0F   1f-1       0.000000 -0.000320  0.000000  0.000037 -0.000977  0.000000
  0F   1f+2       0.000000  0.000352  0.000000 -0.000047 -0.000201  0.000000
  0F   1f-2      -0.000082  0.000000 -0.000374 -0.000000  0.000000 -0.000825
  0F   1f+3      -0.000235 -0.000000  0.000132  0.000000 -0.000000 -0.000002
  0F   1f-3       0.000000  0.000009 -0.000000  0.000517  0.000487 -0.000000
  0F   2f0       -0.000000  0.001641  0.000000  0.000738  0.001784  0.000000
  0F   2f+1      -0.000323 -0.000000 -0.000551 -0.000000  0.000000 -0.004884
  0F   2f-1       0.000000  0.001648 -0.000000  0.000777  0.005344  0.000000
  0F   2f+2      -0.000000  0.000290 -0.000000  0.001426  0.000817  0.000000
  0F   2f-2       0.001241 -0.000000  0.000590  0.000000 -0.000000  0.005749
  0F   2f+3      -0.000928  0.000000  0.000422 -0.000000  0.000000 -0.001500
  0F   2f-3      -0.000000  0.001170  0.000000 -0.001551 -0.003418  0.000000
  1C   1s        -0.000000 -0.000978 -0.000000  0.000000 -0.003735 -0.000000
  1C   2s        -0.000000  0.047931 -0.000000 -0.000000 -0.048032 -0.000000
  1C   3s        -0.000000 -0.013724 -0.000000  0.000000 -0.017281 -0.000000
  1C   4s        -0.000000  2.939413  0.000000  0.000000  0.298519  0.000000
  1C   5s        -0.000000  4.239526  0.000000 -0.000000  0.854181  0.000000
  1C   1pz        0.000000  0.031983 -0.000000 -0.000000 -0.000297 -0.000000
  1C   1px        0.193581 -0.000000  0.031732 -0.000000  0.000000 -0.053700
  1C   1py       -0.000000  0.000000 -0.000000  0.016861 -0.000000 -0.000000
  1C   2pz        0.000000  0.067522  0.000000  0.000000  0.056864  0.000000
  1C   2px        0.258091  0.000000  0.130258  0.000000 -0.000000 -0.076155
  1C   2py        0.000000 -0.000000  0.000000  0.093430 -0.000000  0.000000
  1C   3pz       -0.000000  0.342821 -0.000000  0.000000  1.339618 -0.000000
  1C   3px        0.314814  0.000000  1.214240  0.000000 -0.000000  2.700574
  1C   3py        0.000000 -0.000000  0.000000  1.226267 -0.000000  0.000000
  1C   4pz       -0.000000  0.255461  0.000000  0.000000  2.117305  0.000000
  1C   4px        0.035652  0.000000  2.317739  0.000000 -0.000000  5.857360
  1C   4py        0.000000 -0.000000  0.000000  2.000978 -0.000000 -0.000000
  1C   1dz2       0.000000 -0.000491 -0.000000  0.000000  0.003150 -0.000000
  1C   1dxz       0.025010  0.000000  0.001481  0.000000 -0.000000 -0.000037
  1C   1dyz       0.000000 -0.000000  0.000000  0.002731  0.000000  0.000000
  1C   1dx2y2     0.000000  0.002768  0.000000 -0.000000 -0.001074  0.000000
  1C   1dxy      -0.000000 -0.000000  0.000000 -0.000000 -0.000000  0.000000
  1C   2dz2      -0.000000 -0.004437  0.000000 -0.000000 -0.022394  0.000000
  1C   2dxz       0.064041  0.000000  0.072831  0.000000 -0.000000  0.024134
  1C   2dyz      -0.000000  0.000000 -0.000000 -0.022795 -0.000000 -0.000000
  1C   2dx2y2     0.000000  0.026788  0.000000  0.000000  0.013719  0.000000
  1C   2dxy       0.000000 -0.000000 -0.000000  0.000000  0.000000 -0.000000
  1C   3dz2       0.000000  0.013248  0.000000 -0.000000 -0.119610  0.000000
  1C   3dxz       0.054168  0.000000  0.211091  0.000000 -0.000000  0.641783
  1C   3dyz      -0.000000  0.000000 -0.000000 -0.166784 -0.000000 -0.000000
  1C   3dx2y2    -0.000000  0.060095 -0.000000  0.000000  0.245306 -0.000000
  1C   3dxy      -0.000000 -0.000000 -0.000000  0.000000  0.000000 -0.000000
  1C   1f0       -0.000000 -0.001058 -0.000000 -0.000000 -0.002510 -0.000000
  1C   1f+1      -0.000646  0.000000  0.001647  0.000000 -0.000000 -0.000388
  1C   1f-1       0.000000 -0.000000  0.000000  0.002899  0.000000  0.000000
  1C   1f+2       0.000000  0.006975  0.000000 -0.000000  0.004091  0.000000
  1C   1f-2      -0.000000  0.000000 -0.000000 -0.000000  0.000000 -0.000000
  1C   1f+3      -0.005819 -0.000000 -0.002228 -0.000000  0.000000 -0.004420
  1C   1f-3       0.000000 -0.000000  0.000000  0.001811  0.000000  0.000000
  1C   2f0        0.000000 -0.006667 -0.000000 -0.000000  0.026502 -0.000000
  1C   2f+1       0.007455  0.000000  0.001046  0.000000 -0.000000 -0.021259
  1C   2f-1      -0.000000 -0.000000  0.000000  0.000316 -0.000000  0.000000
  1C   2f+2       0.000000  0.078492  0.000000 -0.000000  0.005406  0.000000
  1C   2f-2      -0.000000 -0.000000  0.000000 -0.000000  0.000000  0.000000
  1C   2f+3      -0.006455 -0.000000 -0.018189  0.000000 -0.000000  0.043725
  1C   2f-3       0.000000 -0.000000  0.000000 -0.019270  0.000000  0.000000
  2F   1s         0.000000  0.005905  0.000000 -0.003294 -0.001352  0.000000
  2F   2s        -0.000000  0.021592  0.000000  0.026499  0.031750  0.000000
  2F   3s        -0.000000  0.005921 -0.000000  0.008922  0.010598 -0.000000
  2F   4s         0.000000 -0.135110 -0.000000  0.192407  0.136662 -0.000000
  2F   5s         0.000000 -0.781312  0.000000  1.208776  0.967337 -0.000000
  2F   1pz       -0.000000 -0.008814  0.000000  0.019955 -0.010171  0.000000
  2F   1px       -0.185667 -0.000000  0.000906 -0.000000  0.000000 -0.019531
  2F   1py        0.000000 -0.008481 -0.000000 -0.013367  0.011750  0.000000
  2F   2pz       -0.000000 -0.008615  0.000000  0.022742 -0.010553  0.000000
  2F   2px       -0.228548  0.000000  0.001972  0.000000 -0.000000 -0.016847
  2F   2py       -0.000000 -0.008858  0.000000 -0.018954  0.007745  0.000000
  2F   3pz        0.000000 -0.106031  0.000000  0.101277 -0.039207 -0.000000
  2F   3px       -0.192301 -0.000000 -0.005138 -0.000000  0.000000 -0.133829
  2F   3py        0.000000 -0.132805 -0.000000  0.074760  0.118511 -0.000000
  2F   4pz        0.000000 -0.127651 -0.000000  0.156536 -0.375819 -0.000000
  2F   4px       -0.027978  0.000000 -0.181010  0.000000 -0.000000 -0.624906
  2F   4py        0.000000 -0.185849  0.000000 -0.279130  0.188893 -0.000000
  2F   1dz2      -0.000000  0.000227 -0.000000  0.000189 -0.000257 -0.000000
  2F   1dxz       0.000295 -0.000000 -0.000010 -0.000000  0.000000 -0.001392
  2F   1dyz      -0.000000  0.000388 -0.000000 -0.000950 -0.001153 -0.000000
  2F   1dx2y2     0.000000 -0.000094  0.000000  0.000961 -0.000021  0.000000
  2F   1dxy      -0.000052 -0.000000 -0.000021 -0.000000  0.000000 -0.001222
  2F   2dz2      -0.000000  0.001023  0.000000 -0.002314  0.002315  0.000000
  2F   2dxz       0.000594  0.000000  0.002537  0.000000 -0.000000  0.004595
  2F   2dyz       0.000000 -0.001536  0.000000  0.006802  0.006122 -0.000000
  2F   2dx2y2    -0.000000  0.001807 -0.000000 -0.007204 -0.000561 -0.000000
  2F   2dxy      -0.001133  0.000000  0.004671  0.000000 -0.000000  0.002169
  2F   3dz2      -0.000000 -0.002340  0.000000  0.009457 -0.036348  0.000000
  2F   3dxz      -0.004456 -0.000000 -0.009285 -0.000000  0.000000 -0.075572
  2F   3dyz       0.000000 -0.027119  0.000000 -0.002413 -0.047555  0.000000
  2F   3dx2y2    -0.000000  0.015627 -0.000000  0.020287 -0.031468  0.000000
  2F   3dxy      -0.005590 -0.000000 -0.011303 -0.000000  0.000000 -0.053808
  2F   1f0        0.000000 -0.000099  0.000000 -0.000031 -0.000454 -0.000000
  2F   1f+1       0.000145  0.000000  0.000159  0.000000 -0.000000  0.000944
  2F   1f-1      -0.000000  0.000320 -0.000000  0.000037  0.000977 -0.000000
  2F   1f+2       0.000000  0.000352  0.000000  0.000047 -0.000201  0.000000
  2F   1f-2       0.000082  0.000000  0.000374  0.000000 -0.000000  0.000825
  2F   1f+3      -0.000235 -0.000000  0.000132  0.000000 -0.000000 -0.000002
  2F   1f-3      -0.000000 -0.000009  0.000000  0.000517 -0.000487  0.000000
  2F   2f0       -0.000000  0.001641 -0.000000 -0.000738  0.001784  0.000000
  2F   2f+1      -0.000323 -0.000000 -0.000551 -0.000000  0.000000 -0.004884
  2F   2f-1      -0.000000 -0.001648  0.000000  0.000777 -0.005344 -0.000000
  2F   2f+2      -0.000000  0.000290 -0.000000 -0.001426  0.000817 -0.000000
  2F   2f-2      -0.001241  0.000000 -0.000590 -0.000000  0.000000 -0.005749
  2F   2f+3      -0.000928  0.000000  0.000422  0.000000  0.000000 -0.001500
  2F   2f-3       0.000000 -0.001170  0.000000 -0.001551  0.003418 -0.000000
  3H   1s        -0.126726  0.009022 -0.008637 -0.000000  0.000255  0.002745
  3H   2s        -0.157597 -0.248892  0.163065  0.000000 -0.125355  0.199037
  3H   3s         0.160598 -1.411338  1.636976  0.000000 -1.059313  3.457617
  3H   4s         0.028865 -1.683716  5.093929  0.000000 -0.578068  6.732767
  3H   1pz        0.006225 -0.001029  0.001991  0.000000  0.004538  0.001315
  3H   1px       -0.007225  0.003376 -0.000239  0.000000  0.000065  0.005283
  3H   1py       -0.000000  0.000000  0.000000  0.005140 -0.000000 -0.000000
  3H   2pz        0.006608  0.043169 -0.039662 -0.000000  0.010729 -0.058284
  3H   2px        0.003244 -0.070968  0.040423  0.000000 -0.042061  0.008724
  3H   2py        0.000000 -0.000000  0.000000 -0.029883  0.000000  0.000000
  3H   3pz       -0.027064  0.148138 -0.273656 -0.000000 -0.194749 -0.325919
  3H   3px        0.045617 -0.289931  0.244947  0.000000 -0.098538 -0.014135
  3H   3py        0.000000 -0.000000  0.000000 -0.377063  0.000000  0.000000
  3H   1dz2      -0.000378 -0.000105 -0.000718 -0.000000 -0.001147  0.000020
  3H   1dxz       0.002119  0.003162 -0.002112 -0.000000  0.004273 -0.003952
  3H   1dyz      -0.000000  0.000000 -0.000000 -0.000890 -0.000000 -0.000000
  3H   1dx2y2    -0.000827 -0.001971  0.002046  0.000000 -0.001863  0.002739
  3H   1dxy       0.000000 -0.000000  0.000000  0.001071  0.000000  0.000000
  3H   2dz2      -0.002887  0.005560  0.012532 -0.000000  0.025534  0.025051
  3H   2dxz       0.003498 -0.001433 -0.009279  0.000000 -0.048250  0.044780
  3H   2dyz       0.000000  0.000000 -0.000000  0.047860 -0.000000 -0.000000
  3H   2dx2y2     0.000359 -0.005423 -0.004146 -0.000000 -0.006683 -0.101904
  3H   2dxy       0.000000 -0.000000  0.000000 -0.036265  0.000000  0.000000
  4H   1s         0.126726  0.009022  0.008637  0.000000  0.000255 -0.002745
  4H   2s         0.157597 -0.248892 -0.163065 -0.000000 -0.125355 -0.199037
  4H   3s        -0.160598 -1.411338 -1.636976 -0.000000 -1.059313 -3.457617
  4H   4s        -0.028865 -1.683716 -5.093929 -0.000000 -0.578068 -6.732767
  4H   1pz       -0.006225 -0.001029 -0.001991  0.000000  0.004538 -0.001315
  4H   1px       -0.007225 -0.003376 -0.000239  0.000000 -0.000065  0.005283
  4H   1py       -0.000000  0.000000 -0.000000  0.005140 -0.000000 -0.000000
  4H   2pz       -0.006608  0.043169  0.039662  0.000000  0.010729  0.058284
  4H   2px        0.003244  0.070968  0.040423  0.000000  0.042061  0.008724
  4H   2py        0.000000 -0.000000  0.000000 -0.029883  0.000000  0.000000
  4H   3pz        0.027064  0.148138  0.273656  0.000000 -0.194749  0.325919
  4H   3px        0.045617  0.289931  0.244947  0.000000  0.098538 -0.014135
  4H   3py        0.000000 -0.000000  0.000000 -0.377063  0.000000  0.000000
  4H   1dz2       0.000378 -0.000105  0.000718 -0.000000 -0.001147 -0.000020
  4H   1dxz       0.002119 -0.003162 -0.002112 -0.000000 -0.004273 -0.003952
  4H   1dyz      -0.000000  0.000000 -0.000000 -0.000890 -0.000000 -0.000000
  4H   1dx2y2     0.000827 -0.001971 -0.002046 -0.000000 -0.001863 -0.002739
  4H   1dxy      -0.000000  0.000000 -0.000000 -0.001071 -0.000000 -0.000000
  4H   2dz2       0.002887  0.005560 -0.012532  0.000000  0.025534 -0.025051
  4H   2dxz       0.003498  0.001433 -0.009279 -0.000000  0.048250  0.044780
  4H   2dyz       0.000000  0.000000 -0.000000  0.047860 -0.000000 -0.000000
  4H   2dx2y2    -0.000359 -0.005423  0.004146 -0.000000 -0.006683  0.101904
  4H   2dxy      -0.000000  0.000000 -0.000000  0.036265 -0.000000 -0.000000
                     18        19        20        21        22        23   
                   0.13809   0.18598   0.19263   0.19635   0.20148   0.22472
                   0.00000   0.00000   0.00000   0.00000   0.00000   0.00000
                  --------  --------  --------  --------  --------  --------
  0F   1s        -0.014158 -0.013264 -0.020301  0.000000  0.004402 -0.000000
  0F   2s         0.002160 -0.020221 -0.023928  0.000000 -0.020554 -0.000000
  0F   3s         0.003744 -0.003693 -0.002494  0.000000 -0.008725 -0.000000
  0F   4s         0.488438  0.392010  0.590627 -0.000000 -0.101009  0.000000
  0F   5s         2.682146  3.390933  4.980095 -0.000000 -1.375372  0.000000
  0F   1pz       -0.015909 -0.017828 -0.035640  0.000000 -0.033125  0.000000
  0F   1px       -0.000000 -0.000000 -0.000000 -0.039999  0.000000 -0.047224
  0F   1py        0.010079  0.019555  0.016256 -0.000000 -0.012459 -0.000000
  0F   2pz       -0.025276 -0.016716 -0.041927  0.000000 -0.059059  0.000000
  0F   2px       -0.000000 -0.000000 -0.000000 -0.069477  0.000000 -0.046953
  0F   2py        0.017882  0.019709  0.006556 -0.000000 -0.025027 -0.000000
  0F   3pz        0.257510  0.278425  0.270325 -0.000000  0.124957  0.000000
  0F   3px       -0.000000  0.000000  0.000000  0.270570 -0.000000 -0.271227
  0F   3py       -0.368270 -0.205698 -0.370925  0.000000  0.212639 -0.000000
  0F   4pz        0.368849  1.738544  1.357768 -0.000000  0.328422 -0.000000
[...]
  2   0.002498533788   0.000644819570         0.004
  3   0.000965790527   0.000241870540         0.004
  4   0.000302196208   0.000080919053         0.004
  5   0.000051140214   0.000024560112         0.004
  6   0.000018384936   0.000010296850         0.004
  7   0.000003564653   0.000002080231         0.004

      *** CONVERGENCE OF RESIDUAL NORM REACHED ***
       --- The STEOM iterations have converged ---
Solving Root No   7 

Iter    Delta-E          Residual              Time
---------------------------------------------------
  0   0.453968658669   0.001591567868         0.004
  1   0.005193850898   0.000304047288         0.004
  2   0.001127423219   0.000319282960         0.004
  3   0.000819785877   0.000143703997         0.004
  4   0.000625168993   0.000064529595         0.004
  5   0.000270261882   0.000032002702         0.004
  6   0.000228155681   0.000012483205         0.004
  7   0.000081486126   0.000002317135         0.004

      *** CONVERGENCE OF RESIDUAL NORM REACHED ***
       --- The STEOM iterations have converged ---
Solving Root No   8 

Iter    Delta-E          Residual              Time
---------------------------------------------------
  0   0.473298447461   0.001102285928         0.004
  1   0.004228586742   0.000229828650         0.004
  2   0.002305641032   0.001970859893         0.004
  3   0.002471201547   0.000279480268         0.004
  4   0.000811337309   0.000555894388         0.004
  5   0.003318833139   0.002805732715         0.004
  6   0.002075135167   0.000210752381         0.004
  7   0.000341835771   0.000189493341         0.004
  8   0.002281004524   0.003945592183         0.004
  9   0.003377574833   0.000173885675         0.004
 10   0.000242894945   0.000075024634         0.004
 11   0.000128994790   0.000087465274         0.004
 12   0.001432208550   0.003772856800         0.004
 13   0.001757693541   0.000116992820         0.004
 14   0.000608885685   0.002789098620         0.004
 15   0.000556727530   0.000041108747         0.004
 16   0.000033866144   0.000006350913         0.004

      *** CONVERGENCE OF RESIDUAL NORM REACHED ***
       --- The STEOM iterations have converged ---
Solving Root No   9 

Iter    Delta-E          Residual              Time
---------------------------------------------------
  0   0.460092103724   0.001805150108         0.004
  1   0.003274257393   0.000801343375         0.004
  2   0.004308121764   0.001148477718         0.004
  3   0.011545840854   0.005555479294         0.004
  4   0.005666176245   0.000784286680         0.004
  5   0.002744266606   0.003080738369         0.004
  6   0.003624829395   0.000892699666         0.004
  7   0.001268391667   0.000452476508         0.004
  8   0.001710924633   0.000928692165         0.004
  9   0.003109179157   0.000729831828         0.004
 10   0.010587564350   0.000517625851         0.004
 11   0.001090111438   0.000203772510         0.004
 12   0.001387419433   0.001032695826         0.004
 13   0.001185942629   0.000258685134         0.004
 14   0.000594154902   0.000139579753         0.004
 15   0.000555432562   0.000085852602         0.004
 16   0.000362103795   0.000033743076         0.004
 17   0.000139450472   0.000010430268         0.004
 18   0.000041439582   0.000002042632         0.004

      *** CONVERGENCE OF RESIDUAL NORM REACHED ***
       --- The STEOM iterations have converged ---
Solving Root No  10 

Iter    Delta-E          Residual              Time
---------------------------------------------------
  0   0.480733766396   0.002143559858         0.004
  1   0.008133166038   0.003932459619         0.004
  2   0.004338862461   0.002197202363         0.004
  3   0.005204172370   0.004051834092         0.004
  4   0.005540627267   0.001763153945         0.004
  5   0.004847133290   0.007591474208         0.004
  6   0.006187617401   0.001128087192         0.004
  7   0.000864760373   0.000246644320         0.004
  8   0.000202338534   0.000151538152         0.004
  9   0.000778428998   0.000497528029         0.004
 10   0.003574898165   0.001577521179         0.004
 11   0.005830522815   0.000300833532         0.004
 12   0.000854509310   0.000068780108         0.004
 13   0.000352491587   0.000078805595         0.004
 14   0.000229089770   0.000068730306         0.004
 15   0.000088085767   0.000025824651         0.004
 16   0.000038534628   0.000031516455         0.004
 17   0.000086192641   0.000037722245         0.004
 18   0.000084778160   0.000007694949         0.004

      *** CONVERGENCE OF RESIDUAL NORM REACHED ***
       --- The STEOM iterations have converged ---

------------------
STEOM-CCSD RESULTS
------------------

IROOT=  1:  0.351754 au     9.572 eV   77201.0 cm**-1
  Amplitude    Excitation
  -0.802839    12 ->  13
  -0.112509    12 ->  15
  -0.543289    12 ->  18
  -0.111536    12 ->  19
  -0.100102    12 ->  24
  Ground state amplitude: -0.000000

Percentage Active Character     99.82

  Amplitude    Excitation in Canonical Basis
   0.802028    12 ->  13
   0.510614    12 ->  18
  -0.133689    12 ->  19
  -0.165519    12 ->  31

IROOT=  2:  0.370226 au    10.074 eV   81255.3 cm**-1
  Amplitude    Excitation
   0.106424     7 ->  16
   0.922945    12 ->  16
   0.189899    12 ->  21
   0.264519    12 ->  25
  Ground state amplitude: -0.000000

Percentage Active Character     99.79

  Amplitude    Excitation in Canonical Basis
  -0.779410    12 ->  15
  -0.147810    12 ->  20
  -0.527207    12 ->  24
   0.205762    12 ->  37

IROOT=  3:  0.385168 au    10.481 eV   84534.7 cm**-1
  Amplitude    Excitation
  -0.104312     7 ->  15
   0.368803    12 ->  13
  -0.796285    12 ->  15
  -0.383643    12 ->  19
  -0.124069    12 ->  23
  -0.190919    12 ->  24
  Ground state amplitude: -0.000000

Percentage Active Character     99.74

  Amplitude    Excitation in Canonical Basis
  -0.370331    12 ->  13
   0.777720    12 ->  16
  -0.212350    12 ->  19
   0.370657    12 ->  25
  -0.149002    12 ->  38

IROOT=  4:  0.391348 au    10.649 eV   85890.9 cm**-1
  Amplitude    Excitation
  -0.859304    12 ->  14
  -0.454904    12 ->  17
  -0.152096    12 ->  22
  Ground state amplitude:  0.005227

Percentage Active Character     99.81

  Amplitude    Excitation in Canonical Basis
   0.848623    12 ->  14
  -0.434552    12 ->  17
   0.192421    12 ->  23
   0.110654    12 ->  30

IROOT=  5:  0.418317 au    11.383 eV   91810.0 cm**-1
  Amplitude    Excitation
  -0.100839     6 ->  16
   0.710121    10 ->  13
   0.323840    10 ->  15
   0.472166    10 ->  18
   0.117800    10 ->  19
   0.119293    10 ->  24
   0.327980    11 ->  16
  Ground state amplitude: -0.000000

Percentage Active Character     99.80

  Amplitude    Excitation in Canonical Basis
  -0.706791    10 ->  13
  -0.296358    10 ->  16
  -0.460153    10 ->  18
  -0.143191    10 ->  25
   0.149032    10 ->  31
   0.278087    11 ->  15
   0.175135    11 ->  24

IROOT=  6:  0.427330 au    11.628 eV   93788.2 cm**-1
  Amplitude    Excitation
   0.117065     6 ->  13
  -0.544651    10 ->  16
  -0.110283    10 ->  25
  -0.649342    11 ->  13
  -0.201179    11 ->  15
  -0.411972    11 ->  18
  Ground state amplitude:  0.004425

Percentage Active Character     99.84

  Amplitude    Excitation in Canonical Basis
  -0.128223     7 ->  13
   0.476772    10 ->  15
   0.267208    10 ->  24
  -0.644586    11 ->  13
  -0.181211    11 ->  16
  -0.398374    11 ->  18
   0.115904    11 ->  31

IROOT=  7:  0.447262 au    12.171 eV   98162.7 cm**-1
  Amplitude    Excitation
   0.447063    12 ->  13
   0.370541    12 ->  15
  -0.570326    12 ->  18
  -0.506341    12 ->  19
  -0.203683    12 ->  24
  Ground state amplitude: -0.000000

Percentage Active Character     99.46

  Amplitude    Excitation in Canonical Basis
  -0.446010    12 ->  13
  -0.366961    12 ->  16
   0.468379    12 ->  18
  -0.527893    12 ->  19
   0.124232    12 ->  25
   0.138000    12 ->  26
  -0.259017    12 ->  31
  -0.152166    12 ->  38

IROOT=  8:  0.460785 au    12.539 eV  101130.6 cm**-1
  Amplitude    Excitation
   0.118493     6 ->  15
   0.377903    11 ->  13
  -0.818482    11 ->  15
  -0.303301    11 ->  19
  -0.105208    11 ->  23
  -0.210468    11 ->  24
  Ground state amplitude: -0.021759

Percentage Active Character     99.73

  Amplitude    Excitation in Canonical Basis
  -0.120991     7 ->  16
   0.379037    11 ->  13
  -0.790504    11 ->  16
   0.135383    11 ->  19
  -0.361248    11 ->  25
   0.133983    11 ->  38

IROOT=  9:  0.470290 au    12.797 eV  103216.7 cm**-1
  Amplitude    Excitation
  -0.120048     7 ->  17
   0.105072    11 ->  15
   0.455667    12 ->  14
  -0.862306    12 ->  17
  Ground state amplitude:  0.013220

Percentage Active Character     99.78

  Amplitude    Excitation in Canonical Basis
   0.115879     6 ->  17
   0.102298    11 ->  16
  -0.447021    12 ->  14
  -0.834417    12 ->  17
   0.188095    12 ->  30

IROOT= 10:  0.477923 au    13.005 eV  104892.1 cm**-1
  Amplitude    Excitation
  -0.105781    11 ->  14
  -0.341198    12 ->  13
   0.169508    12 ->  15
   0.682076    12 ->  18
  -0.561185    12 ->  19
  -0.103552    12 ->  23
  -0.128746    12 ->  24
  Ground state amplitude:  0.000381

Percentage Active Character     99.02

  Amplitude    Excitation in Canonical Basis
  -0.106708    11 ->  14
   0.338768    12 ->  13
  -0.119363    12 ->  16
  -0.698246    12 ->  18
  -0.386157    12 ->  19
  -0.282065    12 ->  22
   0.211004    12 ->  25
  -0.142517    12 ->  34
  -0.206477    12 ->  38


STEOM-CCSD done (   29.2 sec)
Calculating the Dipole integrals                  ... done
Transforming integrals                            ... done
Calculating the Linear Momentum integrals         ... done
Transforming integrals                            ... done
Calculating angular momentum integrals            ... done
Transforming integrals                            ... done

--------------------------------------------------------------------
               UNRELAXED EXCITED STATE DIPOLE MOMENTS
--------------------------------------------------------------------
               E(eV)     DX(au)      DY(au)      DZ(au)      |D|(D)
IROOT=  0:     0.000    0.000000    0.000000    0.773938    1.967193
IROOT=  1:     9.572   -0.000070   -0.000097   -0.553141    1.405972
IROOT=  2:    10.074    0.000000   -0.000519   -0.426338    1.083665
IROOT=  3:    10.481   -0.000405   -0.000008   -0.796781    2.025256
IROOT=  4:    10.649    0.000829   -0.000002   -0.925768    2.353117
IROOT=  5:    11.383    0.000018   -0.000177   -0.143770    0.365435
IROOT=  6:    11.628    0.000026   -0.000027   -0.440985    1.120895
IROOT=  7:    12.171   -0.000113    0.000809    1.902603    4.836034
IROOT=  8:    12.539    0.000340   -0.000082   -1.248980    3.174655
IROOT=  9:    12.797    0.000341   -0.000010   -1.218612    3.097466
IROOT= 10:    13.005   -0.001417   -0.000424   -1.115372    2.835052
--------------------------------------------------------------------

-----------------------------------------------------------------------------
         ABSORPTION SPECTRUM VIA TRANSITION ELECTRIC DIPOLE MOMENTS
-----------------------------------------------------------------------------
State   Energy  Wavelength   fosc         T2         TX        TY        TZ  
        (cm-1)    (nm)                  (au**2)     (au)      (au)      (au) 
-----------------------------------------------------------------------------
   1   77201.0    129.5   0.027829068   0.11867   0.34449   0.00000   0.00002
   2   81255.3    123.1   0.000000000   0.00000   0.00002   0.00000   0.00002
   3   84534.7    118.3   0.016828573   0.06554   0.25600   0.00000   0.00004
   4   85890.9    116.4   0.045191814   0.17322   0.00000   0.00000   0.41619
   5   91810.0    108.9   0.021098881   0.07566   0.00000   0.27506   0.00004
   6   93788.2    106.6   0.011520172   0.04044   0.00002   0.00002   0.20109
   7   98162.7    101.9   0.084021840   0.28179   0.53084   0.00000   0.00005
   8  101130.6     98.9   0.104003306   0.33856   0.00031   0.00004   0.58186
   9  103216.7     96.9   0.004633269   0.01478   0.00004   0.00002   0.12156
  10  104892.1     95.3   0.000584768   0.00184   0.04283   0.00006   0.00051

-------------------------------------------------------------------
                             CD SPECTRUM
-------------------------------------------------------------------
State   Energy Wavelength       R         MX        MY        MZ   
        (cm-1)   (nm)       (1e40*cgs)   (au)      (au)      (au)  
-------------------------------------------------------------------
   1     129.5   77201.0      0.00032   0.00000  -0.37622  -0.00001
   2     123.1   81255.3      0.01420   0.00000   0.00000  -0.55949
   3     118.3   84534.7     -0.00000   0.00000  -0.36023   0.00000
   4     116.4   85890.9     -0.00001  -0.00000   0.00000   0.00000
   5     108.9   91810.0     -0.00045   0.36517  -0.00001   0.00000
   6     106.6   93788.2      0.00001   0.00001   0.00001   0.00000
   7     101.9   98162.7     -0.00145  -0.00000  -0.45346  -0.00022
   8      98.9   101130.6     -0.01148   0.00009   0.00094  -0.00009
   9      96.9   103216.7     -0.00083  -0.00001  -0.00003   0.00005
  10      95.3   104892.1     -0.00235  -0.00002  -0.11105  -0.00065

TDM done (   29.5 sec)


------------------------------------------------------------------------------- 
                                     TIMINGS                                   
------------------------------------------------------------------------------- 


Total execution time                   ...      283.302 sec

Fock Matrix Formation                  ...        1.429 sec (  0.5%)
Initial Guess                          ...        0.033 sec (  0.0%)
DIIS Solver                            ...        1.181 sec (  0.4%)
State Vector Update                    ...        0.069 sec (  0.0%)
Sigma-vector construction              ...       29.577 sec ( 10.4%)
  <0|H|D>                              ...        0.010 sec (  0.0% of sigma)
  <D|H|D>(0-ext)                       ...        0.424 sec (  1.4% of sigma)
  <D|H|D>(2-ext Fock)                  ...        0.060 sec (  0.2% of sigma)
  <D|H|D>(2-ext)                       ...        1.956 sec (  6.6% of sigma)
  <D|H|D>(4-ext)                       ...        5.147 sec ( 17.4% of sigma)
  <D|H|D>(4-ext-corr)                  ...        3.275 sec ( 11.1% of sigma)
  <S|H|0>                              ...        0.021 sec (  0.1% of sigma)
  <S|H|S>                              ...        0.035 sec (  0.1% of sigma)
  <S|H|D>(1-ext)                       ...        0.132 sec (  0.4% of sigma)
  <D|H|S>(1-ext)                       ...        0.290 sec (  1.0% of sigma)
  <S|H|D>(3-ext)                       ...        1.662 sec (  5.6% of sigma)
  Fock-dressing                        ...        9.915 sec ( 33.5% of sigma)
  (ik|jl)-dressing                     ...        0.323 sec (  1.1% of sigma)
  (ij|ab),(ia|jb)-dressing             ...        5.848 sec ( 19.8% of sigma)
  Pair energies                        ...        0.018 sec (  0.1% of sigma)
Total Time for computing STEOM-CCSD    ...      210.348 sec ( 74.2% of ALL)
  Dressing integrals                   ...       62.514 sec ( 29.7% of (STEOM))
  EOM+STEOM Singles                    ...        6.055 sec (  2.9% of (STEOM))
  EOM Doubles                          ...      116.116 sec ( 55.2% of (STEOM))
  Build Hamiltonian                    ...        2.432 sec (  1.2% of (STEOM))
  Diagonalize Hamiltonian              ...        0.228 sec (  0.1% of (STEOM))
  Ritz vectors                         ...        2.063 sec (  1.0% of (STEOM))
  Residual vectors                     ...        2.254 sec (  1.1% of (STEOM))
  Orthogonalization                    ...        7.121 sec (  3.4% of (STEOM))
One-particle density matrix            ...        0.022 sec (  0.0%)


Maximum memory used throughout the entire MDCI-calculation: 7177.6 MB

-------------------------   --------------------
FINAL SINGLE POINT ENERGY      -238.346460474150
-------------------------   --------------------


                            ***************************************
                            *     ORCA property calculations      *
                            ***************************************

                                    ---------------------
                                    Active property flags
                                    ---------------------
   (+) Dipole Moment


------------------------------------------------------------------------------
                       ORCA ELECTRIC PROPERTIES CALCULATION
------------------------------------------------------------------------------

Dipole Moment Calculation                       ... on
Quadrupole Moment Calculation                   ... off
Polarizability Calculation                      ... off
GBWName                                         ... 000018.gbw
Electron density file                           ... 000018.scfp
The origin for moment calculation is the CENTER OF MASS  = ( 0.000000,  0.000000 -0.100200)

-------------
DIPOLE MOMENT
-------------
                                X             Y             Z
Electronic contribution:     -0.00000      -0.00000      -1.75165
Nuclear contribution   :      0.00000       0.00000       2.60520
                        -----------------------------------------
Total Dipole Moment    :     -0.00000      -0.00000       0.85355
                        -----------------------------------------
Magnitude (a.u.)       :      0.85355
Magnitude (Debye)      :      2.16954



--------------------
Rotational spectrum 
--------------------
 
Rotational constants in cm-1:     1.659930     0.354522     0.310127 
Rotational constants in MHz : 49763.440368 10628.294691  9297.372526 

 Dipole components along the rotational axes: 
x,y,z [a.u.] :    -0.000000     0.853546    -0.000000 
x,y,z [Debye]:    -0.000000     2.169540    -0.000000 

 

                           *** MDCI DENSITY ***

------------------------------------------------------------------------------
                       ORCA ELECTRIC PROPERTIES CALCULATION
------------------------------------------------------------------------------

Dipole Moment Calculation                       ... on
Quadrupole Moment Calculation                   ... off
Polarizability Calculation                      ... off
GBWName                                         ... 000018.gbw
Electron density file                           ... 000018.mdcip
The origin for moment calculation is the CENTER OF MASS  = ( 0.000000,  0.000000 -0.100200)

-------------
DIPOLE MOMENT
-------------
                                X             Y             Z
Electronic contribution:      0.00000       0.00000      -1.85107
Nuclear contribution   :      0.00000       0.00000       2.60520
                        -----------------------------------------
Total Dipole Moment    :      0.00000       0.00000       0.75412
                        -----------------------------------------
Magnitude (a.u.)       :      0.75412
Magnitude (Debye)      :      1.91683



--------------------
Rotational spectrum 
--------------------
 
Rotational constants in cm-1:     1.659930     0.354522     0.310127 
Rotational constants in MHz : 49763.440368 10628.294691  9297.372526 

 Dipole components along the rotational axes: 
x,y,z [a.u.] :     0.000000     0.754122     0.000000 
x,y,z [Debye]:     0.000000     1.916826     0.000000 

 

Timings for individual modules:

Sum of individual times         ...      299.452 sec (=   4.991 min)
GTO integral calculation        ...        2.208 sec (=   0.037 min)   0.7 %
SCF iterations                  ...       12.591 sec (=   0.210 min)   4.2 %
MDCI module                     ...      284.652 sec (=   4.744 min)  95.1 %
                             ****ORCA TERMINATED NORMALLY****
TOTAL RUN TIME: 0 days 0 hours 5 minutes 3 seconds 786 msec
