
                                        *****************
                                        * O   R   C   A *
                                        *****************

                                            #,                                       
                                            ###                                      
                                            ####                                     
                                            #####                                    
                                            ######                                   
                                           ########,                                 
                                     ,,################,,,,,                         
                               ,,#################################,,                 
                          ,,##########################################,,             
                       ,#########################################, ''#####,          
                    ,#############################################,,   '####,        
                  ,##################################################,,,,####,       
                ,###########''''           ''''###############################       
              ,#####''   ,,,,##########,,,,          '''####'''          '####       
            ,##' ,,,,###########################,,,                        '##       
           ' ,,###''''                  '''############,,,                           
         ,,##''                                '''############,,,,        ,,,,,,###''
      ,#''                                            '''#######################'''  
     '                                                          ''''####''''         
             ,#######,   #######,   ,#######,      ##                                
            ,#'     '#,  ##    ##  ,#'     '#,    #''#        ######   ,####,        
            ##       ##  ##   ,#'  ##            #'  '#       #        #'  '#        
            ##       ##  #######   ##           ,######,      #####,   #    #        
            '#,     ,#'  ##    ##  '#,     ,#' ,#      #,         ##   #,  ,#        
             '#######'   ##     ##  '#######'  #'      '#     #####' # '####'        



                  #######################################################
                  #                        -***-                        #
                  #          Department of theory and spectroscopy      #
                  #    Directorship and core code : Frank Neese         #
                  #        Max Planck Institute fuer Kohlenforschung    #
                  #                Kaiser Wilhelm Platz 1               #
                  #                 D-45470 Muelheim/Ruhr               #
                  #                      Germany                        #
                  #                                                     #
                  #                  All rights reserved                #
                  #                        -***-                        #
                  #######################################################


                         Program Version 5.0.0 -  RELEASE  -
                                (SVN: $Rev: 19529$)
                ($Date: 2021-06-28 11:36:33 +0200 (Mo, 28 Jun 2021) $)


 With contributions from (in alphabetic order):
   Daniel Aravena         : Magnetic Suceptibility
   Michael Atanasov       : Ab Initio Ligand Field Theory (pilot matlab implementation)
   Alexander A. Auer      : GIAO ZORA, VPT2 properties, NMR spectrum
   Ute Becker             : Parallelization
   Giovanni Bistoni       : ED, misc. LED, open-shell LED, HFLD
   Martin Brehm           : Molecular dynamics
   Dmytro Bykov           : SCF Hessian
   Vijay G. Chilkuri      : MRCI spin determinant printing, contributions to CSF-ICE
   Dipayan Datta          : RHF DLPNO-CCSD density
   Achintya Kumar Dutta   : EOM-CC, STEOM-CC
   Dmitry Ganyushin       : Spin-Orbit,Spin-Spin,Magnetic field MRCI
   Miquel Garcia          : C-PCM Hessian, Gaussian charge scheme
   Yang Guo               : DLPNO-NEVPT2, F12-NEVPT2, CIM, IAO-localization
   Andreas Hansen         : Spin unrestricted coupled pair/coupled cluster methods
   Benjamin Helmich-Paris : MC-RPA, TRAH-SCF, COSX integrals
   Lee Huntington         : MR-EOM, pCC
   Robert Izsak           : Overlap fitted RIJCOSX, COSX-SCS-MP3, EOM
   Marcus Kettner         : VPT2
   Christian Kollmar      : KDIIS, OOCD, Brueckner-CCSD(T), CCSD density, CASPT2, CASPT2-K
   Simone Kossmann        : Meta GGA functionals, TD-DFT gradient, OOMP2, MP2 Hessian
   Martin Krupicka        : Initial AUTO-CI
   Lucas Lang             : DCDCAS
   Marvin Lechner         : AUTO-CI (C++ implementation), FIC-MRCC
   Dagmar Lenk            : GEPOL surface, SMD
   Dimitrios Liakos       : Extrapolation schemes; Compound Job, initial MDCI parallelization
   Dimitrios Manganas     : Further ROCIS development; embedding schemes
   Dimitrios Pantazis     : SARC Basis sets
   Anastasios Papadopoulos: AUTO-CI, single reference methods and gradients
   Taras Petrenko         : DFT Hessian,TD-DFT gradient, ASA, ECA, R-Raman, ABS, FL, XAS/XES, NRVS
   Peter Pinski           : DLPNO-MP2, DLPNO-MP2 Gradient
   Christoph Reimann      : Effective Core Potentials
   Marius Retegan         : Local ZFS, SOC
   Christoph Riplinger    : Optimizer, TS searches, QM/MM, DLPNO-CCSD(T), (RO)-DLPNO pert. Triples
   Tobias Risthaus        : Range-separated hybrids, TD-DFT gradient, RPA, STAB
   Michael Roemelt        : Original ROCIS implementation
   Masaaki Saitow         : Open-shell DLPNO-CCSD energy and density
   Barbara Sandhoefer     : DKH picture change effects
   Avijit Sen             : IP-ROCIS
   Kantharuban Sivalingam : CASSCF convergence, NEVPT2, FIC-MRCI
   Bernardo de Souza      : ESD, SOC TD-DFT
   Georgi Stoychev        : AutoAux, RI-MP2 NMR
   Willem Van den Heuvel  : Paramagnetic NMR
   Boris Wezisla          : Elementary symmetry handling
   Frank Wennmohs         : Technical directorship


 We gratefully acknowledge several colleagues who have allowed us to
 interface, adapt or use parts of their codes:
   Stefan Grimme, W. Hujo, H. Kruse, P. Pracht,  : VdW corrections, initial TS optimization,
                  C. Bannwarth, S. Ehlert          DFT functionals, gCP, sTDA/sTD-DF
   Ed Valeev, F. Pavosevic, A. Kumar             : LibInt (2-el integral package), F12 methods
   Garnet Chan, S. Sharma, J. Yang, R. Olivares  : DMRG
   Ulf Ekstrom                                   : XCFun DFT Library
   Mihaly Kallay                                 : mrcc  (arbitrary order and MRCC methods)
   Jiri Pittner, Ondrej Demel                    : Mk-CCSD
   Frank Weinhold                                : gennbo (NPA and NBO analysis)
   Christopher J. Cramer and Donald G. Truhlar   : smd solvation model
   Lars Goerigk                                  : TD-DFT with DH, B97 family of functionals
   V. Asgeirsson, H. Jonsson                     : NEB implementation
   FAccTs GmbH                                   : IRC, NEB, NEB-TS, DLPNO-Multilevel, CI-OPT
                                                   MM, QMMM, 2- and 3-layer-ONIOM, Crystal-QMMM,
                                                   LR-CPCM, SF, NACMEs, symmetry and pop. for TD-DFT,
                                                   nearIR, NL-DFT gradient (VV10), updates on ESD,
                                                   ML-optimized integration grids
   S Lehtola, MJT Oliveira, MAL Marques          : LibXC Library
   Liviu Ungur et al                             : ANISO software


 Your calculation uses the libint2 library for the computation of 2-el integrals
 For citations please refer to: http://libint.valeyev.net

 Your ORCA version has been built with support for libXC version: 5.1.0
 For citations please refer to: https://tddft.org/programs/libxc/

 This ORCA versions uses:
   CBLAS   interface :  Fast vector & matrix operations
   LAPACKE interface :  Fast linear algebra routines
   SCALAPACK package :  Parallel linear algebra routines
   Shared memory     :  Shared parallel matrices
   BLAS/LAPACK       :  OpenBLAS 0.3.15  USE64BITINT DYNAMIC_ARCH NO_AFFINITY Haswell SINGLE_THREADED
        Core in use  :  Haswell
   Copyright (c) 2011-2014, The OpenBLAS Project




***************************************
The coordinates will be read from file: 000025.xyz
***************************************


================================================================================

----- Orbital basis set information -----
Your calculation utilizes the basis: aug-cc-pVTZ 
    H, B-Ne : Obtained from the ccRepo (grant-hill.group.shef.ac.uk/ccrepo) Feb. 2017
              R. A. Kendall, T. H. Dunning, Jr., R. J. Harrison, J. Chem. Phys. 96, 6796 (1992)
         He : Obtained from the ccRepo (grant-hill.group.shef.ac.uk/ccrepo) Feb. 2017
              D. E. Woon, T. H. Dunning, Jr., J. Chem. Phys. 100, 2975 (1994)
  Li-Be, Na : Obtained from the ccRepo (grant-hill.group.shef.ac.uk/ccrepo) Feb. 2017
              B. P. Prascher, D. E. Woon, K. A. Peterson, T. H. Dunning, Jr., A. K. Wilson, Theor. Chem. Acc. 128, 69 (2011)
         Mg : Obtained from the Peterson Research Group Website (tyr0.chem.wsu.edu/~kipeters) Feb. 2017
              B. P. Prascher, D. E. Woon, K. A. Peterson, T. H. Dunning, Jr., A. K. Wilson, Theor. Chem. Acc. 128, 69 (2011)
      Al-Ar : Obtained from the ccRepo (grant-hill.group.shef.ac.uk/ccrepo) Feb. 2017
              D. E. Woon, T. H. Dunning, Jr., J. Chem. Phys. 98, 1358 (1993)
      Sc-Zn : Obtained from the ccRepo (grant-hill.group.shef.ac.uk/ccrepo) Feb. 2017
              N. B. Balabanov, K. A. Peterson, J. Chem. Phys. 123, 064107 (2005)
              N. B. Balabanov, K. A. Peterson, J. Chem. Phys. 125, 074110 (2006)
      Ga-Kr : Obtained from the ccRepo (grant-hill.group.shef.ac.uk/ccrepo) Feb. 2017
              A. K. Wilson, D. E. Woon, K. A. Peterson, T. H. Dunning, Jr., J. Chem. Phys. 110, 7667 (1999)
     Ag, Au : Obtained from the Peterson Research Group Website (tyr0.chem.wsu.edu/~kipeters) Feb. 2017
              K. A. Peterson, C. Puzzarini, Theor. Chem. Acc. 114, 283 (2005)

================================================================================
                                        WARNINGS
                       Please study these warnings very carefully!
================================================================================


WARNING: Post HF methods need fully converged wavefunctions
  ===> : Setting SCFConvForced true
         You can overwrite this default with %scf ConvForced false 


WARNING: MDCI localization with Augmented Hessian Foster-Boys
  ===> : Switching off randomization!

INFO   : the flag for use of the SHARK integral package has been found!

================================================================================
                                       INPUT FILE
================================================================================
NAME = 000025.com
|  1> !STEOM-CCSD aug-cc-pVTZ TightSCF PrintMOs
|  2> 
|  3> *xyzfile 0 1 000025.xyz
|  4> 
|  5> %MaxCore 64000
|  6> %scf
|  7>  MaxIter 150
|  8> end
|  9> 
| 10> %pal nprocs 8
| 11> end
| 12> 
| 13> %mdci
| 14>  nroots 10
| 15>  DoRootwise true
| 16> end
| 17> 
| 18>                          ****END OF INPUT****
================================================================================

                       ****************************
                       * Single Point Calculation *
                       ****************************

---------------------------------
CARTESIAN COORDINATES (ANGSTROEM)
---------------------------------
  N     -1.078471   -0.156900    0.000001
  C      0.161963    0.384944    0.000002
  O      1.189170   -0.245458   -0.000001
  H     -1.898427    0.419427   -0.000004
  H     -1.178124   -1.157073   -0.000005
  H      0.140706    1.489948   -0.000007

----------------------------
CARTESIAN COORDINATES (A.U.)
----------------------------
  NO LB      ZA    FRAG     MASS         X           Y           Z
   0 N     7.0000    0    14.007   -2.038015   -0.296498    0.000002
   1 C     6.0000    0    12.011    0.306066    0.727439    0.000004
   2 O     8.0000    0    15.999    2.247206   -0.463848   -0.000002
   3 H     1.0000    0     1.008   -3.587507    0.792602   -0.000008
   4 H     1.0000    0     1.008   -2.226332   -2.186551   -0.000009
   5 H     1.0000    0     1.008    0.265896    2.815594   -0.000013

--------------------------------
INTERNAL COORDINATES (ANGSTROEM)
--------------------------------
 N      0   0   0     0.000000000000     0.00000000     0.00000000
 C      1   0   0     1.353614209697     0.00000000     0.00000000
 O      2   1   0     1.205222345653   124.86577881     0.00000000
 H      1   2   3     1.002237822520   121.30097972   180.00051211
 H      1   2   3     1.005125241139   119.28650523     0.00000000
 H      2   1   3     1.105208441945   112.49451050   179.99927416

---------------------------
INTERNAL COORDINATES (A.U.)
---------------------------
 N      0   0   0     0.000000000000     0.00000000     0.00000000
 C      1   0   0     2.557960147311     0.00000000     0.00000000
 O      2   1   0     2.277540163767   124.86577881     0.00000000
 H      1   2   3     1.893955005621   121.30097972   180.00051211
 H      1   2   3     1.899411436044   119.28650523     0.00000000
 H      2   1   3     2.088541276173   112.49451050   179.99927416

---------------------
BASIS SET INFORMATION
---------------------
There are 4 groups of distinct atoms

 Group   1 Type N   : 19s6p3d2f contracted to 5s4p3d2f pattern {88111/3111/111/11}
 Group   2 Type C   : 19s6p3d2f contracted to 5s4p3d2f pattern {88111/3111/111/11}
 Group   3 Type O   : 19s6p3d2f contracted to 5s4p3d2f pattern {88111/3111/111/11}
 Group   4 Type H   : 6s3p2d contracted to 4s3p2d pattern {3111/111/11}

Atom   0N    basis set group =>   1
Atom   1C    basis set group =>   2
Atom   2O    basis set group =>   3
Atom   3H    basis set group =>   4
Atom   4H    basis set group =>   4
Atom   5H    basis set group =>   4


           ************************************************************
           *        Program running with 8 parallel MPI-processes     *
           *              working on a common directory               *
           ************************************************************
------------------------------------------------------------------------------
                           ORCA GTO INTEGRAL CALCULATION
------------------------------------------------------------------------------
------------------------------------------------------------------------------
                   ___                                                        
                  /   \      - P O W E R E D   B Y -                         
                 /     \                                                     
                 |  |  |   _    _      __       _____    __    __             
                 |  |  |  | |  | |    /  \     |  _  \  |  |  /  |          
                  \  \/   | |  | |   /    \    | | | |  |  | /  /          
                 / \  \   | |__| |  /  /\  \   | |_| |  |  |/  /          
                |  |  |   |  __  | /  /__\  \  |    /   |      \           
                |  |  |   | |  | | |   __   |  |    \   |  |\   \          
                \     /   | |  | | |  |  |  |  | |\  \  |  | \   \       
                 \___/    |_|  |_| |__|  |__|  |_| \__\ |__|  \__/        
                                                                              
                      - O R C A' S   B I G   F R I E N D -                    
                                      &                                       
                       - I N T E G R A L  F E E D E R -                       
                                                                              
 v1 FN, 2020, v2 2021                                                         
------------------------------------------------------------------------------


Reading SHARK input file 000025.SHARKINP.tmp ... ok
----------------------
SHARK INTEGRAL PACKAGE
----------------------

Number of atoms                             ...      6
Number of basis functions                   ...    207
Number of shells                            ...     69
Maximum angular momentum                    ...      3
Integral batch strategy                     ... SHARK/LIBINT Hybrid
RI-J (if used) integral strategy            ... SPLIT-RIJ (Revised 2003 algorithm where possible)
Printlevel                                  ...      1
Contraction scheme used                     ... SEGMENTED contraction
Coulomb Range Separation                    ... NOT USED
Exchange Range Separation                   ... NOT USED
Finite Nucleus Model                        ... NOT USED
Auxiliary Coulomb fitting basis             ... NOT available
Auxiliary J/K fitting basis                 ... NOT available
Auxiliary Correlation fitting basis         ... NOT available
Auxiliary 'external' fitting basis          ... NOT available
Integral threshold                          ...     2.500000e-11
Primitive cut-off                           ...     2.500000e-12
Primitive pair pre-selection threshold      ...     2.500000e-12

Calculating pre-screening integrals         ... done (  0.1 sec) Dimension = 69
Organizing shell pair data                  ... done (  0.0 sec)
Shell pair information
Total number of shell pairs                 ...      2415
Shell pairs after pre-screening             ...      2414
Total number of primitive shell pairs       ...      7812
Primitive shell pairs kept                  ...      6794
          la=0 lb=0:    378 shell pairs
          la=1 lb=0:    567 shell pairs
          la=1 lb=1:    230 shell pairs
          la=2 lb=0:    405 shell pairs
          la=2 lb=1:    315 shell pairs
          la=2 lb=2:    120 shell pairs
          la=3 lb=0:    162 shell pairs
          la=3 lb=1:    126 shell pairs
          la=3 lb=2:     90 shell pairs
          la=3 lb=3:     21 shell pairs

Calculating one electron integrals          ... done (  0.0 sec)
Calculating Nuclear repulsion               ... done (  0.0 sec) ENN=     71.520993475619 Eh

SHARK setup successfully completed in   0.2 seconds

Maximum memory used throughout the entire GTOINT-calculation: 15.9 MB


           ************************************************************
           *        Program running with 8 parallel MPI-processes     *
           *              working on a common directory               *
           ************************************************************
-------------------------------------------------------------------------------
                                 ORCA SCF
-------------------------------------------------------------------------------

------------
SCF SETTINGS
------------
Hamiltonian:
 Ab initio Hamiltonian  Method          .... Hartree-Fock(GTOs)


General Settings:
 Integral files         IntName         .... 000025
 Hartree-Fock type      HFTyp           .... RHF
 Total Charge           Charge          ....    0
 Multiplicity           Mult            ....    1
 Number of Electrons    NEL             ....   24
 Basis Dimension        Dim             ....  207
 Nuclear Repulsion      ENuc            ....     71.5209934756 Eh

Convergence Acceleration:
 DIIS                   CNVDIIS         .... on
   Start iteration      DIISMaxIt       ....    12
   Startup error        DIISStart       ....  0.200000
   # of expansion vecs  DIISMaxEq       ....     5
   Bias factor          DIISBfac        ....   1.050
   Max. coefficient     DIISMaxC        ....  10.000
 Trust-Rad. Augm. Hess. CNVTRAH         .... auto
   Auto Start mean grad. ratio tolernc. ....  1.125000
   Auto Start start iteration           ....    20
   Auto Start num. interpolation iter.  ....    10
   Max. Number of Micro iterations      ....    16
   Max. Number of Macro iterations      .... Maxiter - #DIIS iter
   Number of Davidson start vectors     ....     2
   Converg. threshold I  (grad. norm)   ....   1.000e-05
   Converg. threshold II (energy diff.) ....   1.000e-08
   Grad. Scal. Fac. for Micro threshold ....   0.100
   Minimum threshold for Micro iter.    ....   0.010
   NR start threshold (gradient norm)   ....   0.001
   Initial trust radius                 ....   0.400
   Minimum AH scaling param. (alpha)    ....   1.000
   Maximum AH scaling param. (alpha)    .... 1000.000
   Orbital update algorithm             .... Taylor
   White noise on init. David. guess    .... on
   Maximum white noise                  ....   0.010
   Quad. conv. algorithm                .... NR
 SOSCF                  CNVSOSCF        .... on
   Start iteration      SOSCFMaxIt      ....   150
   Startup grad/error   SOSCFStart      ....  0.003300
 Level Shifting         CNVShift        .... on
   Level shift para.    LevelShift      ....    0.2500
   Turn off err/grad.   ShiftErr        ....    0.0010
 Zerner damping         CNVZerner       .... off
 Static damping         CNVDamp         .... on
   Fraction old density DampFac         ....    0.7000
   Max. Damping (<1)    DampMax         ....    0.9800
   Min. Damping (>=0)   DampMin         ....    0.0000
   Turn off err/grad.   DampErr         ....    0.1000
 Fernandez-Rico         CNVRico         .... off

SCF Procedure:
 Maximum # iterations   MaxIter         ....   150
 SCF integral mode      SCFMode         .... Direct
   Integral package                     .... SHARK and LIBINT hybrid scheme
 Reset frequency        DirectResetFreq ....    20
 Integral Threshold     Thresh          ....  2.500e-11 Eh
 Primitive CutOff       TCut            ....  2.500e-12 Eh

Convergence Tolerance:
 Convergence Check Mode ConvCheckMode   .... Total+1el-Energy
 Convergence forced     ConvForced      .... 1
 Energy Change          TolE            ....  1.000e-08 Eh
 1-El. energy change                    ....  1.000e-05 Eh
 Orbital Gradient       TolG            ....  1.000e-05
 Orbital Rotation angle TolX            ....  1.000e-05
 DIIS Error             TolErr          ....  5.000e-07


Diagonalization of the overlap matrix:
Smallest eigenvalue                        ... 5.618e-05
Time for diagonalization                   ...    0.013 sec
Threshold for overlap eigenvalues          ... 1.000e-08
Number of eigenvalues below threshold      ... 0
Time for construction of square roots      ...    0.011 sec
Total time needed                          ...    0.025 sec

Time for model grid setup =    0.037 sec

------------------------------
INITIAL GUESS: MODEL POTENTIAL
------------------------------
Loading Hartree-Fock densities                     ... done
Calculating cut-offs                               ... done
Initializing the effective Hamiltonian             ... done
Setting up the integral package (SHARK)            ... done
Starting the Coulomb interaction                   ... done (   0.0 sec)
Reading the grid                                   ... done
Mapping shells                                     ... done
Starting the XC term evaluation                    ... done (   0.0 sec)
Transforming the Hamiltonian                       ... done (   0.0 sec)
Diagonalizing the Hamiltonian                      ... done (   0.0 sec)
Back transforming the eigenvectors                 ... done (   0.0 sec)
Now organizing SCF variables                       ... done
                      ------------------
                      INITIAL GUESS DONE (   0.1 sec)
                      ------------------
--------------
SCF ITERATIONS
--------------
ITER       Energy         Delta-E        Max-DP      RMS-DP      [F,P]     Damp
               ***  Starting incremental Fock matrix formation  ***
  0   -168.8248368646   0.000000000000 0.03107040  0.00068902  0.3441951 0.7000
  1   -168.8912985597  -0.066461695075 0.02186201  0.00050295  0.2056420 0.7000
                               ***Turning on DIIS***
  2   -168.9289159524  -0.037617392700 0.01529975  0.00032555  0.1131845 0.7000
  3   -169.2913953123  -0.362479359936 0.03594678  0.00072321  0.0832339 0.0000
  4   -168.9785157848   0.312879527529 0.00415711  0.00010852  0.0107976 0.0000
  5   -169.0090462386  -0.030530453814 0.00165961  0.00005484  0.0048874 0.0000
                      *** Initiating the SOSCF procedure ***
                           *** Shutting down DIIS ***
                      *** Re-Reading the Fockian *** 
                      *** Removing any level shift *** 
ITER      Energy       Delta-E        Grad      Rot      Max-DP    RMS-DP
  6   -169.00295366   0.0060925791  0.001860  0.001860  0.001479  0.000031
               *** Restarting incremental Fock matrix formation ***
  7   -169.00559129  -0.0026376273  0.000641  0.001085  0.000733  0.000018
  8   -169.00560043  -0.0000091407  0.000472  0.001732  0.000834  0.000020
  9   -169.00560430  -0.0000038676  0.000113  0.000214  0.000212  0.000004
 10   -169.00560457  -0.0000002745  0.000030  0.000047  0.000060  0.000001
 11   -169.00560459  -0.0000000226  0.000015  0.000032  0.000030  0.000001
 12   -169.00560460  -0.0000000039  0.000003  0.000006  0.000009  0.000000
                 **** Energy Check signals convergence ****
              ***Rediagonalizing the Fockian in SOSCF/NRSCF***

               *****************************************************
               *                     SUCCESS                       *
               *           SCF CONVERGED AFTER  13 CYCLES          *
               *****************************************************


----------------
TOTAL SCF ENERGY
----------------

Total Energy       :         -169.00560460 Eh           -4598.87630 eV

Components:
Nuclear Repulsion  :           71.52099348 Eh            1946.18517 eV
Electronic Energy  :         -240.52659807 Eh           -6545.06148 eV
One Electron Energy:         -372.19274497 Eh          -10127.87948 eV
Two Electron Energy:          131.66614690 Eh            3582.81800 eV

Virial components:
Potential Energy   :         -337.75340668 Eh           -9190.73744 eV
Kinetic Energy     :          168.74780209 Eh            4591.86114 eV
Virial Ratio       :            2.00152774


---------------
SCF CONVERGENCE
---------------

  Last Energy change         ...   -3.1619e-10  Tolerance :   1.0000e-08
  Last MAX-Density change    ...    3.3159e-06  Tolerance :   1.0000e-07
  Last RMS-Density change    ...    6.0502e-08  Tolerance :   5.0000e-09
  Last Orbital Gradient      ...    8.7972e-07  Tolerance :   1.0000e-05
  Last Orbital Rotation      ...    1.6988e-06  Tolerance :   1.0000e-05

             **** THE GBW FILE WAS UPDATED (000025.gbw) ****
             **** DENSITY 000025.scfp WAS UPDATED ****
             **** ENERGY FILE WAS UPDATED (000025.en.tmp) ****
             **** THE GBW FILE WAS UPDATED (000025.gbw) ****
             **** DENSITY 000025.scfp WAS UPDATED ****
----------------
ORBITAL ENERGIES
----------------

  NO   OCC          E(Eh)            E(eV) 
   0   2.0000     -20.530270      -558.6570 
   1   2.0000     -15.595849      -424.3846 
   2   2.0000     -11.355538      -308.9999 
   3   2.0000      -1.392056       -37.8798 
   4   2.0000      -1.223294       -33.2875 
   5   2.0000      -0.852565       -23.1995 
   6   2.0000      -0.754382       -20.5278 
   7   2.0000      -0.677010       -18.4224 
   8   2.0000      -0.611894       -16.6505 
   9   2.0000      -0.575658       -15.6645 
  10   2.0000      -0.437689       -11.9101 
  11   2.0000      -0.424023       -11.5382 
  12   0.0000       0.021033         0.5723 
  13   0.0000       0.036706         0.9988 
  14   0.0000       0.048883         1.3302 
  15   0.0000       0.080453         2.1892 
  16   0.0000       0.098558         2.6819 
  17   0.0000       0.106228         2.8906 
  18   0.0000       0.124781         3.3955 
  19   0.0000       0.131876         3.5885 
  20   0.0000       0.138759         3.7758 
  21   0.0000       0.159823         4.3490 
  22   0.0000       0.166393         4.5278 
  23   0.0000       0.186040         5.0624 
  24   0.0000       0.215198         5.8558 
  25   0.0000       0.223685         6.0868 
  26   0.0000       0.223971         6.0946 
  27   0.0000       0.251853         6.8533 
  28   0.0000       0.269765         7.3407 
  29   0.0000       0.275827         7.5056 
  30   0.0000       0.280081         7.6214 
  31   0.0000       0.305560         8.3147 
  32   0.0000       0.322699         8.7811 
  33   0.0000       0.334200         9.0941 
  34   0.0000       0.361395         9.8341 
  35   0.0000       0.362212         9.8563 
  36   0.0000       0.366386         9.9699 
  37   0.0000       0.384538        10.4638 
  38   0.0000       0.398635        10.8474 
  39   0.0000       0.411796        11.2056 
  40   0.0000       0.434021        11.8103 
  41   0.0000       0.459353        12.4996 
  42   0.0000       0.475442        12.9374 
  43   0.0000       0.500399        13.6165 
  44   0.0000       0.508578        13.8391 
  45   0.0000       0.512650        13.9499 
  46   0.0000       0.568214        15.4619 
  47   0.0000       0.591484        16.0951 
  48   0.0000       0.609748        16.5921 
  49   0.0000       0.618503        16.8303 
  50   0.0000       0.627378        17.0718 
  51   0.0000       0.667409        18.1611 
  52   0.0000       0.677989        18.4490 
  53   0.0000       0.741738        20.1837 
  54   0.0000       0.784994        21.3608 
  55   0.0000       0.811380        22.0788 
  56   0.0000       0.836359        22.7585 
  57   0.0000       0.842622        22.9289 
  58   0.0000       0.855470        23.2785 
  59   0.0000       0.864946        23.5364 
  60   0.0000       0.871938        23.7267 
  61   0.0000       0.890183        24.2231 
  62   0.0000       0.905424        24.6378 
  63   0.0000       0.914817        24.8934 
  64   0.0000       0.951383        25.8885 
  65   0.0000       0.955190        25.9920 
  66   0.0000       0.962999        26.2045 
  67   0.0000       0.981277        26.7019 
  68   0.0000       1.002108        27.2687 
  69   0.0000       1.019155        27.7326 
  70   0.0000       1.040215        28.3057 
  71   0.0000       1.051896        28.6235 
  72   0.0000       1.059505        28.8306 
  73   0.0000       1.077086        29.3090 
  74   0.0000       1.098852        29.9013 
  75   0.0000       1.100625        29.9495 
  76   0.0000       1.132576        30.8190 
  77   0.0000       1.134902        30.8822 
  78   0.0000       1.138669        30.9847 
  79   0.0000       1.181932        32.1620 
  80   0.0000       1.223359        33.2893 
  81   0.0000       1.246151        33.9095 
  82   0.0000       1.247311        33.9410 
  83   0.0000       1.291785        35.1513 
  84   0.0000       1.311194        35.6794 
  85   0.0000       1.359851        37.0034 
  86   0.0000       1.380557        37.5669 
  87   0.0000       1.386510        37.7288 
  88   0.0000       1.429591        38.9012 
  89   0.0000       1.440203        39.1899 
  90   0.0000       1.453903        39.5627 
  91   0.0000       1.487050        40.4647 
  92   0.0000       1.513646        41.1884 
  93   0.0000       1.552810        42.2541 
  94   0.0000       1.629431        44.3391 
  95   0.0000       1.635143        44.4945 
  96   0.0000       1.711145        46.5626 
  97   0.0000       1.731889        47.1271 
  98   0.0000       1.754538        47.7434 
  99   0.0000       1.772236        48.2250 
 100   0.0000       1.888398        51.3859 
 101   0.0000       1.889409        51.4134 
 102   0.0000       1.967680        53.5433 
 103   0.0000       2.011354        54.7317 
 104   0.0000       2.019002        54.9398 
 105   0.0000       2.025975        55.1296 
 106   0.0000       2.041501        55.5521 
 107   0.0000       2.082978        56.6807 
 108   0.0000       2.171056        59.0774 
 109   0.0000       2.200077        59.8671 
 110   0.0000       2.260985        61.5245 
 111   0.0000       2.302912        62.6654 
 112   0.0000       2.350796        63.9684 
 113   0.0000       2.368738        64.4566 
 114   0.0000       2.403874        65.4127 
 115   0.0000       2.430707        66.1429 
 116   0.0000       2.461932        66.9926 
 117   0.0000       2.475312        67.3567 
 118   0.0000       2.503669        68.1283 
 119   0.0000       2.528034        68.7913 
 120   0.0000       2.528966        68.8167 
 121   0.0000       2.587241        70.4024 
 122   0.0000       2.644319        71.9556 
 123   0.0000       2.645059        71.9757 
 124   0.0000       2.676519        72.8318 
 125   0.0000       2.775289        75.5194 
 126   0.0000       2.812501        76.5321 
 127   0.0000       2.835323        77.1531 
 128   0.0000       2.890810        78.6629 
 129   0.0000       3.005498        81.7838 
 130   0.0000       3.096410        84.2576 
 131   0.0000       3.152426        85.7819 
 132   0.0000       3.201758        87.1243 
 133   0.0000       3.296211        89.6945 
 134   0.0000       3.374542        91.8260 
 135   0.0000       3.480875        94.7194 
 136   0.0000       3.564914        97.0062 
 137   0.0000       3.576033        97.3088 
 138   0.0000       3.658059        99.5408 
 139   0.0000       3.682948       100.2181 
 140   0.0000       3.767175       102.5100 
 141   0.0000       3.782456       102.9259 
 142   0.0000       3.900802       106.1462 
 143   0.0000       3.973732       108.1307 
 144   0.0000       3.993179       108.6599 
 145   0.0000       4.026319       109.5617 
 146   0.0000       4.090586       111.3105 
 147   0.0000       4.119529       112.0981 
 148   0.0000       4.158952       113.1708 
 149   0.0000       4.196735       114.1990 
 150   0.0000       4.241430       115.4152 
 151   0.0000       4.294469       116.8585 
 152   0.0000       4.341565       118.1400 
 153   0.0000       4.360446       118.6538 
 154   0.0000       4.381336       119.2222 
 155   0.0000       4.447254       121.0159 
 156   0.0000       4.464563       121.4869 
 157   0.0000       4.467172       121.5579 
 158   0.0000       4.558145       124.0334 
 159   0.0000       4.653391       126.6252 
 160   0.0000       4.691185       127.6536 
 161   0.0000       4.720104       128.4406 
 162   0.0000       4.768620       129.7608 
 163   0.0000       4.814157       130.9999 
 164   0.0000       4.850870       131.9989 
 165   0.0000       4.900316       133.3444 
 166   0.0000       4.955771       134.8534 
 167   0.0000       5.033113       136.9580 
 168   0.0000       5.126710       139.5049 
 169   0.0000       5.180866       140.9785 
 170   0.0000       5.218766       142.0098 
 171   0.0000       5.219648       142.0338 
 172   0.0000       5.273394       143.4963 
 173   0.0000       5.362665       145.9255 
 174   0.0000       5.500032       149.6635 
 175   0.0000       5.504833       149.7941 
 176   0.0000       5.520564       150.2222 
 177   0.0000       5.599802       152.3784 
 178   0.0000       5.639361       153.4548 
 179   0.0000       5.762866       156.8156 
 180   0.0000       5.779593       157.2707 
 181   0.0000       6.027795       164.0246 
 182   0.0000       6.076899       165.3608 
 183   0.0000       6.174494       168.0165 
 184   0.0000       6.221741       169.3022 
 185   0.0000       6.268741       170.5811 
 186   0.0000       6.345171       172.6609 
 187   0.0000       6.512307       177.2089 
 188   0.0000       6.649741       180.9487 
 189   0.0000       6.696707       182.2267 
 190   0.0000       6.810123       185.3129 
 191   0.0000       6.966591       189.5706 
 192   0.0000       7.016453       190.9274 
 193   0.0000       7.070895       192.4088 
 194   0.0000       7.175955       195.2677 
 195   0.0000       7.300275       198.6506 
 196   0.0000       7.308701       198.8799 
 197   0.0000       7.329164       199.4367 
 198   0.0000       7.571087       206.0198 
 199   0.0000       7.601971       206.8601 
 200   0.0000       7.624543       207.4744 
 201   0.0000       7.816563       212.6995 
 202   0.0000       7.865004       214.0176 
 203   0.0000       8.024105       218.3470 
 204   0.0000      15.746089       428.4729 
 205   0.0000      16.810135       457.4270 
 206   0.0000      18.013633       490.1759 
------------------
MOLECULAR ORBITALS
------------------
                      0         1         2         3         4         5   
                 -20.53027 -15.59585 -11.35554  -1.39206  -1.22329  -0.85256
                   2.00000   2.00000   2.00000   2.00000   2.00000   2.00000
                  --------  --------  --------  --------  --------  --------
  0N   1s        -0.000011  0.977011 -0.000111 -0.003616 -0.011091 -0.001459
  0N   2s        -0.000008  0.000527 -0.000846  0.124254  0.446472  0.118375
  0N   3s         0.000088  0.042869 -0.000482  0.030073  0.102854  0.030765
  0N   4s        -0.001048  0.004341  0.003948 -0.001443  0.270893  0.100095
  0N   5s         0.000439  0.003243  0.002623 -0.046252  0.012206  0.043469
  0N   1pz        0.000000 -0.000000  0.000000 -0.000000 -0.000000 -0.000001
  0N   1px        0.000046  0.000004 -0.000289  0.021601  0.014006 -0.128528
  0N   1py        0.000006  0.000066 -0.000127  0.003845  0.011753 -0.106873
  0N   2pz       -0.000000 -0.000000 -0.000000 -0.000000 -0.000000 -0.000001
  0N   2px       -0.000552 -0.001294  0.000128  0.022702  0.019852 -0.160566
  0N   2py       -0.000022 -0.000727  0.000027  0.002720  0.015530 -0.133424
  0N   3pz        0.000000  0.000000 -0.000000 -0.000000 -0.000000 -0.000000
  0N   3px       -0.000577  0.002108 -0.003564 -0.018557 -0.008687 -0.055999
  0N   3py        0.000415  0.001477 -0.000317 -0.006701 -0.004330 -0.035936
  0N   4pz        0.000000  0.000000 -0.000000 -0.000000 -0.000000  0.000000
  0N   4px        0.000348  0.000786  0.000015 -0.013706 -0.002075  0.008638
  0N   4py        0.000196  0.000261  0.000286 -0.002177 -0.001888  0.000358
  0N   1dz2       0.000005 -0.000432  0.000044 -0.002381 -0.006948 -0.000763
  0N   1dxz      -0.000000  0.000000  0.000000  0.000000  0.000000  0.000000
  0N   1dyz      -0.000000  0.000000  0.000000  0.000000  0.000000  0.000000
  0N   1dx2y2    -0.000024 -0.000050 -0.000038  0.001569  0.001134 -0.005614
  0N   1dxy       0.000001 -0.000076 -0.000022  0.000737  0.001633 -0.006533
  0N   2dz2       0.000132  0.000401 -0.000691  0.000364 -0.017497 -0.000635
  0N   2dxz       0.000000 -0.000000 -0.000000 -0.000000  0.000000  0.000000
  0N   2dyz      -0.000000  0.000000 -0.000000 -0.000000  0.000000  0.000000
  0N   2dx2y2    -0.000144 -0.000653  0.000847 -0.001073  0.007029 -0.011582
  0N   2dxy      -0.000357 -0.000446  0.000748 -0.000355  0.006144 -0.016362
  0N   3dz2       0.000355  0.000046 -0.000305  0.004822  0.005459  0.002706
  0N   3dxz       0.000000  0.000000  0.000000 -0.000000  0.000000  0.000000
  0N   3dyz      -0.000000  0.000000 -0.000000 -0.000000  0.000000 -0.000000
  0N   3dx2y2     0.000082 -0.000141 -0.000403 -0.005298 -0.003496  0.001273
  0N   3dxy      -0.000395  0.000250 -0.001346  0.005264 -0.002950 -0.002202
  0N   1f0        0.000000  0.000000 -0.000000  0.000000  0.000000  0.000000
  0N   1f+1       0.000023  0.000154 -0.000100 -0.000701 -0.001213  0.002731
  0N   1f-1      -0.000002  0.000087 -0.000034 -0.000118 -0.000653  0.002200
  0N   1f+2      -0.000000  0.000000 -0.000000  0.000000  0.000000 -0.000000
  0N   1f-2       0.000000  0.000000 -0.000000  0.000000  0.000000 -0.000000
  0N   1f+3       0.000006 -0.000194 -0.000084 -0.001023 -0.001406 -0.000838
  0N   1f-3       0.000004 -0.000643 -0.000134 -0.000493 -0.005355  0.001397
  0N   2f0        0.000000 -0.000000 -0.000000  0.000000 -0.000000  0.000000
  0N   2f+1      -0.000105 -0.000334  0.000025  0.001574 -0.000188  0.000823
  0N   2f-1       0.000026 -0.000181  0.000006  0.000699  0.000293 -0.000715
  0N   2f+2       0.000000 -0.000000 -0.000000  0.000000 -0.000000  0.000000
  0N   2f-2      -0.000000 -0.000000 -0.000000 -0.000000 -0.000000  0.000000
  0N   2f+3      -0.000457  0.000483 -0.001141  0.000551 -0.001879 -0.001413
  0N   2f-3       0.000338  0.001589 -0.000922 -0.000214 -0.006087  0.003391
  1C   1s        -0.000515  0.000310 -0.979548 -0.013531 -0.003121  0.004354
  1C   2s        -0.001173  0.000674 -0.003330  0.280657  0.097485 -0.334470
  1C   3s        -0.000183  0.000461 -0.041676  0.060856  0.020189 -0.073070
  1C   4s         0.000472 -0.004993 -0.004772  0.128764  0.069913 -0.260333
  1C   5s         0.000021 -0.001942 -0.002283  0.027407  0.016142 -0.036339
  1C   1pz        0.000000 -0.000000 -0.000000 -0.000000 -0.000000  0.000000
  1C   1px       -0.000180 -0.000196  0.000629  0.065666 -0.110199  0.066897
  1C   1py        0.000093 -0.000120  0.000314 -0.057602 -0.001965 -0.070721
  1C   2pz        0.000000  0.000000  0.000000 -0.000000 -0.000000  0.000001
  1C   2px       -0.003102 -0.001729 -0.001617  0.049833 -0.100792  0.070689
  1C   2py        0.002298 -0.000278  0.001631 -0.042681 -0.004582 -0.094865
  1C   3pz        0.000000  0.000000  0.000000 -0.000000 -0.000000  0.000000
  1C   3px       -0.000131  0.001789  0.000248 -0.034391  0.000751  0.024096
  1C   3py       -0.000740 -0.001302 -0.002088  0.006441  0.014795 -0.080545
  1C   4pz        0.000000 -0.000000  0.000000  0.000000 -0.000000 -0.000000
  1C   4px       -0.000025  0.000282  0.000178 -0.008298 -0.001261  0.006393
  1C   4py        0.000076  0.000164 -0.000072 -0.004298 -0.001652  0.006115
  1C   1dz2       0.000184 -0.000025  0.001014 -0.013196 -0.003995  0.008303
  1C   1dxz       0.000000 -0.000000  0.000000 -0.000000  0.000000  0.000000
  1C   1dyz      -0.000000 -0.000000  0.000000  0.000000 -0.000000  0.000000
  1C   1dx2y2    -0.000193  0.000031 -0.000248  0.007654  0.003746  0.000983
  1C   1dxy       0.000377  0.000071  0.000302 -0.011291  0.012270 -0.003927
  1C   2dz2       0.000231  0.000258 -0.000207 -0.018092 -0.006255  0.019931
  1C   2dxz       0.000000  0.000000  0.000000 -0.000000  0.000000  0.000000
  1C   2dyz      -0.000000  0.000000 -0.000000 -0.000000 -0.000000  0.000000
  1C   2dx2y2    -0.000217  0.000560 -0.000135 -0.002742  0.005132  0.016459
  1C   2dxy       0.001218  0.001044 -0.000684 -0.003104  0.004958  0.003291
  1C   3dz2      -0.000418 -0.000036  0.000174  0.001509 -0.001422  0.002999
  1C   3dxz       0.000000  0.000000  0.000000 -0.000000  0.000000 -0.000000
  1C   3dyz       0.000000  0.000000  0.000000 -0.000000  0.000000  0.000000
  1C   3dx2y2     0.001001 -0.000108  0.001228 -0.013262 -0.003369  0.014791
  1C   3dxy      -0.001695 -0.000561 -0.001217  0.028130 -0.007045  0.004805
  1C   1f0        0.000000 -0.000000 -0.000000  0.000000  0.000000 -0.000000
  1C   1f+1       0.000101 -0.000073  0.000191 -0.000981  0.002136 -0.002007
  1C   1f-1      -0.000078 -0.000064 -0.000032  0.001248  0.000398  0.000414
  1C   1f+2       0.000000  0.000000 -0.000000  0.000000  0.000000 -0.000000
  1C   1f-2       0.000000  0.000000 -0.000000  0.000000 -0.000000 -0.000000
  1C   1f+3       0.000062 -0.000078 -0.000056  0.001032  0.001975 -0.002127
  1C   1f-3       0.000062 -0.000207 -0.001211  0.010723  0.002589 -0.007136
  1C   2f0       -0.000000  0.000000 -0.000000  0.000000  0.000000 -0.000000
  1C   2f+1       0.000197 -0.000160 -0.000171  0.002816 -0.001293 -0.001815
  1C   2f-1      -0.000184  0.000133  0.000074 -0.001699 -0.001776  0.004780
  1C   2f+2       0.000000  0.000000  0.000000  0.000000  0.000000 -0.000000
  1C   2f-2      -0.000000 -0.000000  0.000000 -0.000000  0.000000 -0.000000
  1C   2f+3      -0.000083  0.000130 -0.000065 -0.000640  0.000601  0.001715
  1C   2f-3      -0.000319  0.000843  0.000898 -0.004971  0.002166 -0.005050
  2O   1s        -0.974996  0.000042  0.000192 -0.009212  0.002483  0.000888
  2O   2s         0.002215  0.000062 -0.000433  0.432712 -0.184765  0.161066
  2O   3s        -0.043687 -0.000034 -0.000268  0.111341 -0.048083  0.044160
  2O   4s        -0.002284  0.000311  0.000557  0.234934 -0.134068  0.162403
  2O   5s        -0.000929 -0.000291 -0.000130  0.031599 -0.022334  0.013635
  2O   1pz       -0.000000 -0.000000 -0.000000  0.000000 -0.000000  0.000000
  2O   1px        0.001725  0.000033  0.000340 -0.064470  0.008413  0.040054
  2O   1py       -0.000969  0.000013 -0.000219  0.036775 -0.016413 -0.042024
  2O   2pz        0.000000  0.000000  0.000000  0.000000 -0.000000  0.000000
  2O   2px       -0.001989 -0.000320 -0.000379 -0.085096  0.016803  0.043019
  2O   2py        0.001093  0.000025  0.000274  0.048420 -0.023992 -0.049873
  2O   3pz       -0.000000 -0.000000 -0.000000  0.000000 -0.000000  0.000000
  2O   3px       -0.000870 -0.000694 -0.001734 -0.004180  0.011606  0.008791
  2O   3py        0.000345  0.000541  0.001102  0.005129 -0.013654 -0.021883
  2O   4pz       -0.000000 -0.000000 -0.000000  0.000000 -0.000000  0.000000
  2O   4px        0.000021  0.000104 -0.000112  0.001045  0.003664 -0.001365
  2O   4py       -0.000005  0.000051 -0.000068  0.001095  0.000935 -0.006035
  2O   1dz2       0.000164 -0.000018 -0.000004 -0.003937  0.001136  0.000715
  2O   1dxz       0.000000 -0.000000 -0.000000 -0.000000  0.000000 -0.000000
  2O   1dyz       0.000000  0.000000  0.000000  0.000000 -0.000000  0.000000
  2O   1dx2y2    -0.000063  0.000017 -0.000011  0.003199 -0.000017 -0.000104
  2O   1dxy       0.000105 -0.000005  0.000025 -0.005596  0.002039  0.001982
  2O   2dz2      -0.000356 -0.000018 -0.000351 -0.009315  0.003962  0.000515
  2O   2dxz      -0.000000 -0.000000  0.000000 -0.000000  0.000000 -0.000000
  2O   2dyz       0.000000 -0.000000 -0.000000  0.000000 -0.000000  0.000000
  2O   2dx2y2     0.000417  0.000063  0.000242  0.007996 -0.001915  0.002262
  2O   2dxy      -0.000697 -0.000070 -0.000605 -0.014205  0.007882  0.002673
  2O   3dz2      -0.000204 -0.000174 -0.000601  0.006157  0.001507 -0.001499
  2O   3dxz       0.000000  0.000000  0.000000  0.000000 -0.000000 -0.000000
  2O   3dyz      -0.000000 -0.000000 -0.000000 -0.000000 -0.000000  0.000000
  2O   3dx2y2     0.000159 -0.000012  0.000261 -0.005064 -0.000695  0.002062
  2O   3dxy      -0.000213 -0.000137 -0.000645  0.005929  0.001603  0.000216
  2O   1f0       -0.000000 -0.000000  0.000000 -0.000000  0.000000 -0.000000
  2O   1f+1       0.000037  0.000008 -0.000062  0.002061 -0.000459 -0.000157
  2O   1f-1      -0.000023  0.000003  0.000036 -0.001234  0.000440  0.000280
  2O   1f+2       0.000000  0.000000 -0.000000  0.000000 -0.000000  0.000000
  2O   1f-2      -0.000000 -0.000000 -0.000000 -0.000000  0.000000 -0.000000
  2O   1f+3      -0.000003  0.000017 -0.000010  0.000089  0.000830  0.000589
  2O   1f-3      -0.000012 -0.000017  0.000058 -0.003091  0.001152  0.000298
  2O   2f0       -0.000000  0.000000  0.000000 -0.000000  0.000000  0.000000
  2O   2f+1       0.000109 -0.000073  0.000217  0.000915 -0.000777 -0.000106
  2O   2f-1      -0.000074  0.000014 -0.000153 -0.000214  0.000668 -0.000037
  2O   2f+2       0.000000  0.000000  0.000000  0.000000  0.000000  0.000000
  2O   2f-2      -0.000000  0.000000  0.000000 -0.000000  0.000000 -0.000000
  2O   2f+3      -0.000016 -0.000065 -0.000046 -0.000462  0.000111  0.000478
  2O   2f-3      -0.000204 -0.000009 -0.000394 -0.002458  0.002154 -0.000796
  3H   1s         0.000025  0.000507 -0.000185  0.013781  0.074512  0.052534
  3H   2s        -0.000179  0.000760 -0.002259  0.014994  0.058300  0.065019
  3H   3s        -0.002462 -0.001306 -0.003998  0.026200 -0.015874 -0.010787
  3H   4s        -0.000027  0.000086 -0.000170 -0.005078 -0.002102  0.002435
  3H   1pz        0.000000 -0.000000 -0.000000  0.000000  0.000000  0.000000
  3H   1px       -0.000023 -0.000286 -0.000047  0.001729  0.008062  0.003099
  3H   1py        0.000010  0.000219  0.000021 -0.001041 -0.005072 -0.006563
  3H   2pz        0.000000  0.000000 -0.000000  0.000000 -0.000000  0.000000
  3H   2px       -0.000527 -0.000790  0.000181  0.001606  0.005057 -0.005425
  3H   2py       -0.000344 -0.000009 -0.000087 -0.001740  0.002340 -0.013562
  3H   3pz       -0.000000 -0.000000 -0.000000  0.000000 -0.000000 -0.000000
  3H   3px       -0.000986 -0.000709 -0.000809  0.006105 -0.008598 -0.011845
  3H   3py       -0.000071 -0.000185  0.000140 -0.001008  0.005533 -0.000316
  3H   1dz2       0.000014  0.000334 -0.000094 -0.000139 -0.000948 -0.000631
  3H   1dxz       0.000000 -0.000000 -0.000000  0.000000  0.000000  0.000000
  3H   1dyz      -0.000000  0.000000  0.000000 -0.000000 -0.000000 -0.000000
  3H   1dx2y2    -0.000064 -0.000194  0.000075 -0.000356  0.001210 -0.001452
  3H   1dxy       0.000018  0.000432  0.000037 -0.000415 -0.000825 -0.002533
  3H   2dz2      -0.000015  0.000230 -0.000367  0.000408  0.000404  0.001493
  3H   2dxz      -0.000000 -0.000000 -0.000000  0.000000 -0.000000 -0.000000
  3H   2dyz      -0.000000 -0.000000 -0.000000  0.000000  0.000000  0.000000
  3H   2dx2y2    -0.000196 -0.000179  0.000155  0.000092  0.000950 -0.005761
  3H   2dxy      -0.000032 -0.000090  0.000072 -0.001185  0.004118  0.000120
  4H   1s         0.000038  0.000494 -0.000141  0.016710  0.069796  0.094277
  4H   2s         0.000483  0.000397 -0.001604  0.017094  0.052834  0.133001
  4H   3s         0.001731 -0.001278  0.000851 -0.031035 -0.017492  0.004047
  4H   4s         0.000129  0.000085  0.000122 -0.002215 -0.003011  0.000491
  4H   1pz        0.000000 -0.000000 -0.000000  0.000000  0.000000  0.000000
  4H   1px        0.000019 -0.000015  0.000052  0.000759  0.000980 -0.000896
  4H   1py        0.000012 -0.000379 -0.000028  0.002363  0.008929  0.011324
  4H   2pz        0.000000  0.000000 -0.000000  0.000000 -0.000000  0.000000
  4H   2px        0.000197 -0.000510  0.001222  0.002175  0.003295 -0.006143
  4H   2py       -0.000061 -0.000864 -0.000094  0.001792  0.003506  0.011162
  4H   3pz        0.000000 -0.000000  0.000000 -0.000000 -0.000000 -0.000000
  4H   3px        0.000060 -0.000407  0.000396 -0.003179 -0.001802 -0.004573
  4H   3py        0.000371 -0.000413  0.000367 -0.013149 -0.009368 -0.008705
  4H   1dz2       0.000035  0.000342 -0.000047 -0.000261 -0.000780 -0.001659
  4H   1dxz       0.000000 -0.000000  0.000000  0.000000 -0.000000  0.000000
  4H   1dyz      -0.000000 -0.000000 -0.000000  0.000000  0.000000  0.000000
  4H   1dx2y2    -0.000017  0.000477  0.000044 -0.000106 -0.001131 -0.003138
  4H   1dxy       0.000001 -0.000122  0.000181  0.000445  0.000684 -0.000320
  4H   2dz2       0.000051  0.000273 -0.000237  0.000787  0.000097  0.002171
  4H   2dxz       0.000000 -0.000000  0.000000  0.000000 -0.000000 -0.000000
  4H   2dyz       0.000000 -0.000000  0.000000  0.000000 -0.000000 -0.000000
  4H   2dx2y2     0.000057  0.000015  0.000227  0.000371  0.002760  0.002740
  4H   2dxy       0.000027 -0.000238  0.000537 -0.001161  0.001402 -0.003279
  5H   1s        -0.000027  0.000059 -0.000198  0.017360  0.013232 -0.101464
  5H   2s        -0.001022  0.000261 -0.000695 -0.014566  0.007398 -0.091191
  5H   3s         0.001840  0.002474  0.005788 -0.056979 -0.030139  0.085961
  5H   4s        -0.000072  0.000005  0.000399  0.002054 -0.000301 -0.000183
  5H   1pz       -0.000000  0.000000  0.000000 -0.000000  0.000000 -0.000000
  5H   1px       -0.000008 -0.000001  0.000056  0.000247 -0.001576  0.001236
  5H   1py        0.000083 -0.000056 -0.000321 -0.000628 -0.001570  0.009935
  5H   2pz       -0.000000  0.000000 -0.000000 -0.000000 -0.000000  0.000000
  5H   2px       -0.000066 -0.000161  0.000228  0.000176 -0.001132  0.000494
  5H   2py        0.000627 -0.000069 -0.000141  0.016896 -0.000109 -0.002510
  5H   3pz       -0.000000  0.000000  0.000000 -0.000000 -0.000000  0.000000
  5H   3px        0.000873  0.000081  0.000790 -0.014804  0.005111 -0.005557
  5H   3py       -0.000386 -0.000716 -0.001327  0.018069  0.007669 -0.029909
  5H   1dz2       0.000019  0.000024 -0.000108  0.000409 -0.000335  0.001324
  5H   1dxz      -0.000000 -0.000000  0.000000  0.000000 -0.000000  0.000000
  5H   1dyz       0.000000 -0.000000 -0.000000  0.000000 -0.000000  0.000000
  5H   1dx2y2     0.000067 -0.000006 -0.000292  0.001506 -0.000168  0.001749
  5H   1dxy      -0.000017 -0.000049 -0.000090 -0.000190  0.001418 -0.001068
  5H   2dz2       0.000147 -0.000032 -0.000207  0.004291  0.000714 -0.001504
  5H   2dxz       0.000000 -0.000000  0.000000 -0.000000 -0.000000 -0.000000
  5H   2dyz       0.000000 -0.000000  0.000000  0.000000  0.000000 -0.000000
  5H   2dx2y2     0.000026  0.000157  0.000027  0.002924 -0.000105 -0.000861
  5H   2dxy       0.000043 -0.000067 -0.000097  0.001685 -0.002388  0.000628
                      6         7         8         9        10        11   
                  -0.75438  -0.67701  -0.61189  -0.57566  -0.43769  -0.42402
                   2.00000   2.00000   2.00000   2.00000   2.00000   2.00000
                  --------  --------  --------  --------  --------  --------
  0N   1s         0.000200  0.000283 -0.000008  0.000000 -0.001179 -0.000000
  0N   2s        -0.008927  0.018519 -0.006100 -0.000001 -0.087087 -0.000000
  0N   3s        -0.003802  0.001832  0.000503 -0.000000 -0.020628 -0.000000
  0N   4s        -0.028384  0.024780 -0.048627 -0.000002 -0.084240  0.000001
  0N   5s        -0.020542 -0.013960 -0.014174 -0.000001  0.037327  0.000003
  0N   1pz        0.000000  0.000001  0.000001 -0.173938 -0.000003  0.251074
  0N   1px        0.181083  0.072954 -0.061050  0.000000 -0.088138 -0.000002
  0N   1py       -0.132623  0.168460  0.093226  0.000001 -0.036872 -0.000001
  0N   2pz        0.000001  0.000002  0.000002 -0.231104 -0.000005  0.333840
  0N   2px        0.221735  0.096927 -0.082357  0.000000 -0.116572 -0.000003
  0N   2py       -0.159405  0.206959  0.109192  0.000002 -0.049100 -0.000001
  0N   3pz        0.000000  0.000001  0.000001 -0.144467 -0.000003  0.256624
  0N   3px        0.085433  0.044220 -0.038885  0.000000 -0.071098 -0.000003
  0N   3py       -0.067483  0.082784  0.061591  0.000002 -0.033227 -0.000001
  0N   4pz       -0.000000 -0.000000  0.000000 -0.007781 -0.000000  0.034379
  0N   4px       -0.008112 -0.006422  0.003516 -0.000000  0.005533  0.000000
  0N   4py       -0.004562 -0.008191 -0.004549 -0.000000  0.000184  0.000000
  0N   1dz2      -0.000225 -0.000598  0.000110  0.000000 -0.000345 -0.000000
  0N   1dxz      -0.000000  0.000000  0.000000 -0.004519  0.000000  0.000186
  0N   1dyz       0.000000 -0.000000 -0.000000 -0.002009 -0.000000  0.000775
  0N   1dx2y2    -0.000836  0.008787  0.005708  0.000000 -0.003004 -0.000000
  0N   1dxy       0.008168  0.000735 -0.006338 -0.000000 -0.002214 -0.000000
  0N   2dz2      -0.001852 -0.004142  0.004435  0.000000  0.000989 -0.000000
  0N   2dxz      -0.000000  0.000000  0.000000 -0.013746 -0.000000  0.003411
  0N   2dyz       0.000000 -0.000000 -0.000000 -0.006441 -0.000000  0.003037
  0N   2dx2y2     0.011626  0.020158  0.005196  0.000000 -0.002623 -0.000000
  0N   2dxy       0.006646  0.005319 -0.016546 -0.000000 -0.012488 -0.000000
  0N   3dz2      -0.005727 -0.008237  0.005999  0.000000  0.003248 -0.000000
  0N   3dxz       0.000000  0.000000  0.000000 -0.005624  0.000000 -0.004756
  0N   3dyz      -0.000000  0.000000 -0.000000 -0.002720 -0.000000  0.001973
  0N   3dx2y2     0.024578 -0.006048  0.000008  0.000000  0.004479  0.000000
  0N   3dxy      -0.013424  0.003136  0.002885  0.000000 -0.016270 -0.000001
  0N   1f0       -0.000000 -0.000000 -0.000000  0.004639  0.000000 -0.004530
  0N   1f+1      -0.003406 -0.002361  0.000809 -0.000000  0.001270  0.000000
  0N   1f-1       0.001265 -0.002408 -0.000532 -0.000000  0.000728  0.000000
  0N   1f+2       0.000000  0.000000  0.000000 -0.001919 -0.000000  0.000380
  0N   1f-2       0.000000  0.000000  0.000000 -0.001611 -0.000000  0.000912
  0N   1f+3      -0.002551 -0.001182 -0.001679 -0.000000  0.000086  0.000000
  0N   1f-3      -0.000660 -0.002056  0.001427  0.000000  0.001290  0.000000
  0N   2f0        0.000000  0.000000  0.000000 -0.001457  0.000000 -0.000890
  0N   2f+1      -0.001748 -0.000832  0.000364  0.000000  0.001104  0.000000
  0N   2f-1       0.000237 -0.001884 -0.002125 -0.000000 -0.000288  0.000000
  0N   2f+2       0.000000 -0.000000  0.000000 -0.001809  0.000000 -0.000466
  0N   2f-2      -0.000000 -0.000000  0.000000 -0.000520 -0.000000  0.002575
  0N   2f+3      -0.011483 -0.001761 -0.003362 -0.000000 -0.007438 -0.000000
  0N   2f-3      -0.000343 -0.005137  0.005140  0.000000  0.005862  0.000000
  1C   1s        -0.001217 -0.000300 -0.000608 -0.000000  0.000424 -0.000000
  1C   2s         0.041409 -0.111617  0.060877 -0.000001  0.024916 -0.000000
  1C   3s         0.008371 -0.026308  0.015872 -0.000000  0.004380 -0.000000
  1C   4s        -0.016626 -0.102970 -0.075281 -0.000004  0.126197  0.000002
  1C   5s         0.022470  0.009104  0.015186  0.000001  0.001474 -0.000001
  1C   1pz        0.000000  0.000001  0.000002 -0.174702  0.000001 -0.035248
  1C   1px       -0.049858 -0.149908  0.110000 -0.000000  0.012959  0.000000
  1C   1py       -0.129296 -0.089791 -0.153616 -0.000002  0.063027  0.000001
  1C   2pz        0.000001  0.000002  0.000002 -0.232702  0.000001 -0.043010
  1C   2px       -0.050112 -0.160527  0.108429 -0.000000  0.005238  0.000000
  1C   2py       -0.157553 -0.126311 -0.186024 -0.000002  0.089227  0.000002
  1C   3pz        0.000000  0.000000  0.000001 -0.093300  0.000000 -0.026610
  1C   3px       -0.043769 -0.020786  0.023099  0.000000  0.000048 -0.000000
  1C   3py       -0.035561 -0.063793 -0.131179 -0.000003  0.114574  0.000002
  1C   4pz       -0.000000 -0.000000 -0.000000 -0.000095 -0.000000 -0.001599
  1C   4px        0.001336 -0.001703  0.001356  0.000000  0.017428  0.000000
  1C   4py        0.000645  0.005518  0.004556  0.000000  0.022098  0.000000
  1C   1dz2      -0.002139  0.001302 -0.003265  0.000000  0.001132  0.000000
  1C   1dxz      -0.000000  0.000000  0.000000 -0.004028  0.000000 -0.026371
  1C   1dyz       0.000000  0.000000  0.000000  0.012047 -0.000000  0.003635
  1C   1dx2y2    -0.000420  0.007740  0.009193 -0.000000 -0.033128 -0.000001
  1C   1dxy       0.006923  0.005440 -0.015136 -0.000000 -0.015078 -0.000000
  1C   2dz2      -0.001570  0.005856 -0.001930  0.000000 -0.001791  0.000000
  1C   2dxz      -0.000000 -0.000000 -0.000000 -0.001060  0.000001 -0.057169
  1C   2dyz       0.000000  0.000000  0.000000  0.017030 -0.000000  0.003887
  1C   2dx2y2     0.019031  0.027828  0.026645  0.000000 -0.053141 -0.000001
  1C   2dxy       0.004747 -0.000656 -0.007288 -0.000000 -0.031862 -0.000001
  1C   3dz2       0.001983  0.006306 -0.000228  0.000000 -0.006519 -0.000000
  1C   3dxz      -0.000000 -0.000000 -0.000000  0.001740  0.000000 -0.015320
  1C   3dyz       0.000000 -0.000000  0.000000 -0.012783 -0.000000  0.002758
  1C   3dx2y2     0.033482  0.015049  0.028913  0.000001 -0.012794  0.000000
  1C   3dxy      -0.002932  0.017876 -0.004926 -0.000001 -0.029569 -0.000001
  1C   1f0       -0.000000 -0.000000 -0.000000  0.007006 -0.000000  0.000311
  1C   1f+1       0.000989  0.003381 -0.002001  0.000000  0.000294  0.000000
  1C   1f-1       0.002632  0.001741  0.002477  0.000000 -0.000547 -0.000000
  1C   1f+2       0.000000  0.000000  0.000000 -0.004684  0.000000  0.001076
  1C   1f-2      -0.000000 -0.000000  0.000000  0.001570 -0.000000  0.006995
  1C   1f+3       0.000983  0.006784  0.004089  0.000000  0.008381  0.000000
  1C   1f-3       0.004392 -0.001876  0.004922  0.000000 -0.003229 -0.000000
  1C   2f0       -0.000000 -0.000000 -0.000000  0.004073  0.000000 -0.000319
  1C   2f+1       0.001701 -0.001846  0.000881  0.000000  0.000732  0.000000
  1C   2f-1       0.000376  0.002137  0.002953  0.000000  0.000000 -0.000000
  1C   2f+2      -0.000000 -0.000000  0.000000 -0.005064  0.000000  0.002483
  1C   2f-2      -0.000000  0.000000 -0.000000  0.003049 -0.000000  0.010322
  1C   2f+3       0.010392  0.006711  0.007503  0.000000  0.017229  0.000000
  1C   2f-3      -0.006074 -0.005554 -0.010451 -0.000000  0.001638  0.000000
  2O   1s        -0.001130  0.001890 -0.003200 -0.000000 -0.000121 -0.000000
  2O   2s        -0.070642  0.145031 -0.147690 -0.000001 -0.005477  0.000000
  2O   3s        -0.019740  0.042150 -0.043798 -0.000000 -0.001904  0.000000
  2O   4s        -0.079014  0.161054 -0.211560 -0.000001 -0.002255 -0.000000
  2O   5s        -0.026728  0.023806 -0.088391 -0.000002 -0.000165 -0.000001
  2O   1pz        0.000000  0.000000  0.000002 -0.200115  0.000005 -0.218665
  2O   1px       -0.080374  0.070643 -0.242645 -0.000003 -0.153721 -0.000003
  2O   1py       -0.048464 -0.157925  0.072058 -0.000001 -0.280359 -0.000004
  2O   2pz        0.000000  0.000001  0.000003 -0.257189  0.000006 -0.281210
  2O   2px       -0.096014  0.086896 -0.298250 -0.000004 -0.195775 -0.000004
  2O   2py       -0.064171 -0.196306  0.086216 -0.000001 -0.352230 -0.000005
  2O   3pz        0.000000  0.000001  0.000002 -0.179192  0.000004 -0.215360
  2O   3px       -0.046072  0.047511 -0.178266 -0.000003 -0.159437 -0.000003
  2O   3py       -0.044424 -0.126533  0.045755 -0.000001 -0.275749 -0.000004
  2O   4pz        0.000000  0.000000  0.000000 -0.016739  0.000001 -0.034696
  2O   4px       -0.004862  0.001418 -0.004089 -0.000000 -0.031723 -0.000001
  2O   4py       -0.010486 -0.014841 -0.009448 -0.000000 -0.047046 -0.000001
  2O   1dz2      -0.000880  0.002955 -0.004956 -0.000000  0.000192 -0.000000
  2O   1dxz      -0.000000 -0.000000 -0.000000  0.007224 -0.000000  0.004857
  2O   1dyz       0.000000 -0.000000  0.000000 -0.004213  0.000000 -0.003177
  2O   1dx2y2     0.004219  0.001381  0.006488  0.000000  0.004238  0.000000
  2O   1dxy       0.000517  0.006705 -0.006959 -0.000000  0.003030  0.000000
  2O   2dz2      -0.002275  0.006937 -0.010695 -0.000000 -0.000279 -0.000000
  2O   2dxz      -0.000000 -0.000000 -0.000000  0.020428 -0.000000  0.014464
  2O   2dyz       0.000000 -0.000000  0.000000 -0.011760  0.000000 -0.010104
  2O   2dx2y2     0.011685  0.002873  0.016325  0.000000  0.012030  0.000000
  2O   2dxy       0.003911  0.016801 -0.016570 -0.000000  0.007165  0.000000
  2O   3dz2       0.002086  0.003932 -0.003608 -0.000000 -0.001907 -0.000000
  2O   3dxz       0.000000 -0.000000 -0.000000  0.009648 -0.000000  0.006142
  2O   3dyz       0.000000  0.000000  0.000000 -0.003946  0.000000 -0.003349
  2O   3dx2y2     0.000210  0.001313  0.006479  0.000000  0.007326  0.000000
  2O   3dxy       0.001934  0.007960 -0.006781 -0.000000  0.006315  0.000000
  2O   1f0       -0.000000 -0.000000 -0.000000  0.002476 -0.000000  0.001364
  2O   1f+1       0.000686 -0.000826  0.001821  0.000000 -0.000195  0.000000
  2O   1f-1       0.000180  0.000952 -0.000857 -0.000000 -0.000128 -0.000000
  2O   1f+2       0.000000  0.000000  0.000000 -0.001993  0.000000 -0.001093
  2O   1f-2      -0.000000  0.000000 -0.000000  0.003517 -0.000000  0.002825
  2O   1f+3       0.002675  0.002801  0.001282  0.000000  0.002952  0.000000
  2O   1f-3      -0.000720  0.002002 -0.003672 -0.000000 -0.000126 -0.000000
  2O   2f0       -0.000000  0.000000 -0.000000  0.001299 -0.000000  0.001908
  2O   2f+1       0.001175 -0.001354  0.002101  0.000000  0.000351  0.000000
  2O   2f-1      -0.000232  0.000784 -0.001509 -0.000000  0.000878 -0.000000
  2O   2f+2       0.000000 -0.000000  0.000000 -0.001942  0.000000 -0.000508
  2O   2f-2      -0.000000 -0.000000 -0.000000  0.002179 -0.000000  0.001910
  2O   2f+3       0.002540  0.001414  0.000501  0.000000  0.003132  0.000000
  2O   2f-3      -0.000112  0.002837 -0.004898 -0.000000  0.000200 -0.000000
  3H   1s        -0.143512  0.028168  0.075029  0.000001  0.021190  0.000000
  3H   2s        -0.233756  0.040292  0.126704  0.000002  0.031600 -0.000001
  3H   3s        -0.089335  0.034250  0.024054 -0.000000 -0.030517 -0.000003
  3H   4s         0.001403 -0.000145  0.002235  0.000000  0.006509  0.000000
  3H   1pz       -0.000000  0.000000  0.000000 -0.004439 -0.000000  0.007662
  3H   1px       -0.013657  0.004455  0.006437  0.000000 -0.000149 -0.000000
  3H   1py        0.008758  0.001459 -0.004092 -0.000000 -0.002117 -0.000000
  3H   2pz       -0.000000  0.000000  0.000000 -0.018664 -0.000000  0.027273
  3H   2px       -0.024126  0.013285  0.002867  0.000000 -0.010166 -0.000000
  3H   2py        0.008744  0.007739 -0.010819 -0.000000 -0.008340 -0.000000
  3H   3pz       -0.000000  0.000000  0.000000 -0.008699 -0.000000  0.019997
  3H   3px       -0.004245  0.009980 -0.014688 -0.000000 -0.022070 -0.000001
  3H   3py        0.004469  0.002060 -0.000451  0.000000  0.002847  0.000000
  3H   1dz2       0.003016 -0.000989 -0.001344 -0.000000 -0.000429  0.000000
  3H   1dxz      -0.000000  0.000000  0.000000 -0.002090 -0.000000  0.002791
  3H   1dyz       0.000000 -0.000000 -0.000000  0.000931  0.000000 -0.002057
  3H   1dx2y2    -0.002486  0.002296 -0.000198  0.000000 -0.001055 -0.000000
  3H   1dxy       0.004761 -0.000323 -0.002970 -0.000000 -0.000673  0.000000
  3H   2dz2      -0.002224  0.000013  0.002423 -0.000000  0.000492  0.000000
  3H   2dxz      -0.000000  0.000000  0.000000 -0.004419 -0.000000  0.007521
  3H   2dyz       0.000000 -0.000000 -0.000000  0.003220  0.000000 -0.003239
  3H   2dx2y2    -0.002172  0.005532 -0.003674  0.000000 -0.005891 -0.000000
  3H   2dxy      -0.003423  0.001840 -0.000736 -0.000000  0.001340  0.000000
  4H   1s         0.066209 -0.111802 -0.064330 -0.000001  0.021834 -0.000000
  4H   2s         0.114163 -0.182145 -0.090042 -0.000000  0.049273 -0.000000
  4H   3s         0.062705 -0.059360 -0.025059  0.000001  0.054029  0.000001
  4H   4s        -0.003503 -0.001669 -0.000347  0.000000  0.005240  0.000000
  4H   1pz        0.000000 -0.000000 -0.000000 -0.004554 -0.000000  0.007183
  4H   1px        0.005272  0.000216 -0.001412  0.000000 -0.001174 -0.000000
  4H   1py        0.007129 -0.012208 -0.006097 -0.000000  0.001495 -0.000000
  4H   2pz        0.000000 -0.000000  0.000000 -0.019307 -0.000000  0.023384
  4H   2px        0.020758  0.007181 -0.002268  0.000000  0.000171 -0.000000
  4H   2py        0.015199 -0.014059 -0.008895  0.000000  0.001105 -0.000000
  4H   3pz        0.000000  0.000000  0.000000 -0.011957 -0.000000  0.015880
  4H   3px        0.009432  0.008314  0.001059  0.000000 -0.001598 -0.000000
  4H   3py        0.009033  0.001743  0.000612  0.000000  0.009103  0.000000
  4H   1dz2      -0.001776  0.002132  0.001549 -0.000000 -0.000099  0.000000
  4H   1dxz       0.000000 -0.000000  0.000000 -0.000421 -0.000000  0.000416
  4H   1dyz       0.000000 -0.000000 -0.000000 -0.002384 -0.000000  0.003030
  4H   1dx2y2    -0.002022  0.004257  0.002369  0.000000 -0.000539  0.000000
  4H   1dxy       0.003058  0.000277 -0.000641  0.000000 -0.000703 -0.000000
  4H   2dz2       0.000799 -0.004159  0.000051 -0.000000  0.000016  0.000000
  4H   2dxz      -0.000000 -0.000000  0.000000 -0.000638 -0.000000  0.000875
  4H   2dyz       0.000000  0.000000  0.000000 -0.006538 -0.000000  0.006078
  4H   2dx2y2    -0.000070 -0.001686 -0.000155 -0.000000  0.001976  0.000000
  4H   2dxy       0.008096  0.003939 -0.002330  0.000000 -0.001675 -0.000000
  5H   1s        -0.060877 -0.080520 -0.085463 -0.000001  0.097829  0.000002
  5H   2s        -0.064472 -0.081948 -0.103022 -0.000000  0.146852  0.000002
  5H   3s         0.022274  0.006477  0.077593  0.000003  0.014111  0.000001
  5H   4s        -0.002005 -0.002345 -0.004232 -0.000000 -0.010964 -0.000000
  5H   1pz       -0.000000 -0.000000 -0.000000 -0.003074  0.000000 -0.000359
  5H   1px       -0.000415 -0.003099  0.000575 -0.000000 -0.000942  0.000000
  5H   1py        0.006871  0.006872  0.008513  0.000000 -0.006249 -0.000000
  5H   2pz       -0.000000  0.000000  0.000000 -0.008789  0.000000  0.000101
  5H   2px       -0.003634 -0.005679 -0.002183  0.000000 -0.009657 -0.000000
  5H   2py       -0.000357 -0.005287  0.004650 -0.000000 -0.003670  0.000000
  5H   3pz        0.000000  0.000000  0.000000  0.010002 -0.000000 -0.000215
  5H   3px        0.004483 -0.008216  0.001002  0.000000  0.002584  0.000001
  5H   3py       -0.003417 -0.007133 -0.028415 -0.000001  0.020549  0.000000
  5H   1dz2       0.001084  0.000497  0.000886 -0.000000  0.000076  0.000000
  5H   1dxz      -0.000000 -0.000000 -0.000000 -0.000219 -0.000000 -0.000622
  5H   1dyz       0.000000  0.000000  0.000000  0.001411 -0.000000  0.000008
  5H   1dx2y2     0.001855  0.001177  0.002639  0.000000 -0.000990 -0.000000
  5H   1dxy       0.000704  0.003023 -0.000094  0.000000  0.001274 -0.000000
  5H   2dz2       0.001190 -0.000914  0.002460  0.000000 -0.002517 -0.000000
  5H   2dxz      -0.000000 -0.000000  0.000000 -0.001089  0.000000 -0.002179
  5H   2dyz      -0.000000 -0.000000 -0.000000 -0.000346 -0.000000 -0.000422
  5H   2dx2y2    -0.002452 -0.003498 -0.002069 -0.000000 -0.000213  0.000000
  5H   2dxy       0.000163 -0.001285  0.003426  0.000000 -0.000281 -0.000000
                     12        13        14        15        16        17   
                   0.02103   0.03671   0.04888   0.08045   0.09856   0.10623
                   0.00000   0.00000   0.00000   0.00000   0.00000   0.00000
                  --------  --------  --------  --------  --------  --------
  0N   1s        -0.002560  0.002423 -0.000131 -0.000000 -0.004123 -0.000592
  0N   2s        -0.053173  0.027069  0.000773 -0.000000  0.023105  0.042925
  0N   3s        -0.014649  0.008103  0.003054 -0.000000 -0.007706  0.000840
  0N   4s         0.075201 -0.132331 -0.334528 -0.000014  2.145164  1.792855
  0N   5s         2.193539 -2.108320 -0.967256 -0.000021 10.985844 10.110443
  0N   1pz        0.000000 -0.000000  0.000000 -0.044575  0.000000  0.000000
  0N   1px        0.027640  0.000876  0.007701  0.000000 -0.015501 -0.003557
  0N   1py        0.001091 -0.017447 -0.020489  0.000000 -0.005705  0.002928
  0N   2pz        0.000000 -0.000000  0.000000 -0.063157 -0.000000  0.000000
  0N   2px        0.048734  0.018323  0.006065  0.000000 -0.051518 -0.005446
  0N   2py       -0.007747 -0.041195 -0.063495  0.000000 -0.038187 -0.001242
  0N   3pz        0.000000 -0.000002  0.000001 -0.098835 -0.000004 -0.000008
  0N   3px        0.551000  0.028397  0.261809 -0.000001 -0.022829  0.210457
  0N   3py        0.096773 -0.179631 -0.771950 -0.000004  0.301282 -0.593894
  0N   4pz        0.000004 -0.000009  0.000004 -0.842722  0.000003 -0.000001
  0N   4px        1.629671 -0.904842  0.848208 -0.000012  1.836756  1.935313
  0N   4py        0.314792 -0.782915 -1.786801 -0.000008  1.465743 -0.649307
  0N   1dz2      -0.000139  0.000144 -0.000514 -0.000000  0.001206 -0.000271
  0N   1dxz       0.000000 -0.000000  0.000000 -0.001417  0.000000 -0.000000
  0N   1dyz       0.000000 -0.000000  0.000000  0.000166 -0.000000 -0.000000
  0N   1dx2y2     0.000883 -0.000595 -0.000543 -0.000000 -0.000193  0.001139
  0N   1dxy       0.000342 -0.000907  0.000841 -0.000000  0.000060  0.000683
  0N   2dz2       0.003511  0.004591  0.010030  0.000001 -0.067399 -0.053207
  0N   2dxz      -0.000000  0.000000 -0.000000  0.014514  0.000000  0.000001
  0N   2dyz       0.000000  0.000000  0.000000  0.005971  0.000000  0.000000
  0N   2dx2y2    -0.007326  0.006014 -0.021923  0.000000 -0.000740 -0.019098
  0N   2dxy       0.003268  0.007427  0.010040  0.000000 -0.030731  0.003478
  0N   3dz2      -0.026499 -0.007133  0.066824  0.000002 -0.186348 -0.287241
  0N   3dxz      -0.000001  0.000000 -0.000001  0.104137  0.000002 -0.000000
  0N   3dyz       0.000000  0.000000  0.000002  0.080474 -0.000002  0.000004
  0N   3dx2y2    -0.049253  0.023260 -0.160777  0.000004  0.131231 -0.199561
  0N   3dxy       0.026941  0.176958  0.104365 -0.000000 -0.303762  0.063559
  0N   1f0       -0.000000 -0.000000  0.000000  0.001171  0.000000 -0.000000
  0N   1f+1      -0.000306 -0.000829  0.000309  0.000000  0.000126 -0.000620
  0N   1f-1       0.000591  0.000555  0.000521 -0.000000  0.001390 -0.000980
  0N   1f+2       0.000000 -0.000000  0.000000  0.000575  0.000000  0.000000
  0N   1f-2      -0.000000 -0.000000 -0.000000 -0.000950  0.000000  0.000000
  0N   1f+3      -0.000999 -0.000601  0.000190  0.000000 -0.001145 -0.001261
  0N   1f-3      -0.001055  0.001256  0.000340  0.000000 -0.006009 -0.002568
  0N   2f0        0.000000  0.000000 -0.000000 -0.003386  0.000000  0.000001
  0N   2f+1      -0.010489  0.005715 -0.015451 -0.000000  0.002444  0.004488
  0N   2f-1      -0.003655  0.002154  0.016821  0.000000 -0.017783  0.022451
  0N   2f+2       0.000000  0.000000 -0.000000 -0.004149  0.000000  0.000000
  0N   2f-2       0.000000  0.000000 -0.000000  0.017345  0.000000  0.000000
  0N   2f+3       0.011462  0.005575  0.003192  0.000000 -0.020816 -0.007185
  0N   2f-3       0.005340 -0.004231  0.013120  0.000000 -0.019297 -0.042768
  1C   1s        -0.000675  0.000884 -0.000720 -0.000000 -0.001766  0.001438
  1C   2s        -0.010096 -0.031440  0.010313  0.000000  0.017178 -0.007261
  1C   3s         0.007777  0.003228 -0.010072 -0.000000  0.002221  0.035769
  1C   4s        -1.702108 -1.779332  1.614621  0.000017 -1.048784 -3.004077
  1C   5s        -5.257344 -0.294861  4.422069  0.000029 -7.471544-11.235785
  1C   1pz        0.000000 -0.000000 -0.000000 -0.003240 -0.000000 -0.000000
  1C   1px       -0.007994  0.006868 -0.005121 -0.000000  0.000058 -0.005794
  1C   1py       -0.022495 -0.019830  0.012186  0.000000  0.008788 -0.014101
  1C   2pz        0.000001  0.000000 -0.000000  0.013190  0.000000  0.000001
  1C   2px       -0.005890 -0.011317  0.037668 -0.000000  0.136918 -0.024611
  1C   2py       -0.036307 -0.087275 -0.014026  0.000000  0.026382  0.018413
  1C   3pz        0.000005  0.000011 -0.000005  0.068840  0.000003 -0.000002
  1C   3px        0.293058 -0.267867  0.307288 -0.000003  1.472641 -0.175224
  1C   3py       -0.123281 -1.190166  0.132421  0.000006 -0.170749  1.384438
  1C   4pz        0.000002  0.000011 -0.000011  2.306964 -0.000001  0.000003
  1C   4px        0.939686 -1.237494  0.194856 -0.000004  5.427253  2.532471
  1C   4py        0.546992 -1.801847  1.034291 -0.000004  0.739592  4.922839
  1C   1dz2      -0.000806  0.000156 -0.000418  0.000000 -0.002083 -0.006274
  1C   1dxz      -0.000000 -0.000000  0.000000 -0.001309  0.000000  0.000000
  1C   1dyz       0.000000  0.000000  0.000000  0.000541 -0.000000 -0.000000
  1C   1dx2y2     0.001230  0.000062 -0.002651 -0.000000 -0.003064 -0.001315
  1C   1dxy       0.001295  0.001013 -0.000305  0.000000 -0.001891  0.000286
  1C   2dz2       0.063362  0.048307 -0.060951 -0.000001  0.034468  0.151313
  1C   2dxz       0.000000  0.000000 -0.000001  0.026700 -0.000000 -0.000001
  1C   2dyz       0.000001  0.000001 -0.000000  0.054479  0.000000  0.000001
  1C   2dx2y2     0.029776  0.021195  0.074950 -0.000000  0.077644  0.018865
  1C   2dxy       0.027918  0.003284 -0.014170 -0.000001 -0.053673  0.112512
  1C   3dz2       0.127715  0.163083 -0.195216 -0.000003 -0.000903  0.399299
  1C   3dxz      -0.000000 -0.000001 -0.000001  0.157177  0.000000 -0.000004
  1C   3dyz       0.000002  0.000004 -0.000000  0.011305  0.000004 -0.000006
  1C   3dx2y2     0.025948  0.095139  0.098417  0.000003  0.642877 -0.116864
  1C   3dxy       0.054942  0.092689 -0.060946 -0.000013 -0.571182  0.870895
  1C   1f0       -0.000000 -0.000000 -0.000000  0.003050  0.000000 -0.000000
  1C   1f+1      -0.000265 -0.000699 -0.000674  0.000000 -0.001800  0.004616
  1C   1f-1       0.000211  0.000368  0.001301  0.000000  0.001954  0.002262
  1C   1f+2      -0.000000 -0.000000 -0.000000 -0.001820 -0.000000 -0.000000
  1C   1f-2      -0.000000 -0.000000  0.000000 -0.001484  0.000000 -0.000000
  1C   1f+3      -0.001778 -0.000520 -0.002001 -0.000000  0.001221 -0.004263
  1C   1f-3      -0.002585 -0.003553  0.006727  0.000000  0.000046 -0.009820
  1C   2f0       -0.000000 -0.000001  0.000000  0.006590 -0.000000 -0.000000
  1C   2f+1      -0.003964  0.016498 -0.006106 -0.000000 -0.043524 -0.004923
  1C   2f-1       0.009194  0.030904 -0.015179 -0.000001  0.011094 -0.028260
  1C   2f+2      -0.000000 -0.000000 -0.000000 -0.037311  0.000000 -0.000002
  1C   2f-2      -0.000000 -0.000000  0.000000  0.015958 -0.000000  0.000000
  1C   2f+3      -0.011203  0.020159  0.020600  0.000000  0.003498  0.009981
  1C   2f-3      -0.021849 -0.049995  0.036770  0.000001  0.015593 -0.126389
  2O   1s        -0.000935  0.000634  0.002336 -0.000000  0.000605 -0.000361
  2O   2s        -0.010630  0.002098  0.022368 -0.000000 -0.033095  0.036786
  2O   3s        -0.003402  0.000572  0.007431 -0.000000 -0.008319  0.009030
  2O   4s         0.154494  0.157264 -0.340390 -0.000006 -0.612843  1.131269
  2O   5s         0.817918  0.467559 -1.950543 -0.000016 -2.675947  5.124101
  2O   1pz       -0.000000  0.000000  0.000000 -0.036043  0.000000  0.000000
  2O   1px        0.007050 -0.003286  0.005611 -0.000000 -0.020374 -0.001617
  2O   1py        0.014902 -0.000429 -0.007978 -0.000000 -0.017088 -0.019413
  2O   2pz       -0.000000  0.000000  0.000000 -0.048022 -0.000000  0.000000
  2O   2px        0.002960 -0.010649  0.025355  0.000000 -0.000394 -0.039856
  2O   2py        0.020857  0.002579 -0.018376 -0.000000 -0.033830  0.006230
  2O   3pz        0.000000 -0.000000  0.000000 -0.008550 -0.000002  0.000005
  2O   3px       -0.124833 -0.003512  0.139290  0.000001  0.009946 -0.484313
  2O   3py        0.048933  0.146322 -0.203645  0.000000 -0.213948  0.061425
  2O   4pz        0.000001 -0.000001  0.000000 -0.942297 -0.000003  0.000005
  2O   4px       -0.189697  0.036339  0.482381  0.000003 -0.572278 -1.020505
  2O   4py        0.056610  0.278296 -0.491358  0.000000 -0.630493 -0.583143
  2O   1dz2      -0.000183 -0.000490  0.000241  0.000000 -0.001544 -0.000001
  2O   1dxz      -0.000000 -0.000000  0.000000  0.001734 -0.000000  0.000000
  2O   1dyz      -0.000000 -0.000000 -0.000000 -0.001194 -0.000000 -0.000000
  2O   1dx2y2     0.000032  0.000574 -0.000340  0.000000  0.000327  0.000024
  2O   1dxy       0.000239  0.000487 -0.000467  0.000000 -0.001129  0.000979
  2O   2dz2       0.000461  0.002204  0.002692 -0.000000  0.014147 -0.013475
  2O   2dxz      -0.000000  0.000000  0.000000 -0.006146  0.000000 -0.000000
  2O   2dyz       0.000000  0.000000  0.000000  0.008302  0.000000  0.000000
  2O   2dx2y2     0.004543  0.001133  0.000301 -0.000000 -0.002365  0.013599
  2O   2dxy      -0.001377 -0.003646  0.011717 -0.000000  0.015754 -0.016036
  2O   3dz2      -0.016303 -0.013582  0.017181 -0.000000 -0.060157  0.031310
  2O   3dxz      -0.000000  0.000001 -0.000000  0.035853 -0.000000 -0.000001
  2O   3dyz      -0.000000 -0.000000  0.000000 -0.023234 -0.000001  0.000001
  2O   3dx2y2     0.027443 -0.055675  0.029675 -0.000000  0.089537  0.099329
  2O   3dxy      -0.006182 -0.042751  0.060930 -0.000000 -0.011185  0.038488
  2O   1f0       -0.000000 -0.000000  0.000000 -0.000255  0.000000 -0.000000
  2O   1f+1       0.000275  0.000207 -0.000469 -0.000000 -0.001223  0.001977
  2O   1f-1       0.000089  0.000415 -0.000087 -0.000000  0.000658 -0.001339
  2O   1f+2      -0.000000  0.000000 -0.000000  0.000125 -0.000000  0.000000
  2O   1f-2       0.000000 -0.000000  0.000000  0.000101 -0.000000  0.000000
  2O   1f+3       0.000109  0.000919 -0.000343  0.000000 -0.000644 -0.000715
  2O   1f-3      -0.000183 -0.000208  0.000421 -0.000000  0.001393 -0.001202
  2O   2f0        0.000000  0.000000 -0.000000  0.002971  0.000000 -0.000000
  2O   2f+1      -0.000738 -0.001109  0.001359  0.000000  0.003929 -0.005149
  2O   2f-1       0.000015 -0.003186  0.002974 -0.000000 -0.000209  0.007058
  2O   2f+2       0.000000 -0.000000  0.000000 -0.002745  0.000000 -0.000000
  2O   2f-2      -0.000000 -0.000000 -0.000000  0.001162  0.000000 -0.000000
[...]
      f+2     :     0.003739
      f-2     :     0.011640
      f+3     :     0.023545
      f-3     :     0.007996
  2 O s       :     3.945092  s :     3.945092
      pz      :     1.468538  p :     4.614897
      px      :     1.446532
      py      :     1.699827
      dz2     :     0.001167  d :     0.035408
      dxz     :     0.013824
      dyz     :     0.004752
      dx2y2   :     0.005761
      dxy     :     0.009903
      f0      :     0.000511  f :     0.004128
      f+1     :     0.000198
      f-1     :     0.000001
      f+2     :     0.000427
      f-2     :     0.001037
      f+3     :     0.001336
      f-3     :     0.000619
  3 H s       :     0.738291  s :     0.738291
      pz      :     0.055084  p :     0.092797
      px      :     0.026739
      py      :     0.010974
      dz2     :     0.001243  d :     0.025755
      dxz     :     0.009275
      dyz     :     0.003176
      dx2y2   :     0.010394
      dxy     :     0.001668
  4 H s       :     0.708348  s :     0.708348
      pz      :     0.049503  p :     0.075022
      px      :     0.024200
      py      :     0.001319
      dz2     :     0.001314  d :     0.024280
      dxz     :     0.000153
      dyz     :     0.011429
      dx2y2   :     0.000584
      dxy     :     0.010800
  5 H s       :     0.458350  s :     0.458350
      pz      :    -0.003202  p :    -0.029105
      px      :    -0.000859
      py      :    -0.025044
      dz2     :    -0.002784  d :    -0.003906
      dxz     :     0.000942
      dyz     :    -0.000001
      dx2y2   :     0.000410
      dxy     :    -0.002472


                     *******************************
                     * LOEWDIN POPULATION ANALYSIS *
                     *******************************

----------------------
LOEWDIN ATOMIC CHARGES
----------------------
   0 N :    0.820004
   1 C :   -0.403525
   2 O :    0.386078
   3 H :   -0.315124
   4 H :   -0.300502
   5 H :   -0.186931

-------------------------------
LOEWDIN REDUCED ORBITAL CHARGES
-------------------------------
  0 N s       :     2.659348  s :     2.659348
      pz      :     1.078427  p :     3.025904
      px      :     0.984147
      py      :     0.963330
      dz2     :     0.044475  d :     0.372310
      dxz     :     0.052751
      dyz     :     0.003103
      dx2y2   :     0.128707
      dxy     :     0.143274
      f0      :     0.006897  f :     0.122434
      f+1     :     0.015843
      f-1     :     0.009495
      f+2     :     0.013674
      f-2     :     0.004066
      f+3     :     0.046401
      f-3     :     0.026058
  1 C s       :     2.526560  s :     2.526560
      pz      :     0.487217  p :     2.149722
      px      :     0.837683
      py      :     0.824822
      dz2     :     0.091994  d :     1.175468
      dxz     :     0.290800
      dyz     :     0.036271
      dx2y2   :     0.445704
      dxy     :     0.310698
      f0      :     0.038052  f :     0.551776
      f+1     :     0.049767
      f-1     :     0.024841
      f+2     :     0.026898
      f-2     :     0.094004
      f+3     :     0.204256
      f-3     :     0.113958
  2 O s       :     3.226074  s :     3.226074
      pz      :     1.222889  p :     4.108147
      px      :     1.429306
      py      :     1.455952
      dz2     :     0.026018  d :     0.207254
      dxz     :     0.031563
      dyz     :     0.006334
      dx2y2   :     0.074198
      dxy     :     0.069141
      f0      :     0.004495  f :     0.072446
      f+1     :     0.008223
      f-1     :     0.004076
      f+2     :     0.003953
      f-2     :     0.006424
      f+3     :     0.029612
      f-3     :     0.015664
  3 H s       :     0.610530  s :     0.610530
      pz      :     0.146127  p :     0.418296
      px      :     0.150642
      py      :     0.121527
      dz2     :     0.028205  d :     0.286298
      dxz     :     0.070544
      dyz     :     0.029602
      dx2y2   :     0.090723
      dxy     :     0.067225
  4 H s       :     0.607434  s :     0.607434
      pz      :     0.134791  p :     0.405343
      px      :     0.086504
      py      :     0.184048
      dz2     :     0.028301  d :     0.287724
      dxz     :     0.003283
      dyz     :     0.096702
      dx2y2   :     0.064564
      dxy     :     0.094874
  5 H s       :     0.710341  s :     0.710341
      pz      :     0.050743  p :     0.267669
      px      :     0.071245
      py      :     0.145681
      dz2     :     0.027276  d :     0.208921
      dxz     :     0.012473
      dyz     :     0.047920
      dx2y2   :     0.044782
      dxy     :     0.076470


                      *****************************
                      * MAYER POPULATION ANALYSIS *
                      *****************************

  NA   - Mulliken gross atomic population
  ZA   - Total nuclear charge
  QA   - Mulliken gross atomic charge
  VA   - Mayer's total valence
  BVA  - Mayer's bonded valence
  FA   - Mayer's free valence

  ATOM       NA         ZA         QA         VA         BVA        FA
  0 N      7.2729     7.0000    -0.2729     3.1516     3.1516    -0.0000
  1 C      6.0377     6.0000    -0.0377     3.4957     3.4957    -0.0000
  2 O      8.5995     8.0000    -0.5995     1.7289     1.7289     0.0000
  3 H      0.8568     1.0000     0.1432     1.0779     1.0779    -0.0000
  4 H      0.8076     1.0000     0.1924     1.0183     1.0183     0.0000
  5 H      0.4253     1.0000     0.5747     0.5446     0.5446    -0.0000

  Mayer bond orders larger than 0.100000
B(  0-N ,  1-C ) :   1.1483 B(  0-N ,  3-H ) :   1.0470 B(  0-N ,  4-H ) :   0.9754 
B(  1-C ,  2-O ) :   1.7471 B(  1-C ,  5-H ) :   0.5675 

-------
TIMINGS
-------

Total SCF time: 0 days 0 hours 0 min 19 sec 

Total time                  ....      19.660 sec
Sum of individual times     ....      19.297 sec  ( 98.2%)

Fock matrix formation       ....      18.994 sec  ( 96.6%)
Diagonalization             ....       0.082 sec  (  0.4%)
Density matrix formation    ....       0.006 sec  (  0.0%)
Population analysis         ....       0.015 sec  (  0.1%)
Initial guess               ....       0.054 sec  (  0.3%)
Orbital Transformation      ....       0.000 sec  (  0.0%)
Orbital Orthonormalization  ....       0.000 sec  (  0.0%)
DIIS solution               ....       0.051 sec  (  0.3%)
SOSCF solution              ....       0.059 sec  (  0.3%)

Maximum memory used throughout the entire SCF-calculation: 229.4 MB


           ************************************************************
           *        Program running with 8 parallel MPI-processes     *
           *              working on a common directory               *
           ************************************************************


------------------------------------------------------------------------------- 
                              ORCA-MATRIX DRIVEN CI                            
------------------------------------------------------------------------------- 

--------------------------------
AUTOMATIC CHOICE OF INCORE LEVEL
--------------------------------

Memory available                           ...  32000.00 MB
Memory needed for S+T                      ...     39.16 MB
Memory needed for J+K                      ...     78.46 MB
Memory needed for DIIS                     ...    548.30 MB
Memory needed for 3-ext                    ...    509.14 MB
Memory needed for 4-ext                    ...   5543.96 MB
Memory needed for triples                  ...      0.00 MB
 -> Final InCoreLevel    ... 5

Wavefunction type
-----------------
Correlation treatment                      ...      CCSD     
Single excitations                         ... ON
Orbital optimization                       ... OFF
Calculation of Z vector                    ... OFF
Calculation of Brueckner orbitals          ... OFF
Perturbative triple excitations            ... OFF
Calculation of F12 correction              ... OFF
Frozen core treatment                      ... chemical core (6 el)
Reference Wavefunction                     ... RHF
  Internal Orbitals:     3 ...   11 (  9 MO's/ 18 electrons)
  Virtual  Orbitals:    12 ...  206 (195 MO's              )
Number of AO's                             ...    207
Number of electrons                        ...     24
Number of correlated electrons             ...     18

Algorithmic settings
--------------------
Integral transformation                    ... AO direct full transformation
K(C) Formation                             ... FULL-MO TRAFO
Maximum number of iterations               ...       200
Convergence tolerance (max. residuum)      ... 1.000e-05
Level shift for amplitude update           ... 2.000e-01
Maximum number of DIIS vectors             ...         7
DIIS turned on at iteration                ...         0
Damping before turning on DIIS             ...     0.500
Damping after turning on DIIS              ...     0.000
Pair specific amplitude update             ... OFF
Natural orbital iterations                 ... OFF
Perturbative natural orbital generation    ... OFF
Printlevel                                 ... 2

Memory handling:
----------------
Maximum memory for working arrays          ...  32000 MB
Data storage in matrix containers          ... UNCOMPRESSED
Data type for integral storage             ... DOUBLE
In-Core Storage of quantities:
   Amplitudes+Sigma Vector      ... YES
   J+K operators                ... YES
   DIIS vectors                 ... YES
   3-external integrals         ... YES
   4-external integrals         ... YES


Initializing the integral package          ... done
Warning: reference  - re-canonicalizations have been set to INT 1 VIRT 1

--------------------------
CLOSED-SHELL FOCK OPERATOR
--------------------------

Restoring SHARK [2] ... ok
Recanonicalizing the internal orbitals
Recanonicalizing the virtual orbitals
Time needed for Fock operator              ...            1.871 sec
Reference energy                           ...   -169.005604596

WARNING: NRootsCISNAT (0) is lower than NRoots (10).
         I will take NRootsCISNAT = 10.

-------------------
RHF CIS CALCULATION
-------------------

Number of roots to be optimized            ... 10
Number of amplitudes to be optimized       ... 1755

Building the initial guess                 ... done
Iter    Delta-E          Residual
-------------------------------------------------------
  0   0.373355609361   0.017095564909 
  1   0.034324899662   0.001345528368 
  2   0.002731936516   0.000931553744 
  3   0.000743356795   0.000112802428 
  4   0.000266635966   0.000112171668 
  5   0.000094760174   0.000028724624 
  6   0.000039690030   0.000026365785 
  7   0.000022222642   0.000010742408 
  8   0.000012463254   0.000009150180 

      *** CONVERGENCE OF RESIDUAL NORM REACHED ***
        --- The CIS iterations have converged ---

-----------
CIS RESULTS
-----------

IROOT=  1:  0.242597 au     6.601 eV   53243.8 cm**-1
   10 ->  15    0.059064 (-0.243030)
   10 ->  19    0.174274 (-0.417461)
   10 ->  22    0.451101 ( 0.671641)
   10 ->  25    0.237680 (-0.487525)
   10 ->  31    0.010067 (-0.100333)
   10 ->  34    0.035176 (-0.187553)
IROOT=  2:  0.283302 au     7.709 eV   62177.7 cm**-1
    9 ->  12    0.014748 (-0.121441)
   11 ->  12    0.661331 ( 0.813222)
   11 ->  16    0.033411 (-0.182787)
   11 ->  17    0.050542 (-0.224815)
   11 ->  18    0.139294 (-0.373222)
   11 ->  23    0.015378 (-0.124008)
   11 ->  24    0.013504 ( 0.116207)
IROOT=  3:  0.314775 au     8.565 eV   69085.1 cm**-1
   10 ->  12    0.268399 (-0.518072)
   10 ->  14    0.052934 ( 0.230075)
   10 ->  17    0.037145 ( 0.192730)
   10 ->  18    0.030105 ( 0.173507)
   10 ->  20    0.017189 ( 0.131106)
   10 ->  23    0.016905 ( 0.130020)
   11 ->  15    0.023768 (-0.154170)
   11 ->  19    0.161542 (-0.401923)
   11 ->  22    0.256607 ( 0.506564)
   11 ->  25    0.059509 (-0.243945)
IROOT=  4:  0.316426 au     8.610 eV   69447.5 cm**-1
   11 ->  12    0.016328 (-0.127782)
   11 ->  13    0.561549 (-0.749366)
   11 ->  14    0.123221 (-0.351028)
   11 ->  20    0.151806 ( 0.389623)
   11 ->  21    0.055311 (-0.235182)
   11 ->  23    0.018115 (-0.134592)
   11 ->  37    0.013792 ( 0.117437)
IROOT=  5:  0.327580 au     8.914 eV   71895.5 cm**-1
   10 ->  12    0.192191 (-0.438396)
   10 ->  13    0.149433 (-0.386565)
   10 ->  14    0.119783 ( 0.346097)
   10 ->  16    0.046194 (-0.214929)
   10 ->  18    0.032994 ( 0.181642)
   10 ->  20    0.063803 ( 0.252593)
   10 ->  21    0.024088 ( 0.155204)
   10 ->  30    0.011163 ( 0.105653)
   11 ->  15    0.026632 ( 0.163193)
   11 ->  19    0.081480 ( 0.285448)
   11 ->  22    0.171855 (-0.414554)
   11 ->  25    0.027924 ( 0.167104)
IROOT=  6:  0.337347 au     9.180 eV   74039.0 cm**-1
   11 ->  13    0.150539 (-0.387993)
   11 ->  14    0.563254 ( 0.750502)
   11 ->  16    0.020519 (-0.143243)
   11 ->  17    0.054928 ( 0.234367)
   11 ->  20    0.051393 ( 0.226701)
   11 ->  21    0.095462 ( 0.308969)
IROOT=  7:  0.345247 au     9.395 eV   75772.9 cm**-1
   10 ->  12    0.020609 (-0.143557)
   10 ->  13    0.552372 ( 0.743218)
   10 ->  14    0.104656 ( 0.323505)
   10 ->  16    0.015171 (-0.123172)
   10 ->  17    0.154308 ( 0.392820)
   10 ->  20    0.061721 (-0.248438)
   10 ->  29    0.013042 ( 0.114203)
   11 ->  19    0.015453 ( 0.124311)
   11 ->  22    0.016513 (-0.128501)
IROOT=  8:  0.349769 au     9.518 eV   76765.3 cm**-1
   11 ->  15    0.832290 (-0.912299)
   11 ->  19    0.108078 ( 0.328752)
   11 ->  27    0.012577 (-0.112148)
IROOT=  9:  0.355566 au     9.675 eV   78037.7 cm**-1
   10 ->  12    0.367000 ( 0.605805)
   10 ->  13    0.028822 (-0.169769)
   10 ->  14    0.248131 ( 0.498128)
   10 ->  16    0.199321 (-0.446454)
   10 ->  21    0.028388 ( 0.168486)
   10 ->  30    0.012816 ( 0.113209)
   11 ->  19    0.025183 (-0.158691)
   11 ->  22    0.039837 ( 0.199592)
IROOT= 10:  0.365729 au     9.952 eV   80268.3 cm**-1
   10 ->  15    0.842132 ( 0.917678)
   10 ->  19    0.023544 (-0.153442)
   10 ->  22    0.062230 ( 0.249459)
   10 ->  27    0.020630 ( 0.143631)
   11 ->  16    0.010909 ( 0.104445)

--------------------------------------------------------------------
                UNRELAXED EXCITED STATE DIPOLE MOMENTS
--------------------------------------------------------------------
               E(eV)     DX(au)      DY(au)      DZ(au)      |D|(D)
IROOT=  1:     6.601   -0.453033   -0.124993   -0.000020    1.194544
IROOT=  2:     7.709    1.353047    0.148034    0.000017    3.459695
IROOT=  3:     8.565   -0.431996   -0.285673    0.000061    1.316421
IROOT=  4:     8.610    0.040248    0.713363   -0.000044    1.816109
IROOT=  5:     8.914   -2.044132   -1.861876   -0.000002    7.027995
IROOT=  6:     9.180   -1.751917   -0.973941    0.000009    5.094877
IROOT=  7:     9.395    0.460536    1.798161    0.000004    4.718084
IROOT=  8:     9.518   -1.225837   -0.737708   -0.000038    3.636539
IROOT=  9:     9.675    2.046257   -0.556884   -0.000001    5.390343
IROOT= 10:     9.952   -0.770958   -0.653539   -0.000035    2.568963
--------------------------------------------------------------------


------------------------------------------
NATURAL ORBITALS FOR STATE    1
------------------------------------------

Making the (pseudo)densities                       ... done

------------------------------------------
NATURAL ORBITALS FOR STATE    2
------------------------------------------

Making the (pseudo)densities                       ... done

------------------------------------------
NATURAL ORBITALS FOR STATE    3
------------------------------------------

Making the (pseudo)densities                       ... done

------------------------------------------
NATURAL ORBITALS FOR STATE    4
------------------------------------------

Making the (pseudo)densities                       ... done

------------------------------------------
NATURAL ORBITALS FOR STATE    5
------------------------------------------

Making the (pseudo)densities                       ... done

------------------------------------------
NATURAL ORBITALS FOR STATE    6
------------------------------------------

Making the (pseudo)densities                       ... done

------------------------------------------
NATURAL ORBITALS FOR STATE    7
------------------------------------------

Making the (pseudo)densities                       ... done

------------------------------------------
NATURAL ORBITALS FOR STATE    8
------------------------------------------

Making the (pseudo)densities                       ... done

------------------------------------------
NATURAL ORBITALS FOR STATE    9
------------------------------------------

Making the (pseudo)densities                       ... done

------------------------------------------
NATURAL ORBITALS FOR STATE   10
------------------------------------------

Making the (pseudo)densities                       ... done

------------------------------------------
STATE AVERAGED NATURAL ORBITALS FOR ACTIVE SPACE SELECTION
------------------------------------------

Solving eigenvalue problem for the occupied space  ... done
Solving eigenvalue problem for the virtual space   ... done
After automatic selection of the active space:
 No of roots active in IP calculation:    5  
 No of roots active in EA calculation:   12  
<ss|**>: 
------------------------------
PARTIAL COULOMB TRANSFORMATION
------------------------------

Transformation type                        ... one-operator
Dimension of the basis                     ...  207
Number of internal MOs                     ...  204 (3-206)
Pair cutoff                                ... 0.000e+00 Eh
Number of AO pairs included in the trafo   ... 21528
Total Number of distinct AO pairs          ... 21528
Memory devoted for trafo                   ... 32000.0 MB 
Max. Number of MO pairs treated together   ... 194830      
Max. Number of MOs treated per batch       ...  941      
Number Format for Storage                  ... Double (8 Byte)
AO-integral source                         ... DIRECT
Integral package used                      ... LIBINT

Starting integral evaluation:
      911358 b        0 skpd     0.404 s (  0.000 ms/b)
<sp|**>:      1362215 b        0 skpd     0.734 s (  0.001 ms/b)
<sd|**>:       976455 b        0 skpd     1.113 s (  0.001 ms/b)
<sf|**>:       390582 b        0 skpd     2.065 s (  0.005 ms/b)
<pp|**>:       554530 b        0 skpd    24.768 s (  0.045 ms/b)
<pd|**>:       757054 b        0 skpd    29.093 s (  0.038 ms/b)
<pf|**>:       303786 b        0 skpd    11.135 s (  0.037 ms/b)
<dd|**>:       289320 b        0 skpd    10.956 s (  0.038 ms/b)
<df|**>:       216990 b        0 skpd    11.682 s (  0.054 ms/b)
<ff|**>:        50631 b        0 skpd     3.426 s (  0.068 ms/b)
Closing buffer AOJ ( 3.35 GB; CompressionRatio= 1.00)
Collecting buffer AOJ 
    ... done with AO integral generation
Number of MO pairs included in the trafo   ... 20910
    ... Now sorting integrals
IBATCH = 1 of  1
Closing buffer JAO ( 3.35 GB; CompressionRatio= 1.00)
Collecting buffer JAO 
TOTAL TIME for half transformation         ...   182.474 sec
AO-integral generation                     ...     5.943 sec
Half transformation                        ...    89.441 sec
J-integral sorting                         ...    86.635 sec

-------------------------- SECOND HALF TRANSFORMATION -------------------------
Formation of (pq|rs)                       ... ok (    65.491 sec)
Integral sorting                           ... -------------------------------------------------------
Primary job  terminated normally, but 1 process returned
a non-zero exit code. Per user-direction, the job has been aborted.
-------------------------------------------------------

ORCA finished by error termination in MDCI
Calling Command: mpirun -np 8  /home/Lib/ORCA_500/orca_mdci_mpi 000025.mdciinp.tmp 000025 
[file orca_tools/qcmsg.cpp, line 458]: 
  .... aborting the run

