
                                        *****************
                                        * O   R   C   A *
                                        *****************

                                            #,                                       
                                            ###                                      
                                            ####                                     
                                            #####                                    
                                            ######                                   
                                           ########,                                 
                                     ,,################,,,,,                         
                               ,,#################################,,                 
                          ,,##########################################,,             
                       ,#########################################, ''#####,          
                    ,#############################################,,   '####,        
                  ,##################################################,,,,####,       
                ,###########''''           ''''###############################       
              ,#####''   ,,,,##########,,,,          '''####'''          '####       
            ,##' ,,,,###########################,,,                        '##       
           ' ,,###''''                  '''############,,,                           
         ,,##''                                '''############,,,,        ,,,,,,###''
      ,#''                                            '''#######################'''  
     '                                                          ''''####''''         
             ,#######,   #######,   ,#######,      ##                                
            ,#'     '#,  ##    ##  ,#'     '#,    #''#        ######   ,####,        
            ##       ##  ##   ,#'  ##            #'  '#       #        #'  '#        
            ##       ##  #######   ##           ,######,      #####,   #    #        
            '#,     ,#'  ##    ##  '#,     ,#' ,#      #,         ##   #,  ,#        
             '#######'   ##     ##  '#######'  #'      '#     #####' # '####'        



                  #######################################################
                  #                        -***-                        #
                  #          Department of theory and spectroscopy      #
                  #    Directorship and core code : Frank Neese         #
                  #        Max Planck Institute fuer Kohlenforschung    #
                  #                Kaiser Wilhelm Platz 1               #
                  #                 D-45470 Muelheim/Ruhr               #
                  #                      Germany                        #
                  #                                                     #
                  #                  All rights reserved                #
                  #                        -***-                        #
                  #######################################################


                         Program Version 5.0.0 -  RELEASE  -
                                (SVN: $Rev: 19529$)
                ($Date: 2021-06-28 11:36:33 +0200 (Mo, 28 Jun 2021) $)


 With contributions from (in alphabetic order):
   Daniel Aravena         : Magnetic Suceptibility
   Michael Atanasov       : Ab Initio Ligand Field Theory (pilot matlab implementation)
   Alexander A. Auer      : GIAO ZORA, VPT2 properties, NMR spectrum
   Ute Becker             : Parallelization
   Giovanni Bistoni       : ED, misc. LED, open-shell LED, HFLD
   Martin Brehm           : Molecular dynamics
   Dmytro Bykov           : SCF Hessian
   Vijay G. Chilkuri      : MRCI spin determinant printing, contributions to CSF-ICE
   Dipayan Datta          : RHF DLPNO-CCSD density
   Achintya Kumar Dutta   : EOM-CC, STEOM-CC
   Dmitry Ganyushin       : Spin-Orbit,Spin-Spin,Magnetic field MRCI
   Miquel Garcia          : C-PCM Hessian, Gaussian charge scheme
   Yang Guo               : DLPNO-NEVPT2, F12-NEVPT2, CIM, IAO-localization
   Andreas Hansen         : Spin unrestricted coupled pair/coupled cluster methods
   Benjamin Helmich-Paris : MC-RPA, TRAH-SCF, COSX integrals
   Lee Huntington         : MR-EOM, pCC
   Robert Izsak           : Overlap fitted RIJCOSX, COSX-SCS-MP3, EOM
   Marcus Kettner         : VPT2
   Christian Kollmar      : KDIIS, OOCD, Brueckner-CCSD(T), CCSD density, CASPT2, CASPT2-K
   Simone Kossmann        : Meta GGA functionals, TD-DFT gradient, OOMP2, MP2 Hessian
   Martin Krupicka        : Initial AUTO-CI
   Lucas Lang             : DCDCAS
   Marvin Lechner         : AUTO-CI (C++ implementation), FIC-MRCC
   Dagmar Lenk            : GEPOL surface, SMD
   Dimitrios Liakos       : Extrapolation schemes; Compound Job, initial MDCI parallelization
   Dimitrios Manganas     : Further ROCIS development; embedding schemes
   Dimitrios Pantazis     : SARC Basis sets
   Anastasios Papadopoulos: AUTO-CI, single reference methods and gradients
   Taras Petrenko         : DFT Hessian,TD-DFT gradient, ASA, ECA, R-Raman, ABS, FL, XAS/XES, NRVS
   Peter Pinski           : DLPNO-MP2, DLPNO-MP2 Gradient
   Christoph Reimann      : Effective Core Potentials
   Marius Retegan         : Local ZFS, SOC
   Christoph Riplinger    : Optimizer, TS searches, QM/MM, DLPNO-CCSD(T), (RO)-DLPNO pert. Triples
   Tobias Risthaus        : Range-separated hybrids, TD-DFT gradient, RPA, STAB
   Michael Roemelt        : Original ROCIS implementation
   Masaaki Saitow         : Open-shell DLPNO-CCSD energy and density
   Barbara Sandhoefer     : DKH picture change effects
   Avijit Sen             : IP-ROCIS
   Kantharuban Sivalingam : CASSCF convergence, NEVPT2, FIC-MRCI
   Bernardo de Souza      : ESD, SOC TD-DFT
   Georgi Stoychev        : AutoAux, RI-MP2 NMR
   Willem Van den Heuvel  : Paramagnetic NMR
   Boris Wezisla          : Elementary symmetry handling
   Frank Wennmohs         : Technical directorship


 We gratefully acknowledge several colleagues who have allowed us to
 interface, adapt or use parts of their codes:
   Stefan Grimme, W. Hujo, H. Kruse, P. Pracht,  : VdW corrections, initial TS optimization,
                  C. Bannwarth, S. Ehlert          DFT functionals, gCP, sTDA/sTD-DF
   Ed Valeev, F. Pavosevic, A. Kumar             : LibInt (2-el integral package), F12 methods
   Garnet Chan, S. Sharma, J. Yang, R. Olivares  : DMRG
   Ulf Ekstrom                                   : XCFun DFT Library
   Mihaly Kallay                                 : mrcc  (arbitrary order and MRCC methods)
   Jiri Pittner, Ondrej Demel                    : Mk-CCSD
   Frank Weinhold                                : gennbo (NPA and NBO analysis)
   Christopher J. Cramer and Donald G. Truhlar   : smd solvation model
   Lars Goerigk                                  : TD-DFT with DH, B97 family of functionals
   V. Asgeirsson, H. Jonsson                     : NEB implementation
   FAccTs GmbH                                   : IRC, NEB, NEB-TS, DLPNO-Multilevel, CI-OPT
                                                   MM, QMMM, 2- and 3-layer-ONIOM, Crystal-QMMM,
                                                   LR-CPCM, SF, NACMEs, symmetry and pop. for TD-DFT,
                                                   nearIR, NL-DFT gradient (VV10), updates on ESD,
                                                   ML-optimized integration grids
   S Lehtola, MJT Oliveira, MAL Marques          : LibXC Library
   Liviu Ungur et al                             : ANISO software


 Your calculation uses the libint2 library for the computation of 2-el integrals
 For citations please refer to: http://libint.valeyev.net

 Your ORCA version has been built with support for libXC version: 5.1.0
 For citations please refer to: https://tddft.org/programs/libxc/

 This ORCA versions uses:
   CBLAS   interface :  Fast vector & matrix operations
   LAPACKE interface :  Fast linear algebra routines
   SCALAPACK package :  Parallel linear algebra routines
   Shared memory     :  Shared parallel matrices
   BLAS/LAPACK       :  OpenBLAS 0.3.15  USE64BITINT DYNAMIC_ARCH NO_AFFINITY Haswell SINGLE_THREADED
        Core in use  :  Haswell
   Copyright (c) 2011-2014, The OpenBLAS Project




***************************************
The coordinates will be read from file: 000021.xyz
***************************************


================================================================================

----- Orbital basis set information -----
Your calculation utilizes the basis: aug-cc-pVTZ 
    H, B-Ne : Obtained from the ccRepo (grant-hill.group.shef.ac.uk/ccrepo) Feb. 2017
              R. A. Kendall, T. H. Dunning, Jr., R. J. Harrison, J. Chem. Phys. 96, 6796 (1992)
         He : Obtained from the ccRepo (grant-hill.group.shef.ac.uk/ccrepo) Feb. 2017
              D. E. Woon, T. H. Dunning, Jr., J. Chem. Phys. 100, 2975 (1994)
  Li-Be, Na : Obtained from the ccRepo (grant-hill.group.shef.ac.uk/ccrepo) Feb. 2017
              B. P. Prascher, D. E. Woon, K. A. Peterson, T. H. Dunning, Jr., A. K. Wilson, Theor. Chem. Acc. 128, 69 (2011)
         Mg : Obtained from the Peterson Research Group Website (tyr0.chem.wsu.edu/~kipeters) Feb. 2017
              B. P. Prascher, D. E. Woon, K. A. Peterson, T. H. Dunning, Jr., A. K. Wilson, Theor. Chem. Acc. 128, 69 (2011)
      Al-Ar : Obtained from the ccRepo (grant-hill.group.shef.ac.uk/ccrepo) Feb. 2017
              D. E. Woon, T. H. Dunning, Jr., J. Chem. Phys. 98, 1358 (1993)
      Sc-Zn : Obtained from the ccRepo (grant-hill.group.shef.ac.uk/ccrepo) Feb. 2017
              N. B. Balabanov, K. A. Peterson, J. Chem. Phys. 123, 064107 (2005)
              N. B. Balabanov, K. A. Peterson, J. Chem. Phys. 125, 074110 (2006)
      Ga-Kr : Obtained from the ccRepo (grant-hill.group.shef.ac.uk/ccrepo) Feb. 2017
              A. K. Wilson, D. E. Woon, K. A. Peterson, T. H. Dunning, Jr., J. Chem. Phys. 110, 7667 (1999)
     Ag, Au : Obtained from the Peterson Research Group Website (tyr0.chem.wsu.edu/~kipeters) Feb. 2017
              K. A. Peterson, C. Puzzarini, Theor. Chem. Acc. 114, 283 (2005)

================================================================================
                                        WARNINGS
                       Please study these warnings very carefully!
================================================================================


WARNING: Post HF methods need fully converged wavefunctions
  ===> : Setting SCFConvForced true
         You can overwrite this default with %scf ConvForced false 


WARNING: MDCI localization with Augmented Hessian Foster-Boys
  ===> : Switching off randomization!

INFO   : the flag for use of the SHARK integral package has been found!

================================================================================
                                       INPUT FILE
================================================================================
NAME = 000021.com
|  1> !STEOM-CCSD aug-cc-pVTZ TightSCF PrintMOs
|  2> 
|  3> *xyzfile 0 1 000021.xyz
|  4> 
|  5> %MaxCore 64000
|  6> %scf
|  7>  MaxIter 150
|  8> end
|  9> 
| 10> %pal nprocs 8
| 11> end
| 12> 
| 13> %mdci
| 14>  nroots 10
| 15>  DoRootwise true
| 16> end
| 17> 
| 18>                          ****END OF INPUT****
================================================================================

                       ****************************
                       * Single Point Calculation *
                       ****************************

---------------------------------
CARTESIAN COORDINATES (ANGSTROEM)
---------------------------------
  C     -1.131573   -0.504386    0.000000
  C      0.000000    0.472223    0.000000
  C      1.284136    0.150792    0.000000
  H     -1.767446   -0.362775    0.877699
  H     -0.770123   -1.533458    0.000000
  H     -1.767446   -0.362775   -0.877699
  H     -0.276551    1.523465    0.000000
  H      1.608435   -0.884556    0.000000
  H      2.057749    0.908326    0.000000

----------------------------
CARTESIAN COORDINATES (A.U.)
----------------------------
  NO LB      ZA    FRAG     MASS         X           Y           Z
   0 C     6.0000    0    12.011   -2.138363   -0.953151    0.000000
   1 C     6.0000    0    12.011    0.000000    0.892372    0.000000
   2 C     6.0000    0    12.011    2.426665    0.284956    0.000000
   3 H     1.0000    0     1.008   -3.339989   -0.685545    1.658611
   4 H     1.0000    0     1.008   -1.455322   -2.897816    0.000000
   5 H     1.0000    0     1.008   -3.339989   -0.685545   -1.658611
   6 H     1.0000    0     1.008   -0.522606    2.878932    0.000000
   7 H     1.0000    0     1.008    3.039502   -1.671569    0.000000
   8 H     1.0000    0     1.008    3.888582    1.716487    0.000000

--------------------------------
INTERNAL COORDINATES (ANGSTROEM)
--------------------------------
 C      0   0   0     0.000000000000     0.00000000     0.00000000
 C      1   0   0     1.494731612434     0.00000000     0.00000000
 C      2   1   0     1.323753434087   125.15110841     0.00000000
 H      1   2   3     1.093043312065   110.83984931   120.77352360
 H      1   2   3     1.090704031204   111.44272474     0.00000000
 H      1   2   3     1.093043312065   110.83984931   239.22647640
 H      2   1   3     1.087009750722   116.05708588   180.00000000
 H      3   2   1     1.084949456198   121.44488125     0.00000000
 H      3   2   1     1.082744122554   121.54874308   180.00000000

---------------------------
INTERNAL COORDINATES (A.U.)
---------------------------
 C      0   0   0     0.000000000000     0.00000000     0.00000000
 C      1   0   0     2.824633391215     0.00000000     0.00000000
 C      2   1   0     2.501531459262   125.15110841     0.00000000
 H      1   2   3     2.065552512318   110.83984931   120.77352360
 H      1   2   3     2.061131912139   111.44272474     0.00000000
 H      1   2   3     2.065552512318   110.83984931   239.22647640
 H      2   1   3     2.054150733767   116.05708588   180.00000000
 H      3   2   1     2.050257341362   121.44488125     0.00000000
 H      3   2   1     2.046089864740   121.54874308   180.00000000

---------------------
BASIS SET INFORMATION
---------------------
There are 2 groups of distinct atoms

 Group   1 Type C   : 19s6p3d2f contracted to 5s4p3d2f pattern {88111/3111/111/11}
 Group   2 Type H   : 6s3p2d contracted to 4s3p2d pattern {3111/111/11}

Atom   0C    basis set group =>   1
Atom   1C    basis set group =>   1
Atom   2C    basis set group =>   1
Atom   3H    basis set group =>   2
Atom   4H    basis set group =>   2
Atom   5H    basis set group =>   2
Atom   6H    basis set group =>   2
Atom   7H    basis set group =>   2
Atom   8H    basis set group =>   2


           ************************************************************
           *        Program running with 8 parallel MPI-processes     *
           *              working on a common directory               *
           ************************************************************
------------------------------------------------------------------------------
                           ORCA GTO INTEGRAL CALCULATION
------------------------------------------------------------------------------
------------------------------------------------------------------------------
                   ___                                                        
                  /   \      - P O W E R E D   B Y -                         
                 /     \                                                     
                 |  |  |   _    _      __       _____    __    __             
                 |  |  |  | |  | |    /  \     |  _  \  |  |  /  |          
                  \  \/   | |  | |   /    \    | | | |  |  | /  /          
                 / \  \   | |__| |  /  /\  \   | |_| |  |  |/  /          
                |  |  |   |  __  | /  /__\  \  |    /   |      \           
                |  |  |   | |  | | |   __   |  |    \   |  |\   \          
                \     /   | |  | | |  |  |  |  | |\  \  |  | \   \       
                 \___/    |_|  |_| |__|  |__|  |_| \__\ |__|  \__/        
                                                                              
                      - O R C A' S   B I G   F R I E N D -                    
                                      &                                       
                       - I N T E G R A L  F E E D E R -                       
                                                                              
 v1 FN, 2020, v2 2021                                                         
------------------------------------------------------------------------------


Reading SHARK input file 000021.SHARKINP.tmp ... ok
----------------------
SHARK INTEGRAL PACKAGE
----------------------

Number of atoms                             ...      9
Number of basis functions                   ...    276
Number of shells                            ...     96
Maximum angular momentum                    ...      3
Integral batch strategy                     ... SHARK/LIBINT Hybrid
RI-J (if used) integral strategy            ... SPLIT-RIJ (Revised 2003 algorithm where possible)
Printlevel                                  ...      1
Contraction scheme used                     ... SEGMENTED contraction
Coulomb Range Separation                    ... NOT USED
Exchange Range Separation                   ... NOT USED
Finite Nucleus Model                        ... NOT USED
Auxiliary Coulomb fitting basis             ... NOT available
Auxiliary J/K fitting basis                 ... NOT available
Auxiliary Correlation fitting basis         ... NOT available
Auxiliary 'external' fitting basis          ... NOT available
Integral threshold                          ...     2.500000e-11
Primitive cut-off                           ...     2.500000e-12
Primitive pair pre-selection threshold      ...     2.500000e-12

Calculating pre-screening integrals         ... done (  0.5 sec) Dimension = 96
Organizing shell pair data                  ... done (  0.1 sec)
Shell pair information
Total number of shell pairs                 ...      4656
Shell pairs after pre-screening             ...      4634
Total number of primitive shell pairs       ...     12441
Primitive shell pairs kept                  ...     10991
          la=0 lb=0:    777 shell pairs
          la=1 lb=0:   1164 shell pairs
          la=1 lb=1:    460 shell pairs
          la=2 lb=0:    815 shell pairs
          la=2 lb=1:    626 shell pairs
          la=2 lb=2:    231 shell pairs
          la=3 lb=0:    234 shell pairs
          la=3 lb=1:    180 shell pairs
          la=3 lb=2:    126 shell pairs
          la=3 lb=3:     21 shell pairs

Calculating one electron integrals          ... done (  0.0 sec)
Calculating Nuclear repulsion               ... done (  0.0 sec) ENN=     70.980148454305 Eh

SHARK setup successfully completed in   0.6 seconds

Maximum memory used throughout the entire GTOINT-calculation: 16.0 MB


           ************************************************************
           *        Program running with 8 parallel MPI-processes     *
           *              working on a common directory               *
           ************************************************************
-------------------------------------------------------------------------------
                                 ORCA SCF
-------------------------------------------------------------------------------

------------
SCF SETTINGS
------------
Hamiltonian:
 Ab initio Hamiltonian  Method          .... Hartree-Fock(GTOs)


General Settings:
 Integral files         IntName         .... 000021
 Hartree-Fock type      HFTyp           .... RHF
 Total Charge           Charge          ....    0
 Multiplicity           Mult            ....    1
 Number of Electrons    NEL             ....   24
 Basis Dimension        Dim             ....  276
 Nuclear Repulsion      ENuc            ....     70.9801484543 Eh

Convergence Acceleration:
 DIIS                   CNVDIIS         .... on
   Start iteration      DIISMaxIt       ....    12
   Startup error        DIISStart       ....  0.200000
   # of expansion vecs  DIISMaxEq       ....     5
   Bias factor          DIISBfac        ....   1.050
   Max. coefficient     DIISMaxC        ....  10.000
 Trust-Rad. Augm. Hess. CNVTRAH         .... auto
   Auto Start mean grad. ratio tolernc. ....  1.125000
   Auto Start start iteration           ....    20
   Auto Start num. interpolation iter.  ....    10
   Max. Number of Micro iterations      ....    16
   Max. Number of Macro iterations      .... Maxiter - #DIIS iter
   Number of Davidson start vectors     ....     2
   Converg. threshold I  (grad. norm)   ....   1.000e-05
   Converg. threshold II (energy diff.) ....   1.000e-08
   Grad. Scal. Fac. for Micro threshold ....   0.100
   Minimum threshold for Micro iter.    ....   0.010
   NR start threshold (gradient norm)   ....   0.001
   Initial trust radius                 ....   0.400
   Minimum AH scaling param. (alpha)    ....   1.000
   Maximum AH scaling param. (alpha)    .... 1000.000
   Orbital update algorithm             .... Taylor
   White noise on init. David. guess    .... on
   Maximum white noise                  ....   0.010
   Quad. conv. algorithm                .... NR
 SOSCF                  CNVSOSCF        .... on
   Start iteration      SOSCFMaxIt      ....   150
   Startup grad/error   SOSCFStart      ....  0.003300
 Level Shifting         CNVShift        .... on
   Level shift para.    LevelShift      ....    0.2500
   Turn off err/grad.   ShiftErr        ....    0.0010
 Zerner damping         CNVZerner       .... off
 Static damping         CNVDamp         .... on
   Fraction old density DampFac         ....    0.7000
   Max. Damping (<1)    DampMax         ....    0.9800
   Min. Damping (>=0)   DampMin         ....    0.0000
   Turn off err/grad.   DampErr         ....    0.1000
 Fernandez-Rico         CNVRico         .... off

SCF Procedure:
 Maximum # iterations   MaxIter         ....   150
 SCF integral mode      SCFMode         .... Direct
   Integral package                     .... SHARK and LIBINT hybrid scheme
 Reset frequency        DirectResetFreq ....    20
 Integral Threshold     Thresh          ....  2.500e-11 Eh
 Primitive CutOff       TCut            ....  2.500e-12 Eh

Convergence Tolerance:
 Convergence Check Mode ConvCheckMode   .... Total+1el-Energy
 Convergence forced     ConvForced      .... 1
 Energy Change          TolE            ....  1.000e-08 Eh
 1-El. energy change                    ....  1.000e-05 Eh
 Orbital Gradient       TolG            ....  1.000e-05
 Orbital Rotation angle TolX            ....  1.000e-05
 DIIS Error             TolErr          ....  5.000e-07


Diagonalization of the overlap matrix:
Smallest eigenvalue                        ... 6.848e-06
Time for diagonalization                   ...    0.027 sec
Threshold for overlap eigenvalues          ... 1.000e-08
Number of eigenvalues below threshold      ... 0
Time for construction of square roots      ...    0.020 sec
Total time needed                          ...    0.048 sec

Time for model grid setup =    0.060 sec

------------------------------
INITIAL GUESS: MODEL POTENTIAL
------------------------------
Loading Hartree-Fock densities                     ... done
Calculating cut-offs                               ... done
Initializing the effective Hamiltonian             ... done
Setting up the integral package (SHARK)            ... done
Starting the Coulomb interaction                   ... done (   0.0 sec)
Reading the grid                                   ... done
Mapping shells                                     ... done
Starting the XC term evaluation                    ... done (   0.0 sec)
Transforming the Hamiltonian                       ... done (   0.0 sec)
Diagonalizing the Hamiltonian                      ... done (   0.0 sec)
Back transforming the eigenvectors                 ... done (   0.0 sec)
Now organizing SCF variables                       ... done
                      ------------------
                      INITIAL GUESS DONE (   0.2 sec)
                      ------------------
--------------
SCF ITERATIONS
--------------
ITER       Energy         Delta-E        Max-DP      RMS-DP      [F,P]     Damp
               ***  Starting incremental Fock matrix formation  ***
  0   -116.9140707091   0.000000000000 0.03038667  0.00065815  0.2491417 0.7000
  1   -116.9852842260  -0.071213516823 0.02223925  0.00050405  0.1626079 0.7000
                               ***Turning on DIIS***
  2   -117.0289328175  -0.043648591532 0.05354929  0.00120175  0.0976684 0.0000
  3   -116.7975170607   0.231415756754 0.04060195  0.00046395  0.0350627 0.0000
  4   -117.0763734072  -0.278856346460 0.01518758  0.00015218  0.0057063 0.0000
                      *** Initiating the SOSCF procedure ***
                           *** Shutting down DIIS ***
                      *** Re-Reading the Fockian *** 
                      *** Removing any level shift *** 
ITER      Energy       Delta-E        Grad      Rot      Max-DP    RMS-DP
  5   -117.10792913  -0.0315557230  0.001177  0.001177  0.004562  0.000045
               *** Restarting incremental Fock matrix formation ***
  6   -117.11759607  -0.0096669386  0.000426  0.000572  0.000666  0.000015
  7   -117.11760119  -0.0000051198  0.000166  0.000395  0.000497  0.000010
  8   -117.11760198  -0.0000007939  0.000038  0.000051  0.000073  0.000002
  9   -117.11760204  -0.0000000534  0.000015  0.000022  0.000054  0.000001
 10   -117.11760204  -0.0000000034  0.000006  0.000016  0.000008  0.000000
                  ***Gradient check signals convergence***
              ***Rediagonalizing the Fockian in SOSCF/NRSCF***

               *****************************************************
               *                     SUCCESS                       *
               *           SCF CONVERGED AFTER  11 CYCLES          *
               *****************************************************


----------------
TOTAL SCF ENERGY
----------------

Total Energy       :         -117.11760204 Eh           -3186.93197 eV

Components:
Nuclear Repulsion  :           70.98014845 Eh            1931.46803 eV
Electronic Energy  :         -188.09775049 Eh           -5118.40001 eV
One Electron Energy:         -297.00732107 Eh           -8081.98009 eV
Two Electron Energy:          108.90957057 Eh            2963.58008 eV

Virial components:
Potential Energy   :         -234.09536839 Eh           -6370.05882 eV
Kinetic Energy     :          116.97776635 Eh            3183.12685 eV
Virial Ratio       :            2.00119540


---------------
SCF CONVERGENCE
---------------

  Last Energy change         ...   -6.7513e-10  Tolerance :   1.0000e-08
  Last MAX-Density change    ...    7.7535e-06  Tolerance :   1.0000e-07
  Last RMS-Density change    ...    9.6896e-08  Tolerance :   5.0000e-09
  Last Orbital Gradient      ...    1.5706e-06  Tolerance :   1.0000e-05
  Last Orbital Rotation      ...    6.4307e-06  Tolerance :   1.0000e-05

             **** THE GBW FILE WAS UPDATED (000021.gbw) ****
             **** DENSITY 000021.scfp WAS UPDATED ****
             **** ENERGY FILE WAS UPDATED (000021.en.tmp) ****
             **** THE GBW FILE WAS UPDATED (000021.gbw) ****
             **** DENSITY 000021.scfp WAS UPDATED ****
----------------
ORBITAL ENERGIES
----------------

  NO   OCC          E(Eh)            E(eV) 
   0   2.0000     -11.232462      -305.6508 
   1   2.0000     -11.221215      -305.3448 
   2   2.0000     -11.216126      -305.2063 
   3   2.0000      -1.066669       -29.0255 
   4   2.0000      -0.933902       -25.4128 
   5   2.0000      -0.756844       -20.5948 
   6   2.0000      -0.640054       -17.4168 
   7   2.0000      -0.584252       -15.8983 
   8   2.0000      -0.567836       -15.4516 
   9   2.0000      -0.523891       -14.2558 
  10   2.0000      -0.490011       -13.3339 
  11   2.0000      -0.360819        -9.8184 
  12   0.0000       0.031504         0.8573 
  13   0.0000       0.039099         1.0639 
  14   0.0000       0.041173         1.1204 
  15   0.0000       0.048377         1.3164 
  16   0.0000       0.058166         1.5828 
  17   0.0000       0.062993         1.7141 
  18   0.0000       0.095246         2.5918 
  19   0.0000       0.103350         2.8123 
  20   0.0000       0.112891         3.0719 
  21   0.0000       0.120747         3.2857 
  22   0.0000       0.129391         3.5209 
  23   0.0000       0.136135         3.7044 
  24   0.0000       0.143640         3.9086 
  25   0.0000       0.146629         3.9900 
  26   0.0000       0.156052         4.2464 
  27   0.0000       0.162049         4.4096 
  28   0.0000       0.177690         4.8352 
  29   0.0000       0.188232         5.1220 
  30   0.0000       0.212664         5.7869 
  31   0.0000       0.227991         6.2039 
  32   0.0000       0.248948         6.7742 
  33   0.0000       0.257277         7.0009 
  34   0.0000       0.265652         7.2288 
  35   0.0000       0.270419         7.3585 
  36   0.0000       0.300797         8.1851 
  37   0.0000       0.308775         8.4022 
  38   0.0000       0.316143         8.6027 
  39   0.0000       0.322980         8.7887 
  40   0.0000       0.337570         9.1857 
  41   0.0000       0.345009         9.3882 
  42   0.0000       0.345281         9.3956 
  43   0.0000       0.350939         9.5495 
  44   0.0000       0.361132         9.8269 
  45   0.0000       0.369446        10.0531 
  46   0.0000       0.377355        10.2684 
  47   0.0000       0.388771        10.5790 
  48   0.0000       0.395635        10.7658 
  49   0.0000       0.408761        11.1230 
  50   0.0000       0.413534        11.2528 
  51   0.0000       0.421682        11.4745 
  52   0.0000       0.433128        11.7860 
  53   0.0000       0.442995        12.0545 
  54   0.0000       0.452937        12.3251 
  55   0.0000       0.453263        12.3339 
  56   0.0000       0.455959        12.4073 
  57   0.0000       0.461431        12.5562 
  58   0.0000       0.477875        13.0036 
  59   0.0000       0.482994        13.1429 
  60   0.0000       0.493940        13.4408 
  61   0.0000       0.510485        13.8910 
  62   0.0000       0.524054        14.2602 
  63   0.0000       0.534924        14.5560 
  64   0.0000       0.546746        14.8777 
  65   0.0000       0.574430        15.6310 
  66   0.0000       0.577237        15.7074 
  67   0.0000       0.600055        16.3283 
  68   0.0000       0.606441        16.5021 
  69   0.0000       0.614637        16.7251 
  70   0.0000       0.641439        17.4545 
  71   0.0000       0.663043        18.0423 
  72   0.0000       0.692816        18.8525 
  73   0.0000       0.748663        20.3722 
  74   0.0000       0.758898        20.6507 
  75   0.0000       0.783466        21.3192 
  76   0.0000       0.800417        21.7805 
  77   0.0000       0.811968        22.0948 
  78   0.0000       0.818258        22.2659 
  79   0.0000       0.829964        22.5845 
  80   0.0000       0.857144        23.3241 
  81   0.0000       0.862327        23.4651 
  82   0.0000       0.886951        24.1352 
  83   0.0000       0.895393        24.3649 
  84   0.0000       0.895918        24.3792 
  85   0.0000       0.900802        24.5121 
  86   0.0000       0.908808        24.7299 
  87   0.0000       0.922384        25.0993 
  88   0.0000       0.927636        25.2423 
  89   0.0000       0.946018        25.7425 
  90   0.0000       0.947477        25.7822 
  91   0.0000       0.951771        25.8990 
  92   0.0000       0.955978        26.0135 
  93   0.0000       0.975587        26.5471 
  94   0.0000       0.986904        26.8550 
  95   0.0000       1.001098        27.2413 
  96   0.0000       1.020777        27.7768 
  97   0.0000       1.022860        27.8334 
  98   0.0000       1.042244        28.3609 
  99   0.0000       1.052842        28.6493 
 100   0.0000       1.069836        29.1117 
 101   0.0000       1.080795        29.4099 
 102   0.0000       1.086932        29.5769 
 103   0.0000       1.099866        29.9289 
 104   0.0000       1.119417        30.4609 
 105   0.0000       1.120959        30.5028 
 106   0.0000       1.137409        30.9505 
 107   0.0000       1.150194        31.2984 
 108   0.0000       1.156432        31.4681 
 109   0.0000       1.162615        31.6364 
 110   0.0000       1.170979        31.8640 
 111   0.0000       1.202960        32.7342 
 112   0.0000       1.209158        32.9029 
 113   0.0000       1.216064        33.0908 
 114   0.0000       1.261484        34.3267 
 115   0.0000       1.267392        34.4875 
 116   0.0000       1.274033        34.6682 
 117   0.0000       1.295655        35.2566 
 118   0.0000       1.329116        36.1671 
 119   0.0000       1.332039        36.2466 
 120   0.0000       1.369445        37.2645 
 121   0.0000       1.380860        37.5751 
 122   0.0000       1.406114        38.2623 
 123   0.0000       1.416087        38.5337 
 124   0.0000       1.437342        39.1121 
 125   0.0000       1.452849        39.5340 
 126   0.0000       1.515825        41.2477 
 127   0.0000       1.545330        42.0506 
 128   0.0000       1.551578        42.2206 
 129   0.0000       1.571176        42.7539 
 130   0.0000       1.594762        43.3957 
 131   0.0000       1.614146        43.9231 
 132   0.0000       1.629254        44.3343 
 133   0.0000       1.655295        45.0429 
 134   0.0000       1.671549        45.4851 
 135   0.0000       1.680600        45.7315 
 136   0.0000       1.697081        46.1799 
 137   0.0000       1.711792        46.5802 
 138   0.0000       1.745947        47.5096 
 139   0.0000       1.771588        48.2074 
 140   0.0000       1.772671        48.2368 
 141   0.0000       1.797785        48.9202 
 142   0.0000       1.800154        48.9847 
 143   0.0000       1.821671        49.5702 
 144   0.0000       1.847956        50.2854 
 145   0.0000       1.869450        50.8703 
 146   0.0000       1.887204        51.3534 
 147   0.0000       1.888046        51.3763 
 148   0.0000       1.937626        52.7255 
 149   0.0000       1.945808        52.9481 
 150   0.0000       1.960376        53.3446 
 151   0.0000       1.996630        54.3311 
 152   0.0000       1.997853        54.3644 
 153   0.0000       2.032837        55.3163 
 154   0.0000       2.051597        55.8268 
 155   0.0000       2.094728        57.0004 
 156   0.0000       2.103078        57.2277 
 157   0.0000       2.112210        57.4762 
 158   0.0000       2.134913        58.0939 
 159   0.0000       2.185884        59.4809 
 160   0.0000       2.206581        60.0441 
 161   0.0000       2.217819        60.3499 
 162   0.0000       2.228316        60.6356 
 163   0.0000       2.263934        61.6048 
 164   0.0000       2.275593        61.9220 
 165   0.0000       2.283266        62.1308 
 166   0.0000       2.348668        63.9105 
 167   0.0000       2.414633        65.7055 
 168   0.0000       2.462613        67.0111 
 169   0.0000       2.465225        67.0822 
 170   0.0000       2.555055        69.5266 
 171   0.0000       2.672855        72.7321 
 172   0.0000       2.757837        75.0446 
 173   0.0000       2.951489        80.3141 
 174   0.0000       3.014879        82.0390 
 175   0.0000       3.107202        84.5513 
 176   0.0000       3.169507        86.2467 
 177   0.0000       3.241306        88.2004 
 178   0.0000       3.259479        88.6949 
 179   0.0000       3.308059        90.0169 
 180   0.0000       3.327228        90.5385 
 181   0.0000       3.347504        91.0902 
 182   0.0000       3.372013        91.7571 
 183   0.0000       3.414192        92.9049 
 184   0.0000       3.422652        93.1351 
 185   0.0000       3.447819        93.8199 
 186   0.0000       3.490988        94.9946 
 187   0.0000       3.526249        95.9541 
 188   0.0000       3.551066        96.6294 
 189   0.0000       3.572862        97.2225 
 190   0.0000       3.592888        97.7674 
 191   0.0000       3.622668        98.5778 
 192   0.0000       3.650440        99.3335 
 193   0.0000       3.662636        99.6654 
 194   0.0000       3.670810        99.8878 
 195   0.0000       3.674774        99.9957 
 196   0.0000       3.694056       100.5204 
 197   0.0000       3.737805       101.7108 
 198   0.0000       3.742544       101.8398 
 199   0.0000       3.810126       103.6788 
 200   0.0000       3.819810       103.9423 
 201   0.0000       3.841483       104.5321 
 202   0.0000       3.866503       105.2129 
 203   0.0000       3.890766       105.8731 
 204   0.0000       3.941118       107.2433 
 205   0.0000       3.947006       107.4035 
 206   0.0000       3.982912       108.3806 
 207   0.0000       3.996529       108.7511 
 208   0.0000       4.004060       108.9560 
 209   0.0000       4.039632       109.9240 
 210   0.0000       4.072687       110.8234 
 211   0.0000       4.085564       111.1738 
 212   0.0000       4.107376       111.7674 
 213   0.0000       4.126946       112.2999 
 214   0.0000       4.189494       114.0019 
 215   0.0000       4.196317       114.1876 
 216   0.0000       4.198224       114.2395 
 217   0.0000       4.236070       115.2693 
 218   0.0000       4.268832       116.1608 
 219   0.0000       4.301258       117.0432 
 220   0.0000       4.335937       117.9869 
 221   0.0000       4.350884       118.3936 
 222   0.0000       4.403324       119.8205 
 223   0.0000       4.421780       120.3227 
 224   0.0000       4.469372       121.6178 
 225   0.0000       4.505286       122.5951 
 226   0.0000       4.552214       123.8720 
 227   0.0000       4.624884       125.8495 
 228   0.0000       4.693380       127.7134 
 229   0.0000       4.705356       128.0392 
 230   0.0000       4.730569       128.7253 
 231   0.0000       4.769872       129.7948 
 232   0.0000       4.795493       130.4920 
 233   0.0000       4.803260       130.7033 
 234   0.0000       4.853645       132.0744 
 235   0.0000       4.878025       132.7378 
 236   0.0000       4.885426       132.9392 
 237   0.0000       4.930916       134.1770 
 238   0.0000       4.964178       135.0822 
 239   0.0000       4.977931       135.4564 
 240   0.0000       5.039749       137.1386 
 241   0.0000       5.067711       137.8994 
 242   0.0000       5.114271       139.1664 
 243   0.0000       5.114936       139.1845 
 244   0.0000       5.170880       140.7068 
 245   0.0000       5.174354       140.8013 
 246   0.0000       5.216828       141.9571 
 247   0.0000       5.227535       142.2485 
 248   0.0000       5.307296       144.4189 
 249   0.0000       5.338246       145.2611 
 250   0.0000       5.373182       146.2117 
 251   0.0000       5.394832       146.8008 
 252   0.0000       5.446334       148.2023 
 253   0.0000       5.463622       148.6727 
 254   0.0000       5.515968       150.0971 
 255   0.0000       5.555569       151.1747 
 256   0.0000       5.612560       152.7255 
 257   0.0000       5.645005       153.6084 
 258   0.0000       5.648453       153.7022 
 259   0.0000       5.752428       156.5315 
 260   0.0000       5.781544       157.3238 
 261   0.0000       5.907843       160.7606 
 262   0.0000       6.053363       164.7204 
 263   0.0000       6.176791       168.0790 
 264   0.0000       6.177218       168.0906 
 265   0.0000       6.227995       169.4723 
 266   0.0000       6.290202       171.1651 
 267   0.0000       6.417135       174.6191 
 268   0.0000       6.634388       180.5309 
 269   0.0000       6.714789       182.7187 
 270   0.0000       6.744577       183.5293 
 271   0.0000       6.799960       185.0363 
 272   0.0000       6.888606       187.4485 
 273   0.0000      17.062568       464.2961 
 274   0.0000      17.622649       479.5367 
 275   0.0000      18.847798       512.8747 
------------------
MOLECULAR ORBITALS
------------------
                      0         1         2         3         4         5   
                 -11.23246 -11.22121 -11.21613  -1.06667  -0.93390  -0.75684
                   2.00000   2.00000   2.00000   2.00000   2.00000   2.00000
                  --------  --------  --------  --------  --------  --------
  0C   1s         0.030637 -0.979170 -0.005526 -0.007341  0.008434  0.001778
  0C   2s         0.000766 -0.004082 -0.000306  0.248615 -0.356662 -0.119639
  0C   3s         0.001640 -0.042471 -0.000470  0.050819 -0.072370 -0.025243
  0C   4s        -0.001292  0.000881  0.018321 -0.020948 -0.096717 -0.119408
  0C   5s         0.003050  0.000568 -0.001360 -0.008520  0.049670 -0.004482
  0C   1pz        0.000000 -0.000000 -0.000000  0.000000 -0.000000  0.000000
  0C   1px        0.000110 -0.000002  0.000037  0.026613  0.014989  0.042172
  0C   1py        0.000109 -0.000045  0.000014  0.019127  0.002265  0.071368
  0C   2pz       -0.000000  0.000000  0.000000  0.000000  0.000000  0.000000
  0C   2px        0.002499 -0.001100 -0.001514  0.035652  0.022075  0.050406
  0C   2py        0.001974 -0.001203 -0.000610  0.022740  0.003866  0.088343
  0C   3pz       -0.000000  0.000000  0.000000  0.000000  0.000000  0.000000
  0C   3px       -0.000962 -0.001471  0.004587 -0.003803  0.033433  0.022062
  0C   3py       -0.002639 -0.002699  0.008406 -0.030943 -0.015520  0.060199
  0C   4pz       -0.000000  0.000000  0.000000  0.000000  0.000000  0.000000
  0C   4px        0.000599  0.000123 -0.000252  0.001388  0.011042  0.000285
  0C   4py        0.000596  0.000039  0.000309  0.000357  0.007352  0.005338
  0C   1dz2      -0.000101  0.000025  0.000063 -0.002523 -0.000499 -0.002502
  0C   1dxz       0.000000 -0.000000  0.000000 -0.000000 -0.000000 -0.000000
  0C   1dyz      -0.000000  0.000000 -0.000000  0.000000  0.000000  0.000000
  0C   1dx2y2     0.000042  0.000007 -0.000078  0.001202  0.000887  0.000045
  0C   1dxy       0.000123  0.000066 -0.000040  0.003892  0.000505  0.007390
  0C   2dz2       0.000531 -0.000426  0.000598 -0.006723  0.000065 -0.006273
  0C   2dxz       0.000000 -0.000000 -0.000000 -0.000000 -0.000000 -0.000000
  0C   2dyz      -0.000000  0.000000  0.000000  0.000000  0.000000  0.000000
  0C   2dx2y2     0.000198 -0.000349  0.001433  0.000209 -0.003898  0.001666
  0C   2dxy      -0.000042 -0.000900 -0.000647  0.004877 -0.005802  0.015926
  0C   3dz2       0.000959 -0.000986  0.000359 -0.001078 -0.002311  0.001322
  0C   3dxz       0.000000 -0.000000 -0.000000 -0.000000 -0.000000 -0.000000
  0C   3dyz       0.000000  0.000000  0.000000 -0.000000  0.000000  0.000000
  0C   3dx2y2     0.002104 -0.000253  0.000769  0.010681  0.007752  0.004320
  0C   3dxy      -0.000250 -0.000407  0.001274 -0.005500 -0.004798  0.008682
  0C   1f0       -0.000000  0.000000  0.000000  0.000000  0.000000  0.000000
  0C   1f+1       0.000114  0.000683 -0.000100 -0.003867  0.004869  0.000900
  0C   1f-1       0.000076 -0.000270  0.000041 -0.000186 -0.000286 -0.001558
  0C   1f+2      -0.000000  0.000000  0.000000  0.000000  0.000000  0.000000
  0C   1f-2       0.000000 -0.000000 -0.000000 -0.000000 -0.000000 -0.000000
  0C   1f+3      -0.000139 -0.000390  0.000006  0.001738 -0.003809  0.000609
  0C   1f-3       0.000265  0.000362  0.000002 -0.002701  0.003677  0.000600
  0C   2f0        0.000000  0.000000 -0.000000 -0.000000 -0.000000 -0.000000
  0C   2f+1       0.000407 -0.001985 -0.000855  0.006111  0.001020  0.001831
  0C   2f-1       0.001135  0.000624 -0.000366  0.002711  0.006638 -0.004647
  0C   2f+2       0.000000  0.000000  0.000000  0.000000  0.000000  0.000000
  0C   2f-2       0.000000 -0.000000  0.000000  0.000000 -0.000000 -0.000000
  0C   2f+3       0.000192  0.001154 -0.000734  0.002283  0.003041 -0.001799
  0C   2f-3      -0.000558 -0.000271  0.000542  0.000448 -0.000272  0.001956
  1C   1s         0.977521  0.029908  0.054316 -0.011985 -0.002276 -0.004601
  1C   2s         0.003751 -0.000585 -0.000499  0.356611  0.062381  0.283227
  1C   3s         0.042429  0.000823  0.001207  0.071596  0.012757  0.057651
  1C   4s         0.010396 -0.001631  0.038785  0.091188 -0.097287  0.266662
  1C   5s         0.001540  0.003758  0.005297  0.002576 -0.052185  0.043270
  1C   1pz       -0.000000 -0.000000 -0.000000  0.000000  0.000000  0.000000
  1C   1px       -0.000573  0.000141 -0.000426  0.026030  0.107682 -0.036780
  1C   1py        0.000126  0.000143  0.000108 -0.026971  0.022472  0.073217
  1C   2pz       -0.000000  0.000000  0.000000 -0.000000  0.000000 -0.000000
  1C   2px        0.004255  0.002361  0.003012  0.015773  0.112068 -0.042263
  1C   2py       -0.001310 -0.000129 -0.001094 -0.022822  0.034762  0.099171
  1C   3pz       -0.000000  0.000000 -0.000000 -0.000000  0.000000 -0.000000
  1C   3px        0.010108 -0.009402  0.026476 -0.059925  0.001316 -0.017923
  1C   3py       -0.010200  0.003105  0.000231  0.000661  0.043276  0.067934
  1C   4pz       -0.000000  0.000000 -0.000000 -0.000000  0.000000 -0.000000
  1C   4px        0.001554  0.000611  0.000623  0.003391  0.009168  0.007792
  1C   4py        0.000312  0.000318 -0.000881 -0.002424  0.011644 -0.005164
  1C   1dz2      -0.000864 -0.000006 -0.000140 -0.011333 -0.001466 -0.006992
  1C   1dxz       0.000000  0.000000 -0.000000  0.000000 -0.000000  0.000000
  1C   1dyz       0.000000 -0.000000 -0.000000 -0.000000 -0.000000 -0.000000
  1C   1dx2y2     0.000247  0.000050  0.000163  0.005820  0.004936 -0.003733
  1C   1dxy      -0.000143 -0.000047 -0.000130 -0.000053 -0.008513 -0.001684
  1C   2dz2       0.000776 -0.000323 -0.002074 -0.016699  0.001623 -0.017633
  1C   2dxz      -0.000000 -0.000000  0.000000 -0.000000 -0.000000 -0.000000
  1C   2dyz      -0.000000 -0.000000  0.000000  0.000000 -0.000000  0.000000
  1C   2dx2y2     0.001439  0.000902  0.003991 -0.007556 -0.004922 -0.008730
  1C   2dxy      -0.001960  0.000747 -0.000940 -0.010221 -0.013866 -0.013533
  1C   3dz2      -0.000512 -0.000832 -0.000561  0.000169  0.007365 -0.011018
  1C   3dxz       0.000000  0.000000  0.000000 -0.000000 -0.000000 -0.000000
  1C   3dyz       0.000000 -0.000000  0.000000 -0.000000 -0.000000 -0.000000
  1C   3dx2y2     0.008853 -0.001944  0.000223  0.033555  0.024311 -0.019482
  1C   3dxy       0.002675  0.004711 -0.011356  0.049737  0.017443 -0.027874
  1C   1f0        0.000000 -0.000000 -0.000000 -0.000000 -0.000000 -0.000000
  1C   1f+1      -0.000127  0.000053 -0.000196 -0.000354 -0.002128  0.000587
  1C   1f-1      -0.000090  0.000136  0.000065  0.000669 -0.000688 -0.000856
  1C   1f+2       0.000000 -0.000000  0.000000 -0.000000 -0.000000 -0.000000
  1C   1f-2       0.000000 -0.000000  0.000000  0.000000  0.000000  0.000000
  1C   1f+3      -0.000630 -0.000083 -0.000290 -0.005527 -0.002018 -0.003023
  1C   1f-3       0.000636  0.000149  0.000244  0.006371 -0.000044  0.003699
  1C   2f0        0.000000 -0.000000  0.000000  0.000000 -0.000000  0.000000
  1C   2f+1       0.000242  0.000999 -0.000671  0.002469  0.002998 -0.000239
  1C   2f-1       0.000449 -0.000320 -0.000088 -0.001699 -0.000231 -0.003033
  1C   2f+2       0.000000 -0.000000  0.000000  0.000000  0.000000 -0.000000
  1C   2f-2      -0.000000  0.000000 -0.000000  0.000000  0.000000  0.000000
  1C   2f+3       0.002415 -0.002567 -0.001530  0.002147  0.001402 -0.009968
  1C   2f-3      -0.002115  0.001822  0.001506  0.003626 -0.003619  0.012424
  2C   1s         0.054257  0.006883 -0.978022 -0.009904 -0.007831  0.003228
  2C   2s         0.000950 -0.000298 -0.003882  0.272914  0.297984 -0.218453
  2C   3s         0.003587  0.000092 -0.042488  0.055049  0.060228 -0.045367
  2C   4s        -0.028837  0.006631 -0.030645  0.170127  0.225551 -0.266897
  2C   5s        -0.005236 -0.003964 -0.002550 -0.016376  0.005610 -0.055094
  2C   1pz       -0.000000  0.000000  0.000000  0.000000  0.000000  0.000000
  2C   1px       -0.000348 -0.000011 -0.000544 -0.055579 -0.020333 -0.090619
  2C   1py        0.000073  0.000010  0.000143  0.010267  0.015682  0.050993
  2C   2pz        0.000000  0.000000 -0.000000  0.000000 -0.000000  0.000000
  2C   2px        0.001396  0.001788  0.006025 -0.044014 -0.014297 -0.100165
  2C   2py       -0.000544 -0.000728 -0.001425  0.006072  0.015845  0.063538
  2C   3pz        0.000000 -0.000000 -0.000000  0.000000 -0.000000  0.000000
  2C   3px        0.010820 -0.005564  0.021671 -0.042163 -0.024845 -0.067088
  2C   3py       -0.002068  0.006171 -0.005096 -0.000559  0.012239  0.022165
  2C   4pz        0.000000 -0.000000 -0.000000  0.000000 -0.000000  0.000000
  2C   4px        0.001102  0.000294  0.001354 -0.001560  0.000207  0.004189
  2C   4py       -0.000618 -0.000063  0.000296 -0.000774 -0.002802  0.002611
  2C   1dz2       0.000055 -0.000003  0.000932 -0.008468 -0.008668  0.005259
  2C   1dxz       0.000000 -0.000000  0.000000  0.000000 -0.000000  0.000000
  2C   1dyz       0.000000 -0.000000 -0.000000  0.000000 -0.000000 -0.000000
  2C   1dx2y2    -0.000173 -0.000040 -0.000252  0.005964  0.003184  0.005887
  2C   1dxy       0.000098 -0.000013  0.000111 -0.002490 -0.002661 -0.004013
  2C   2dz2       0.002295 -0.000609 -0.000801 -0.013014 -0.017397  0.016281
  2C   2dxz      -0.000000 -0.000000  0.000000 -0.000000 -0.000000 -0.000000
  2C   2dyz       0.000000  0.000000  0.000000 -0.000000  0.000000  0.000000
  2C   2dx2y2    -0.002543 -0.001213 -0.002435 -0.004981  0.001579  0.006314
  2C   2dxy       0.000026  0.001841  0.002361 -0.009089 -0.003592 -0.006093
  2C   3dz2       0.000665  0.000685 -0.000031  0.004345 -0.003560  0.010402
  2C   3dxz       0.000000 -0.000000 -0.000000 -0.000000 -0.000000 -0.000000
  2C   3dyz       0.000000 -0.000000 -0.000000  0.000000  0.000000  0.000000
  2C   3dx2y2    -0.000823  0.003333 -0.007484  0.025009  0.020150  0.000152
  2C   3dxy       0.003834  0.002387 -0.001277  0.015286  0.016381 -0.026610
  2C   1f0        0.000000  0.000000  0.000000 -0.000000 -0.000000 -0.000000
  2C   1f+1      -0.000203  0.000010 -0.000058  0.001180  0.000657  0.001125
  2C   1f-1       0.000060  0.000033  0.000016 -0.000049 -0.000306 -0.000972
  2C   1f+2       0.000000  0.000000 -0.000000 -0.000000 -0.000000  0.000000
  2C   1f-2       0.000000  0.000000  0.000000  0.000000  0.000000  0.000000
  2C   1f+3      -0.000279  0.000042 -0.000768  0.004334  0.004056 -0.002796
  2C   1f-3       0.000170  0.000014  0.000730 -0.003680 -0.004814  0.000018
  2C   2f0       -0.000000  0.000000  0.000000 -0.000000  0.000000 -0.000000
  2C   2f+1      -0.000245  0.000457 -0.000209 -0.001793 -0.001183  0.002615
  2C   2f-1       0.000018 -0.000473  0.000008  0.001110 -0.000750  0.000142
  2C   2f+2       0.000000  0.000000  0.000000  0.000000  0.000000  0.000000
  2C   2f-2      -0.000000 -0.000000  0.000000  0.000000  0.000000 -0.000000
  2C   2f+3      -0.000938 -0.001106  0.001683 -0.003444  0.004903 -0.014268
  2C   2f-3       0.000599  0.001360 -0.001326 -0.004576 -0.005576  0.007806
  3H   1s        -0.000004 -0.000142  0.000020  0.034325 -0.068462 -0.034091
  3H   2s         0.000359 -0.003228 -0.002485  0.052703 -0.085701 -0.036661
  3H   3s        -0.004959  0.000010  0.001159 -0.010497 -0.015336  0.000593
  3H   4s         0.000139  0.000137 -0.000157  0.001951  0.003807 -0.000148
  3H   1pz       -0.000032 -0.000193  0.000042 -0.002881  0.005848  0.002924
  3H   1px       -0.000012  0.000170  0.000007  0.002472 -0.004072 -0.001199
  3H   1py        0.000018 -0.000024  0.000010 -0.000009  0.000948  0.001893
  3H   2pz       -0.000373  0.000003  0.000554 -0.001573  0.001954  0.001865
  3H   2px       -0.000100 -0.000076 -0.000621  0.003787 -0.003616  0.001495
  3H   2py       -0.000759 -0.000068  0.000263 -0.000923 -0.003738  0.005010
  3H   3pz        0.000539  0.000014 -0.000103  0.006127 -0.003874 -0.002980
  3H   3px       -0.000634  0.000396  0.000320 -0.003956  0.002608  0.002992
  3H   3py       -0.000220 -0.000125  0.000071 -0.000415 -0.003313  0.001596
  3H   1dz2       0.000086  0.000101 -0.000025  0.000095 -0.000421 -0.000673
  3H   1dxz      -0.000007 -0.000209  0.000052 -0.000805  0.001320  0.000310
  3H   1dyz       0.000068  0.000023 -0.000022 -0.000022  0.000046 -0.000866
  3H   1dx2y2    -0.000063  0.000103 -0.000001  0.000387 -0.000607  0.000133
  3H   1dxy      -0.000078 -0.000040  0.000008  0.000190 -0.000245  0.000710
  3H   2dz2       0.000141  0.000141 -0.000010 -0.002137  0.002267  0.000157
  3H   2dxz      -0.000230 -0.000256  0.000227  0.001179 -0.003789 -0.000477
  3H   2dyz       0.000042  0.000021  0.000046 -0.001470  0.001189 -0.000393
  3H   2dx2y2    -0.000147  0.000073  0.000013 -0.001669  0.000164  0.000495
  3H   2dxy      -0.000311 -0.000175  0.000124 -0.001222 -0.002317  0.000528
  4H   1s        -0.000005 -0.000147  0.000070  0.036358 -0.062695 -0.058048
  4H   2s        -0.000210 -0.004372  0.000896  0.043168 -0.092904 -0.062098
  4H   3s         0.003335 -0.005051  0.006489  0.009444 -0.035384  0.034320
  4H   4s         0.000370  0.000004  0.000564 -0.001506  0.000910  0.004412
  4H   1pz       -0.000000 -0.000000  0.000000  0.000000  0.000000  0.000000
  4H   1px       -0.000022 -0.000071 -0.000023 -0.000715  0.002450  0.002620
  4H   1py        0.000013  0.000235 -0.000006  0.003981 -0.006091 -0.005032
  4H   2pz        0.000000  0.000000  0.000000 -0.000000  0.000000  0.000000
  4H   2px       -0.000337 -0.000396 -0.000578  0.001863  0.000656  0.002076
  4H   2py        0.000502 -0.000609 -0.000340  0.003286 -0.005329 -0.000710
  4H   3pz       -0.000000  0.000000  0.000000  0.000000  0.000000  0.000000
  4H   3px       -0.000698  0.000004 -0.000048 -0.003441 -0.008063 -0.002368
  4H   3py        0.000311 -0.000735  0.000874 -0.004263 -0.003109  0.011518
  4H   1dz2      -0.000009 -0.000108  0.000035 -0.000723  0.000684  0.000601
  4H   1dxz      -0.000000  0.000000 -0.000000 -0.000000  0.000000 -0.000000
  4H   1dyz       0.000000  0.000000  0.000000  0.000000  0.000000  0.000000
  4H   1dx2y2     0.000013 -0.000153  0.000045 -0.000847  0.001007  0.000628
  4H   1dxy      -0.000137 -0.000149 -0.000060  0.000159  0.000436  0.001001
  4H   2dz2       0.000102 -0.000137  0.000016  0.001796 -0.001676 -0.000318
  4H   2dxz      -0.000000 -0.000000 -0.000000  0.000000 -0.000000  0.000000
  4H   2dyz       0.000000  0.000000 -0.000000  0.000000  0.000000  0.000000
  4H   2dx2y2    -0.000166 -0.000146  0.000165  0.002338 -0.002841 -0.000233
  4H   2dxy      -0.000480 -0.000132  0.000156  0.001382 -0.003471 -0.000194
  5H   1s        -0.000004 -0.000142  0.000020  0.034325 -0.068462 -0.034091
  5H   2s         0.000359 -0.003228 -0.002485  0.052703 -0.085701 -0.036661
  5H   3s        -0.004959  0.000010  0.001159 -0.010497 -0.015336  0.000593
  5H   4s         0.000139  0.000137 -0.000157  0.001951  0.003807 -0.000148
  5H   1pz        0.000032  0.000193 -0.000042  0.002881 -0.005848 -0.002924
  5H   1px       -0.000012  0.000170  0.000007  0.002472 -0.004072 -0.001199
  5H   1py        0.000018 -0.000024  0.000010 -0.000009  0.000948  0.001893
  5H   2pz        0.000373 -0.000003 -0.000554  0.001573 -0.001954 -0.001865
  5H   2px       -0.000100 -0.000076 -0.000621  0.003787 -0.003616  0.001495
  5H   2py       -0.000759 -0.000068  0.000263 -0.000923 -0.003738  0.005010
  5H   3pz       -0.000539 -0.000014  0.000103 -0.006127  0.003874  0.002980
  5H   3px       -0.000634  0.000396  0.000320 -0.003956  0.002608  0.002992
  5H   3py       -0.000220 -0.000125  0.000071 -0.000415 -0.003313  0.001596
  5H   1dz2       0.000086  0.000101 -0.000025  0.000095 -0.000421 -0.000673
  5H   1dxz       0.000007  0.000209 -0.000052  0.000805 -0.001320 -0.000310
  5H   1dyz      -0.000068 -0.000023  0.000022  0.000022 -0.000046  0.000866
  5H   1dx2y2    -0.000063  0.000103 -0.000001  0.000387 -0.000607  0.000133
  5H   1dxy      -0.000078 -0.000040  0.000008  0.000190 -0.000245  0.000710
  5H   2dz2       0.000141  0.000141 -0.000010 -0.002137  0.002267  0.000157
  5H   2dxz       0.000230  0.000256 -0.000227 -0.001179  0.003789  0.000477
  5H   2dyz      -0.000042 -0.000021 -0.000046  0.001470 -0.001189  0.000393
  5H   2dx2y2    -0.000147  0.000073  0.000013 -0.001669  0.000164  0.000495
  5H   2dxy      -0.000311 -0.000175  0.000124 -0.001222 -0.002317  0.000528
  6H   1s         0.000260 -0.000171 -0.000063  0.046034  0.009474  0.108288
  6H   2s         0.005115 -0.002104 -0.000897  0.019202  0.002471  0.098805
  6H   3s         0.023356 -0.002564 -0.009608  0.059907  0.040848 -0.098987
  6H   4s         0.000167 -0.000365  0.000502  0.000862 -0.005465 -0.000622
  6H   1pz       -0.000000 -0.000000 -0.000000 -0.000000 -0.000000 -0.000000
  6H   1px       -0.000071 -0.000053 -0.000026  0.001394  0.002017  0.002187
  6H   1py        0.000235  0.000057  0.000051 -0.004259 -0.000345 -0.010065
  6H   2pz        0.000000 -0.000000  0.000000  0.000000  0.000000  0.000000
  6H   2px        0.000408  0.000536  0.000699 -0.003911  0.003738 -0.001292
  6H   2py       -0.000103 -0.000737 -0.000523  0.011225  0.007190  0.002034
  6H   3pz        0.000000  0.000000 -0.000000  0.000000  0.000000  0.000000
  6H   3px        0.002121 -0.001402  0.002825 -0.009722 -0.000552 -0.002181
  6H   3py       -0.003474 -0.000253  0.001891  0.004356  0.000674  0.030609
  6H   1dz2       0.000145 -0.000111 -0.000027 -0.000491  0.000102 -0.001218
  6H   1dxz       0.000000 -0.000000  0.000000 -0.000000 -0.000000 -0.000000
  6H   1dyz      -0.000000  0.000000  0.000000 -0.000000  0.000000  0.000000
  6H   1dx2y2     0.000253 -0.000033  0.000021  0.000385  0.001044 -0.001546
  6H   1dxy       0.000116  0.000039 -0.000057  0.000097 -0.001225 -0.000546
  6H   2dz2       0.000598 -0.000342 -0.000442  0.004157  0.002247 -0.000330
  6H   2dxz       0.000000 -0.000000 -0.000000  0.000000 -0.000000  0.000000
  6H   2dyz      -0.000000 -0.000000  0.000000 -0.000000 -0.000000 -0.000000
  6H   2dx2y2    -0.000038 -0.000136  0.000355  0.003232  0.001151  0.003044
  6H   2dxy      -0.000217  0.000043 -0.000468  0.003034  0.001434  0.000899
  7H   1s         0.000092  0.000052 -0.000251  0.035762  0.046308 -0.091902
  7H   2s         0.001013  0.001513 -0.003790  0.012113  0.032497 -0.094619
  7H   3s         0.006126  0.013883 -0.019634  0.062337  0.050097 -0.022889
  7H   4s        -0.000569  0.000174 -0.000290  0.000583 -0.002828  0.001953
  7H   1pz       -0.000000 -0.000000 -0.000000 -0.000000 -0.000000  0.000000
  7H   1px       -0.000058  0.000003 -0.000096 -0.001991 -0.001280  0.001740
  7H   1py        0.000024  0.000011  0.000259  0.003150  0.004254 -0.008831
  7H   2pz       -0.000000  0.000000  0.000000  0.000000  0.000000  0.000000
  7H   2px        0.000619  0.000598  0.000536  0.005213  0.001154  0.002412
  7H   2py        0.000024 -0.000524 -0.000327 -0.009989 -0.003943 -0.003851
  7H   3pz       -0.000000  0.000000 -0.000000  0.000000  0.000000  0.000000
  7H   3px        0.000712 -0.000425  0.002575 -0.001108 -0.003417 -0.002670
  7H   3py        0.001373  0.002074 -0.002616  0.000617 -0.000147  0.000867
  7H   1dz2       0.000017  0.000052 -0.000122 -0.000213 -0.000415  0.001245
  7H   1dxz       0.000000 -0.000000  0.000000 -0.000000 -0.000000 -0.000000
  7H   1dyz      -0.000000  0.000000  0.000000 -0.000000 -0.000000 -0.000000
  7H   1dx2y2    -0.000019  0.000013 -0.000217  0.000519 -0.000116  0.001531
  7H   1dxy       0.000045  0.000084 -0.000155 -0.000242 -0.000191  0.000990
  7H   2dz2       0.000207  0.000308 -0.000358  0.003287  0.000898  0.002298
  7H   2dxz      -0.000000 -0.000000 -0.000000  0.000000  0.000000  0.000000
  7H   2dyz      -0.000000  0.000000  0.000000  0.000000  0.000000  0.000000
  7H   2dx2y2    -0.000251  0.000102 -0.000111  0.003024  0.003057 -0.001900
  7H   2dxy       0.000436  0.000127  0.000341  0.003317  0.002160 -0.000140
  8H   1s         0.000059  0.000072 -0.000228  0.033362  0.054411 -0.065720
  8H   2s         0.003086 -0.001117 -0.005591  0.028728  0.043242 -0.058792
  8H   3s        -0.010004 -0.006394  0.002665 -0.054699 -0.053459  0.089830
  8H   4s        -0.000143 -0.000028 -0.000716  0.001435 -0.000799 -0.000045
  8H   1pz       -0.000000 -0.000000 -0.000000  0.000000 -0.000000 -0.000000
  8H   1px       -0.000054 -0.000004 -0.000204 -0.002867 -0.004162  0.003145
  8H   1py        0.000005  0.000011 -0.000174 -0.001978 -0.003443  0.005900
  8H   2pz        0.000000  0.000000 -0.000000 -0.000000  0.000000  0.000000
  8H   2px       -0.000064  0.001184  0.000971  0.002462  0.000874 -0.001467
  8H   2py       -0.000862  0.000232  0.000389  0.004936  0.002650  0.006917
  8H   3pz       -0.000000  0.000000  0.000000  0.000000  0.000000  0.000000
  8H   3px        0.002065  0.000633  0.000787  0.011960  0.007140 -0.014003
  8H   3py        0.000735  0.001661 -0.002271  0.017981  0.016906 -0.014829
  8H   1dz2       0.000018  0.000063 -0.000130 -0.000118 -0.000618  0.000820
  8H   1dxz      -0.000000 -0.000000  0.000000 -0.000000 -0.000000 -0.000000
  8H   1dyz      -0.000000 -0.000000  0.000000  0.000000  0.000000  0.000000
  8H   1dx2y2    -0.000038 -0.000072  0.000017  0.000376  0.000608  0.001322
  8H   1dxy       0.000024 -0.000015  0.000257 -0.000229  0.000467 -0.001441
  8H   2dz2       0.000195  0.000219 -0.000337  0.003097  0.001063  0.002269
  8H   2dxz       0.000000 -0.000000  0.000000 -0.000000  0.000000  0.000000
  8H   2dyz      -0.000000 -0.000000  0.000000 -0.000000 -0.000000 -0.000000
  8H   2dx2y2    -0.000489 -0.000073 -0.000257 -0.001675  0.000203  0.000525
  8H   2dxy       0.000119 -0.000047 -0.000193 -0.002780 -0.002825  0.000650
                      6         7         8         9        10        11   
                  -0.64005  -0.58425  -0.56784  -0.52389  -0.49001  -0.36082
                   2.00000   2.00000   2.00000   2.00000   2.00000   2.00000
                  --------  --------  --------  --------  --------  --------
  0C   1s         0.000582  0.000726  0.000000  0.000132  0.000790 -0.000000
  0C   2s        -0.024013 -0.015985  0.000000 -0.014807  0.052799 -0.000000
  0C   3s        -0.003681 -0.002697  0.000000 -0.002137  0.012687 -0.000000
  0C   4s        -0.178205 -0.181591 -0.000000  0.072305 -0.202701  0.000000
  0C   5s        -0.000884 -0.042810 -0.000000  0.033310 -0.006267 -0.000000
  0C   1pz        0.000000 -0.000000 -0.225787  0.000000  0.000000  0.062037
  0C   1px        0.116212  0.039939 -0.000000 -0.172940  0.080609 -0.000000
  0C   1py       -0.031797  0.145003 -0.000000  0.100880  0.128156 -0.000000
  0C   2pz        0.000000 -0.000000 -0.302491 -0.000000  0.000000  0.089219
  0C   2px        0.152368  0.048225 -0.000000 -0.226062  0.103104  0.000000
  0C   2py       -0.046496  0.190062 -0.000000  0.140368  0.168570 -0.000000
  0C   3pz        0.000000 -0.000000 -0.238353 -0.000000  0.000000  0.085057
  0C   3px        0.073819 -0.012066 -0.000000 -0.169771  0.024305  0.000000
  0C   3py       -0.063189  0.138937 -0.000000  0.145579  0.116130  0.000000
  0C   4pz        0.000000 -0.000000 -0.012723 -0.000000  0.000000  0.008813
  0C   4px        0.005283 -0.005489 -0.000000 -0.000197  0.006139 -0.000000
  0C   4py       -0.000312  0.001794 -0.000000  0.007552  0.009429 -0.000000
  0C   1dz2      -0.007451 -0.001079  0.000000  0.013191 -0.002041 -0.000000
  0C   1dxz      -0.000000  0.000000  0.015405 -0.000000 -0.000000 -0.012286
  0C   1dyz      -0.000000  0.000000 -0.005445  0.000000  0.000000 -0.001920
  0C   1dx2y2    -0.000427  0.003189  0.000000  0.012597  0.006691  0.000000
  0C   1dxy       0.002477  0.010848 -0.000000 -0.000474  0.010711 -0.000000
  0C   2dz2      -0.020430 -0.003050  0.000000  0.034301 -0.004634 -0.000000
  0C   2dxz      -0.000000  0.000000  0.034160  0.000000 -0.000000 -0.035485
  0C   2dyz       0.000000 -0.000000 -0.017952 -0.000000  0.000000 -0.003197
  0C   2dx2y2     0.007021  0.015269  0.000000  0.021105  0.019467 -0.000000
  0C   2dxy       0.005648  0.032381 -0.000000 -0.001953  0.031937 -0.000000
  0C   3dz2      -0.008014  0.007032  0.000000  0.027732 -0.002506 -0.000000
  0C   3dxz      -0.000000  0.000000  0.035144  0.000000 -0.000000 -0.005724
  0C   3dyz      -0.000000  0.000000 -0.008888  0.000000 -0.000000  0.018567
  0C   3dx2y2     0.001945 -0.002961 -0.000000  0.006879 -0.007202  0.000000
  0C   3dxy      -0.002045  0.015826 -0.000000  0.012958  0.010449  0.000000
  0C   1f0        0.000000 -0.000000  0.001183 -0.000000  0.000000  0.001776
  0C   1f+1      -0.000311 -0.000759 -0.000000 -0.000182 -0.001442 -0.000000
  0C   1f-1      -0.000291 -0.002446  0.000000  0.000482 -0.002015  0.000000
  0C   1f+2       0.000000  0.000000 -0.001800 -0.000000  0.000000 -0.000218
  0C   1f-2      -0.000000 -0.000000 -0.001090  0.000000 -0.000000 -0.002390
  0C   1f+3      -0.002085  0.001498 -0.000000 -0.002423  0.000365  0.000000
  0C   1f-3      -0.002269 -0.001421  0.000000  0.001782 -0.003021 -0.000000
  0C   2f0       -0.000000  0.000000 -0.000053  0.000000 -0.000000  0.004546
  0C   2f+1       0.006183  0.001820 -0.000000 -0.004075  0.009406 -0.000000
  0C   2f-1      -0.005123 -0.012167 -0.000000  0.003213 -0.009183  0.000000
  0C   2f+2       0.000000 -0.000000 -0.002118 -0.000000  0.000000  0.004274
  0C   2f-2      -0.000000 -0.000000  0.002453 -0.000000 -0.000000 -0.004273
  0C   2f+3      -0.001460 -0.005588 -0.000000 -0.001254 -0.005081  0.000000
  0C   2f-3       0.000972  0.001429 -0.000000  0.002499 -0.001921  0.000000
  1C   1s        -0.000794 -0.000533 -0.000000 -0.000013 -0.000071 -0.000000
  1C   2s         0.069092  0.011406 -0.000000 -0.005170  0.022079 -0.000000
  1C   3s         0.013648 -0.000148 -0.000000  0.000167  0.004238  0.000000
  1C   4s        -0.013525  0.138974  0.000000 -0.098162 -0.070382  0.000000
  1C   5s         0.022616  0.067302  0.000000 -0.099517 -0.028129 -0.000000
  1C   1pz        0.000000 -0.000000 -0.069375  0.000000  0.000000 -0.188747
  1C   1px        0.049064 -0.175012  0.000000  0.123552 -0.039699  0.000000
  1C   1py       -0.142633 -0.017937 -0.000000 -0.034146 -0.168088 -0.000000
  1C   2pz       -0.000000 -0.000000 -0.096934  0.000000  0.000000 -0.259720
  1C   2px        0.062227 -0.205021  0.000000  0.134513 -0.040905 -0.000000
  1C   2py       -0.188087 -0.023164  0.000000 -0.042977 -0.223091  0.000000
  1C   3pz       -0.000000  0.000000 -0.032555  0.000000 -0.000000 -0.186016
  1C   3px       -0.032104 -0.078363 -0.000000  0.129277 -0.091874  0.000000
  1C   3py       -0.106370 -0.010587 -0.000000 -0.049031 -0.250591  0.000000
  1C   4pz       -0.000000  0.000000  0.000383  0.000000 -0.000000 -0.020795
  1C   4px        0.007504 -0.006569 -0.000000 -0.004316  0.000468 -0.000000
  1C   4py       -0.002573 -0.017958 -0.000000  0.015480  0.000156  0.000000
  1C   1dz2      -0.001870 -0.000174  0.000000  0.000447 -0.000465  0.000000
  1C   1dxz       0.000000 -0.000000  0.002807 -0.000000  0.000000 -0.015630
  1C   1dyz      -0.000000  0.000000  0.004634  0.000000 -0.000000  0.002446
  1C   1dx2y2     0.004507 -0.007785 -0.000000  0.013664  0.013428  0.000000
  1C   1dxy      -0.000932  0.004622 -0.000000 -0.008082  0.016521  0.000000
  1C   2dz2      -0.000093 -0.006304 -0.000000  0.005944  0.004016  0.000000
  1C   2dxz      -0.000000 -0.000000  0.005694  0.000000 -0.000000 -0.033767
  1C   2dyz      -0.000000 -0.000000  0.010594 -0.000000  0.000000  0.004943
  1C   2dx2y2     0.010395 -0.004928 -0.000000  0.014475  0.033260 -0.000000
  1C   2dxy       0.003385  0.002792 -0.000000 -0.013024  0.034668  0.000000
  1C   3dz2      -0.006218 -0.006937 -0.000000  0.003613  0.000171  0.000000
  1C   3dxz      -0.000000  0.000000 -0.001299  0.000000 -0.000000  0.012354
  1C   3dyz      -0.000000  0.000000 -0.002604  0.000000 -0.000000  0.007829
  1C   3dx2y2     0.024312 -0.033010 -0.000000  0.001577 -0.040753  0.000000
  1C   3dxy       0.025337  0.013309 -0.000000 -0.003858 -0.008696 -0.000000
  1C   1f0       -0.000000  0.000000  0.003220  0.000000 -0.000000  0.004782
  1C   1f+1      -0.000890  0.004265 -0.000000 -0.002410  0.001239 -0.000000
  1C   1f-1       0.003155  0.000894 -0.000000  0.000039  0.003011  0.000000
  1C   1f+2      -0.000000 -0.000000 -0.001654  0.000000 -0.000000 -0.004338
  1C   1f-2       0.000000 -0.000000 -0.002024 -0.000000  0.000000  0.002274
  1C   1f+3      -0.002039  0.004003 -0.000000  0.002011 -0.002353  0.000000
  1C   1f-3       0.003586  0.004178 -0.000000  0.002731  0.001488 -0.000000
  1C   2f0        0.000000 -0.000000 -0.000674 -0.000000  0.000000 -0.001710
  1C   2f+1      -0.001885 -0.002962  0.000000 -0.001402 -0.001231 -0.000000
  1C   2f-1      -0.000250 -0.002362 -0.000000  0.001141  0.006965 -0.000000
  1C   2f+2       0.000000 -0.000000  0.002812  0.000000  0.000000  0.002334
  1C   2f-2       0.000000  0.000000  0.002151  0.000000  0.000000  0.002559
  1C   2f+3       0.004793  0.000264  0.000000  0.003115  0.008303 -0.000000
  1C   2f-3       0.006255  0.003600  0.000000 -0.007868 -0.001256 -0.000000
  2C   1s         0.000043 -0.000681 -0.000000  0.000091 -0.000423 -0.000000
  2C   2s        -0.038454 -0.008245 -0.000000  0.059972  0.012992 -0.000000
  2C   3s        -0.007790 -0.002513 -0.000000  0.013235  0.003506 -0.000000
  2C   4s        -0.086419  0.099814  0.000000 -0.045176  0.073576 -0.000000
  2C   5s        -0.044852 -0.019244  0.000000  0.051522 -0.001649  0.000000
  2C   1pz        0.000000 -0.000000 -0.035918  0.000000  0.000000 -0.205315
  2C   1px       -0.139304  0.117909 -0.000000 -0.131585  0.022078 -0.000000
  2C   1py       -0.105185 -0.152734  0.000000 -0.034700  0.133683 -0.000000
  2C   2pz        0.000000 -0.000000 -0.050208  0.000000 -0.000000 -0.281589
  2C   2px       -0.163023  0.139027  0.000000 -0.161882  0.039134  0.000000
  2C   2py       -0.148699 -0.199505 -0.000000 -0.052814  0.186195  0.000000
  2C   3pz        0.000000 -0.000000 -0.031913 -0.000000  0.000000 -0.213929
  2C   3px       -0.127273  0.074661 -0.000000 -0.075727  0.024256  0.000000
  2C   3py       -0.112488 -0.177709  0.000000 -0.043044  0.225818 -0.000000
  2C   4pz        0.000000 -0.000000 -0.001450 -0.000000  0.000000 -0.022738
  2C   4px        0.001669  0.011061 -0.000000 -0.014858 -0.001474 -0.000000
  2C   4py       -0.002928  0.001681  0.000000  0.002006  0.005332  0.000000
  2C   1dz2       0.000530  0.000760 -0.000000 -0.001331  0.000057  0.000000
  2C   1dxz       0.000000  0.000000  0.003813 -0.000000 -0.000000  0.013232
  2C   1dyz      -0.000000  0.000000 -0.000489  0.000000  0.000000 -0.003449
  2C   1dx2y2     0.005297 -0.013742  0.000000  0.005836  0.009455  0.000000
  2C   1dxy      -0.007265 -0.000440  0.000000 -0.009300  0.016316  0.000000
  2C   2dz2       0.006829 -0.004804 -0.000000  0.002538  0.001828 -0.000000
  2C   2dxz      -0.000000  0.000000  0.007570  0.000000 -0.000000  0.026124
  2C   2dyz       0.000000 -0.000000 -0.003603 -0.000000  0.000000 -0.006695
  2C   2dx2y2    -0.003257 -0.027884 -0.000000  0.007855  0.019894  0.000000
  2C   2dxy      -0.023745 -0.010702 -0.000000 -0.023956  0.040636  0.000000
  2C   3dz2       0.006130  0.003524  0.000000 -0.001710  0.005995 -0.000000
  2C   3dxz      -0.000000  0.000000  0.004823  0.000000 -0.000000  0.014777
  2C   3dyz       0.000000 -0.000000 -0.000289 -0.000000  0.000000 -0.011205
  2C   3dx2y2     0.001389 -0.031733 -0.000000  0.004577 -0.010125 -0.000000
  2C   3dxy      -0.036777 -0.023231 -0.000000 -0.004067 -0.045889  0.000000
  2C   1f0        0.000000 -0.000000  0.001130  0.000000  0.000000  0.004935
  2C   1f+1       0.002608 -0.002353  0.000000  0.002192 -0.000304 -0.000000
  2C   1f-1       0.002121  0.002417  0.000000  0.000352 -0.002166 -0.000000
  2C   1f+2      -0.000000  0.000000 -0.001421  0.000000 -0.000000 -0.004185
  2C   1f-2       0.000000 -0.000000  0.000100 -0.000000 -0.000000  0.002206
  2C   1f+3       0.003698 -0.001033  0.000000  0.002085  0.001643  0.000000
  2C   1f-3       0.002824  0.002931 -0.000000 -0.002347  0.002078  0.000000
  2C   2f0       -0.000000  0.000000  0.000482 -0.000000 -0.000000  0.001169
  2C   2f+1       0.002115 -0.001359  0.000000  0.000117 -0.003015 -0.000000
  2C   2f-1       0.003800  0.005041 -0.000000  0.000188 -0.005539 -0.000000
  2C   2f+2       0.000000 -0.000000  0.002245 -0.000000  0.000000  0.002905
  2C   2f-2       0.000000 -0.000000  0.002105  0.000000  0.000000  0.000751
  2C   2f+3      -0.007019  0.002128 -0.000000  0.000887 -0.001837  0.000000
  2C   2f-3       0.004606 -0.004797  0.000000 -0.002351  0.000118 -0.000000
  3H   1s        -0.054344 -0.008072 -0.133283  0.084055 -0.010656  0.051956
  3H   2s        -0.053031  0.003336 -0.170237  0.104370  0.009054  0.061697
  3H   3s         0.006282 -0.003292  0.057046 -0.010868  0.026296  0.056364
  3H   4s         0.003272 -0.003694  0.008134  0.001213  0.002564  0.010115
  3H   1pz        0.004886  0.000628  0.007124 -0.007235  0.000977 -0.002233
  3H   1px       -0.001490  0.000436 -0.008839  0.001540  0.000912  0.001974
  3H   1py       -0.000013  0.003030  0.001604  0.000850  0.002755 -0.000933
  3H   2pz        0.003109 -0.000517 -0.005308 -0.006110 -0.000010  0.004675
  3H   2px        0.007294  0.006551 -0.004658 -0.008719  0.007711 -0.002848
  3H   2py        0.000016  0.012981  0.002104  0.002633  0.009085 -0.001901
  3H   3pz       -0.005730 -0.003108 -0.024156  0.006928 -0.005771  0.000155
  3H   3px        0.006536 -0.002258  0.014862 -0.013600  0.003644 -0.000121
  3H   3py       -0.001618  0.004204 -0.004039  0.005865  0.000320 -0.005945
  3H   1dz2      -0.001308 -0.000563  0.000061  0.002179 -0.000675  0.000258
  3H   1dxz       0.000596 -0.000526  0.002234 -0.000695 -0.000391 -0.000384
  3H   1dyz       0.000010 -0.001528 -0.000331  0.000047 -0.001227  0.000407
  3H   1dx2y2     0.000325  0.000726 -0.001339 -0.000212  0.000737 -0.000132
  3H   1dxy       0.000113  0.001366  0.000504  0.000012  0.001003 -0.000400
  3H   2dz2      -0.000932 -0.000623  0.002098  0.001343 -0.001215 -0.000979
  3H   2dxz      -0.001616  0.000072 -0.002054  0.001189 -0.000084  0.000973
  3H   2dyz      -0.000161 -0.001322 -0.000051 -0.000461 -0.000906  0.000460
  3H   2dx2y2     0.000797  0.001714  0.000328 -0.001550  0.000096 -0.001184
  3H   2dxy      -0.000666  0.003047 -0.000306 -0.000270  0.001897 -0.000341
  4H   1s         0.040919 -0.089888 -0.000000 -0.122013 -0.067865  0.000000
  4H   2s         0.070190 -0.081355  0.000000 -0.164555 -0.056999 -0.000000
  4H   3s        -0.003000  0.056672 -0.000000  0.029143  0.005505  0.000000
  4H   4s        -0.002854  0.005418 -0.000000  0.000863  0.004376 -0.000000
  4H   1pz        0.000000 -0.000000 -0.004680 -0.000000  0.000000  0.000939
  4H   1px        0.001101  0.004145 -0.000000  0.000858  0.003840  0.000000
  4H   1py        0.004464 -0.006795  0.000000 -0.009612 -0.003530 -0.000000
  4H   2pz        0.000000  0.000000 -0.011998  0.000000  0.000000  0.006349
  4H   2px        0.004309  0.005483 -0.000000 -0.007617  0.007662  0.000000
  4H   2py        0.005309  0.008179  0.000000 -0.002061  0.012492 -0.000000
  4H   3pz        0.000000  0.000000 -0.004125 -0.000000  0.000000  0.008655
  4H   3px        0.003504 -0.001019  0.000000 -0.002776 -0.000322 -0.000000
  4H   3py       -0.005156  0.027242 -0.000000  0.022436  0.017395  0.000000
  4H   1dz2      -0.000626  0.000555 -0.000000  0.000933  0.000064  0.000000
  4H   1dxz      -0.000000  0.000000  0.000584  0.000000 -0.000000 -0.000356
  4H   1dyz       0.000000 -0.000000 -0.001998  0.000000  0.000000  0.000373
  4H   1dx2y2    -0.001459  0.000510 -0.000000  0.002032 -0.000731  0.000000
  4H   1dxy       0.000778  0.001922 -0.000000 -0.000070  0.002130  0.000000
  4H   2dz2      -0.000422 -0.001048  0.000000 -0.000575 -0.001022 -0.000000
  4H   2dxz       0.000000 -0.000000  0.000090 -0.000000  0.000000 -0.002086
  4H   2dyz       0.000000  0.000000 -0.001914  0.000000  0.000000  0.000803
  4H   2dx2y2     0.001115 -0.001311  0.000000 -0.001874 -0.001657  0.000000
  4H   2dxy       0.001870  0.000657  0.000000 -0.002059  0.001949  0.000000
  5H   1s        -0.054344 -0.008072  0.133283  0.084055 -0.010656 -0.051956
  5H   2s        -0.053031  0.003336  0.170237  0.104370  0.009054 -0.061697
  5H   3s         0.006282 -0.003292 -0.057046 -0.010868  0.026296 -0.056364
  5H   4s         0.003272 -0.003694 -0.008134  0.001213  0.002564 -0.010115
  5H   1pz       -0.004886 -0.000628  0.007124  0.007235 -0.000977 -0.002233
  5H   1px       -0.001490  0.000436  0.008839  0.001540  0.000912 -0.001974
  5H   1py       -0.000013  0.003030 -0.001604  0.000850  0.002755  0.000933
  5H   2pz       -0.003109  0.000517 -0.005308  0.006110  0.000010  0.004675
  5H   2px        0.007294  0.006551  0.004658 -0.008719  0.007711  0.002848
  5H   2py        0.000016  0.012981 -0.002104  0.002633  0.009085  0.001901
  5H   3pz        0.005730  0.003108 -0.024156 -0.006928  0.005771  0.000155
  5H   3px        0.006536 -0.002258 -0.014862 -0.013600  0.003644  0.000121
  5H   3py       -0.001618  0.004204  0.004039  0.005865  0.000320  0.005945
  5H   1dz2      -0.001308 -0.000563 -0.000061  0.002179 -0.000675 -0.000258
  5H   1dxz      -0.000596  0.000526  0.002234  0.000695  0.000391 -0.000384
  5H   1dyz      -0.000010  0.001528 -0.000331 -0.000047  0.001227  0.000407
  5H   1dx2y2     0.000325  0.000726  0.001339 -0.000212  0.000737  0.000132
  5H   1dxy       0.000113  0.001366 -0.000504  0.000012  0.001003  0.000400
  5H   2dz2      -0.000932 -0.000623 -0.002098  0.001343 -0.001215  0.000979
  5H   2dxz       0.001616 -0.000072 -0.002054 -0.001189  0.000084  0.000973
  5H   2dyz       0.000161  0.001322 -0.000051  0.000461  0.000906  0.000460
  5H   2dx2y2     0.000797  0.001714 -0.000328 -0.001550  0.000096  0.001184
  5H   2dxy      -0.000666  0.003047  0.000306 -0.000270  0.001897  0.000341
  6H   1s        -0.080113  0.023764 -0.000000 -0.051250 -0.120180 -0.000000
  6H   2s        -0.102333  0.023289 -0.000000 -0.064566 -0.138287  0.000000
  6H   3s         0.015019 -0.057663 -0.000000  0.030953 -0.069247  0.000000
  6H   4s         0.000335  0.008470  0.000000 -0.010612 -0.007082 -0.000000
  6H   1pz       -0.000000  0.000000 -0.001510  0.000000 -0.000000 -0.004535
  6H   1px       -0.001878 -0.003575  0.000000  0.000139 -0.003387 -0.000000
  6H   1py        0.007420 -0.002803  0.000000  0.004292  0.008369  0.000000
  6H   2pz        0.000000 -0.000000 -0.003826  0.000000  0.000000 -0.013671
  6H   2px       -0.004189 -0.010658 -0.000000  0.003932 -0.003925  0.000000
  6H   2py       -0.001370 -0.002331  0.000000  0.004436 -0.006177 -0.000000
  6H   3pz        0.000000 -0.000000  0.002028 -0.000000  0.000000 -0.007689
  6H   3px       -0.002399 -0.016455 -0.000000 -0.004194  0.002192  0.000000
  6H   3py       -0.009031  0.007445  0.000000 -0.015973 -0.013919  0.000000
  6H   1dz2       0.000756 -0.000098  0.000000  0.000428  0.000337  0.000000
  6H   1dxz      -0.000000  0.000000  0.000015  0.000000 -0.000000 -0.000932
  6H   1dyz       0.000000  0.000000  0.000779 -0.000000  0.000000  0.001856
  6H   1dx2y2     0.001375 -0.001855  0.000000  0.001095  0.001238 -0.000000
  6H   1dxy       0.001097  0.002683  0.000000  0.000011  0.001572 -0.000000
  6H   2dz2       0.000323 -0.000274 -0.000000  0.001578 -0.000451 -0.000000
  6H   2dxz       0.000000 -0.000000 -0.000891 -0.000000  0.000000 -0.001592
  6H   2dyz      -0.000000  0.000000  0.000240 -0.000000 -0.000000  0.001879
  6H   2dx2y2    -0.003911 -0.000765  0.000000  0.000382 -0.002673  0.000000
  6H   2dxy       0.000020  0.000122  0.000000  0.000537  0.000261 -0.000000
  7H   1s         0.028402  0.122796 -0.000000  0.008019 -0.099036 -0.000000
[...]
      f-2     :     0.004926
      f+3     :     0.053624
      f-3     :     0.053769
  3 H s       :     0.643709  s :     0.643709
      pz      :     0.128566  p :     0.310136
      px      :     0.100035
      py      :     0.081534
      dz2     :     0.077714  d :     0.225154
      dxz     :     0.047511
      dyz     :     0.039630
      dx2y2   :     0.021655
      dxy     :     0.038644
  4 H s       :     0.639322  s :     0.639322
      pz      :     0.084937  p :     0.314527
      px      :     0.094255
      py      :     0.135336
      dz2     :     0.016263  d :     0.231085
      dxz     :     0.026411
      dyz     :     0.063380
      dx2y2   :     0.051419
      dxy     :     0.073612
  5 H s       :     0.643709  s :     0.643709
      pz      :     0.128566  p :     0.310136
      px      :     0.100035
      py      :     0.081534
      dz2     :     0.077714  d :     0.225154
      dxz     :     0.047511
      dyz     :     0.039630
      dx2y2   :     0.021655
      dxy     :     0.038644
  6 H s       :     0.678644  s :     0.678644
      pz      :     0.082444  p :     0.302095
      px      :     0.082283
      py      :     0.137369
      dz2     :     0.022884  d :     0.213676
      dxz     :     0.014970
      dyz     :     0.048592
      dx2y2   :     0.051918
      dxy     :     0.075313
  7 H s       :     0.685121  s :     0.685121
      pz      :     0.089426  p :     0.323743
      px      :     0.080918
      py      :     0.153400
      dz2     :     0.024315  d :     0.216617
      dxz     :     0.012737
      dyz     :     0.048938
      dx2y2   :     0.057147
      dxy     :     0.073480
  8 H s       :     0.693340  s :     0.693340
      pz      :     0.093404  p :     0.324017
      px      :     0.107410
      py      :     0.123203
      dz2     :     0.023631  d :     0.214929
      dxz     :     0.043068
      dyz     :     0.019665
      dx2y2   :     0.085674
      dxy     :     0.042891


                      *****************************
                      * MAYER POPULATION ANALYSIS *
                      *****************************

  NA   - Mulliken gross atomic population
  ZA   - Total nuclear charge
  QA   - Mulliken gross atomic charge
  VA   - Mayer's total valence
  BVA  - Mayer's bonded valence
  FA   - Mayer's free valence

  ATOM       NA         ZA         QA         VA         BVA        FA
  0 C      6.6907     6.0000    -0.6907     3.7151     3.7151     0.0000
  1 C      6.2351     6.0000    -0.2351     3.2469     3.2469     0.0000
  2 C      7.0603     6.0000    -1.0603     3.2414     3.2414     0.0000
  3 H      0.7100     1.0000     0.2900     0.9818     0.9818    -0.0000
  4 H      0.7165     1.0000     0.2835     1.0290     1.0290    -0.0000
  5 H      0.7100     1.0000     0.2900     0.9818     0.9818    -0.0000
  6 H      0.6611     1.0000     0.3389     0.9459     0.9459     0.0000
  7 H      0.7359     1.0000     0.2641     1.0823     1.0823     0.0000
  8 H      0.4802     1.0000     0.5198     0.6637     0.6637    -0.0000

  Mayer bond orders larger than 0.100000
B(  0-C ,  1-C ) :   0.8748 B(  0-C ,  3-H ) :   0.9375 B(  0-C ,  4-H ) :   0.9331 
B(  0-C ,  5-H ) :   0.9375 B(  1-C ,  2-C ) :   1.5167 B(  1-C ,  6-H ) :   0.8952 
B(  2-C ,  7-H ) :   1.0473 B(  2-C ,  8-H ) :   0.6474 

-------
TIMINGS
-------

Total SCF time: 0 days 0 hours 0 min 44 sec 

Total time                  ....      44.264 sec
Sum of individual times     ....      43.747 sec  ( 98.8%)

Fock matrix formation       ....      43.248 sec  ( 97.7%)
Diagonalization             ....       0.126 sec  (  0.3%)
Density matrix formation    ....       0.008 sec  (  0.0%)
Population analysis         ....       0.024 sec  (  0.1%)
Initial guess               ....       0.099 sec  (  0.2%)
Orbital Transformation      ....       0.000 sec  (  0.0%)
Orbital Orthonormalization  ....       0.000 sec  (  0.0%)
DIIS solution               ....       0.065 sec  (  0.1%)
SOSCF solution              ....       0.118 sec  (  0.3%)

Maximum memory used throughout the entire SCF-calculation: 232.6 MB


           ************************************************************
           *        Program running with 8 parallel MPI-processes     *
           *              working on a common directory               *
           ************************************************************


------------------------------------------------------------------------------- 
                              ORCA-MATRIX DRIVEN CI                            
------------------------------------------------------------------------------- 

--------------------------------
AUTOMATIC CHOICE OF INCORE LEVEL
--------------------------------

Memory available                           ...  32000.00 MB
Memory needed for S+T                      ...     71.78 MB
Memory needed for J+K                      ...    143.75 MB
Memory needed for DIIS                     ...   1004.99 MB
Memory needed for 3-ext                    ...   1263.41 MB
Memory needed for 4-ext                    ...  18600.21 MB
Memory needed for triples                  ...      0.00 MB
 -> Final InCoreLevel    ... 5

Wavefunction type
-----------------
Correlation treatment                      ...      CCSD     
Single excitations                         ... ON
Orbital optimization                       ... OFF
Calculation of Z vector                    ... OFF
Calculation of Brueckner orbitals          ... OFF
Perturbative triple excitations            ... OFF
Calculation of F12 correction              ... OFF
Frozen core treatment                      ... chemical core (6 el)
Reference Wavefunction                     ... RHF
  Internal Orbitals:     3 ...   11 (  9 MO's/ 18 electrons)
  Virtual  Orbitals:    12 ...  275 (264 MO's              )
Number of AO's                             ...    276
Number of electrons                        ...     24
Number of correlated electrons             ...     18

Algorithmic settings
--------------------
Integral transformation                    ... AO direct full transformation
K(C) Formation                             ... FULL-MO TRAFO
Maximum number of iterations               ...       200
Convergence tolerance (max. residuum)      ... 1.000e-05
Level shift for amplitude update           ... 2.000e-01
Maximum number of DIIS vectors             ...         7
DIIS turned on at iteration                ...         0
Damping before turning on DIIS             ...     0.500
Damping after turning on DIIS              ...     0.000
Pair specific amplitude update             ... OFF
Natural orbital iterations                 ... OFF
Perturbative natural orbital generation    ... OFF
Printlevel                                 ... 2

Memory handling:
----------------
Maximum memory for working arrays          ...  32000 MB
Data storage in matrix containers          ... UNCOMPRESSED
Data type for integral storage             ... DOUBLE
In-Core Storage of quantities:
   Amplitudes+Sigma Vector      ... YES
   J+K operators                ... YES
   DIIS vectors                 ... YES
   3-external integrals         ... YES
   4-external integrals         ... YES


Initializing the integral package          ... done
Warning: reference  - re-canonicalizations have been set to INT 1 VIRT 1

--------------------------
CLOSED-SHELL FOCK OPERATOR
--------------------------

Restoring SHARK [2] ... ok
Recanonicalizing the internal orbitals
Recanonicalizing the virtual orbitals
Time needed for Fock operator              ...            5.235 sec
Reference energy                           ...   -117.117602041

WARNING: NRootsCISNAT (0) is lower than NRoots (10).
         I will take NRootsCISNAT = 10.

-------------------
RHF CIS CALCULATION
-------------------

Number of roots to be optimized            ... 10
Number of amplitudes to be optimized       ... 2376

Building the initial guess                 ... done
Iter    Delta-E          Residual
-------------------------------------------------------
  0   0.356425531261   0.012572041716 
  1   0.010503060706   0.000765981124 
  2   0.002529882170   0.001006291252 
  3   0.000942081857   0.000100650053 
  4   0.000383731987   0.000165438756 
  5   0.000162897594   0.000050731407 
  6   0.000106969686   0.000077348534 
  7   0.000096197944   0.000051170451 
  8   0.000087796793   0.000075606579 
  9   0.000082566143   0.000054446145 
 10   0.000077153356   0.000073457549 
 11   0.000072999427   0.000054819935 
 12   0.000069347354   0.000073223175 
 13   0.000065266085   0.000053158898 
 14   0.000063044918   0.000077662498 
 15   0.000060016705   0.000051365521 
 16   0.000057898134   0.000076304915 
 17   0.000056309612   0.000050045652 
 18   0.000053137887   0.000067878475 
 19   0.000052573286   0.000055039260 
 20   0.000049069429   0.000062024270 
 21   0.000048599215   0.000061410264 
 22   0.000046406829   0.000057927089 
 23   0.000044685588   0.000055141136 
 24   0.000044303808   0.000055494672 
 25   0.000041382977   0.000042014313 
 26   0.000041478340   0.000055851734 
 27   0.000039280152   0.000035256281 
 28   0.000037658160   0.000048328335 
 29   0.000036767330   0.000034034103 
 30   0.000034891581   0.000042832934 
 31   0.000034449430   0.000036663829 
 32   0.000032586742   0.000040789783 
 33   0.000032012725   0.000039420190 
 34   0.000030804294   0.000041024998 
 35   0.000029616793   0.000037471068 
 36   0.000029433487   0.000041324179 
 37   0.000027707939   0.000030419658 
 38   0.000028062451   0.000040336889 
 39   0.000026359367   0.000022819951 
 40   0.000026251004   0.000037958107 
 41   0.000025093605   0.000019350467 
 42   0.000023999866   0.000035173164 
 43   0.000023585192   0.000021593440 
 44   0.000021638460   0.000031473239 
 45   0.000021733657   0.000027181346 
 46   0.000019763572   0.000027255926 
 47   0.000019592363   0.000029476704 
 48   0.000018612456   0.000024384099 
 49   0.000017572525   0.000024811315 
 50   0.000017818948   0.000025095134 
 51   0.000016242608   0.000017531451 
 52   0.000016823115   0.000026951764 
 53   0.000015434350   0.000012189622 
 54   0.000015415476   0.000028526602 
 55   0.000014548315   0.000011238493 
 56   0.000013607231   0.000027021500 
 57   0.000013369573   0.000013820484 
 58   0.000011831144   0.000021832641 
 59   0.000011983059   0.000017263669 
 60   0.000010524263   0.000015443708 
 61   0.000010515891   0.000018127523 
 62   0.000009780389   0.000011895394 
 63   0.000009213968   0.000015296679 
 64   0.000009300610   0.000013148333 
 65   0.000008336809   0.000011108274 
 66   0.000007877397   0.000012058786 
 67   0.000007471729   0.000010238386 
 68   0.000007093616   0.000011114695 
 69   0.000006737432   0.000009444610 

      *** CONVERGENCE OF RESIDUAL NORM REACHED ***
        --- The CIS iterations have converged ---

-----------
CIS RESULTS
-----------

IROOT=  1:  0.252659 au     6.875 eV   55452.2 cm**-1
   11 ->  12    0.691119 ( 0.831336)
   11 ->  13    0.080426 (-0.283595)
   11 ->  19    0.033264 (-0.182385)
   11 ->  23    0.046331 (-0.215246)
   11 ->  24    0.103755 (-0.322110)
IROOT=  2:  0.273650 au     7.446 eV   60059.2 cm**-1
   11 ->  12    0.010512 (-0.102529)
   11 ->  14    0.754341 (-0.868528)
   11 ->  17    0.013644 ( 0.116809)
   11 ->  21    0.029096 ( 0.170575)
   11 ->  22    0.011173 ( 0.105703)
   11 ->  23    0.048589 (-0.220429)
   11 ->  24    0.012997 ( 0.114003)
   11 ->  26    0.044393 ( 0.210696)
   11 ->  27    0.031941 ( 0.178721)
IROOT=  3:  0.277820 au     7.560 eV   60974.5 cm**-1
   11 ->  15    0.212031 ( 0.460469)
   11 ->  18    0.511007 (-0.714848)
   11 ->  28    0.226750 (-0.476183)
IROOT=  4:  0.282656 au     7.691 eV   62035.9 cm**-1
   11 ->  12    0.081100 ( 0.284781)
   11 ->  13    0.697596 ( 0.835222)
   11 ->  16    0.032125 ( 0.179234)
   11 ->  21    0.079845 ( 0.282568)
   11 ->  23    0.044031 ( 0.209837)
   11 ->  29    0.013838 ( 0.117634)
IROOT=  5:  0.294216 au     8.006 eV   64573.0 cm**-1
   11 ->  15    0.541851 (-0.736105)
   11 ->  18    0.077801 (-0.278929)
   11 ->  20    0.147522 (-0.384087)
   11 ->  25    0.131448 ( 0.362557)
   11 ->  28    0.059953 (-0.244853)
   11 ->  31    0.015410 ( 0.124136)
IROOT=  6:  0.309748 au     8.429 eV   67981.8 cm**-1
   11 ->  12    0.035974 ( 0.189667)
   11 ->  13    0.023516 ( 0.153350)
   11 ->  16    0.752553 (-0.867498)
   11 ->  19    0.034709 ( 0.186303)
   11 ->  27    0.088749 ( 0.297908)
   11 ->  29    0.012962 (-0.113850)
IROOT=  7:  0.315617 au     8.588 eV   69269.8 cm**-1
   11 ->  13    0.012944 ( 0.113774)
   11 ->  14    0.031351 ( 0.177061)
   11 ->  17    0.764219 ( 0.874196)
   11 ->  19    0.037784 (-0.194381)
   11 ->  22    0.068963 ( 0.262608)
   11 ->  26    0.019204 ( 0.138578)
   11 ->  29    0.024859 (-0.157669)
IROOT=  8:  0.325790 au     8.865 eV   71502.7 cm**-1
   11 ->  12    0.039167 (-0.197906)
   11 ->  16    0.035884 (-0.189431)
   11 ->  17    0.031072 (-0.176272)
   11 ->  19    0.580703 (-0.762039)
   11 ->  21    0.024603 (-0.156854)
   11 ->  22    0.012309 ( 0.110944)
   11 ->  23    0.053155 ( 0.230554)
   11 ->  24    0.036107 (-0.190018)
   11 ->  26    0.024706 (-0.157181)
   11 ->  27    0.039231 ( 0.198068)
   11 ->  29    0.061238 ( 0.247464)
   11 ->  33    0.012156 ( 0.110256)
   11 ->  37    0.013067 (-0.114313)
IROOT=  9:  0.333218 au     9.067 eV   73133.0 cm**-1
   11 ->  15    0.142186 (-0.377076)
   11 ->  18    0.133129 (-0.364869)
   11 ->  20    0.653390 ( 0.808325)
   11 ->  28    0.033264 ( 0.182384)
IROOT= 10:  0.344723 au     9.380 eV   75657.9 cm**-1
   10 ->  18    0.154395 (-0.392931)
   10 ->  25    0.017015 ( 0.130440)
   10 ->  28    0.293608 (-0.541856)
   10 ->  31    0.011997 ( 0.109529)
   11 ->  12    0.051106 (-0.226066)
   11 ->  14    0.042611 ( 0.206425)
   11 ->  17    0.016021 (-0.126573)
   11 ->  19    0.012317 (-0.110983)
   11 ->  21    0.078967 ( 0.281010)
   11 ->  23    0.126156 (-0.355184)
   11 ->  24    0.067753 (-0.260293)
   11 ->  34    0.028983 ( 0.170244)

--------------------------------------------------------------------
                UNRELAXED EXCITED STATE DIPOLE MOMENTS
--------------------------------------------------------------------
               E(eV)     DX(au)      DY(au)      DZ(au)      |D|(D)
IROOT=  1:     6.875   -0.560667   -1.689418   -0.000000    4.524458
IROOT=  2:     7.446   -1.038083    1.639439    0.000000    4.932252
IROOT=  3:     7.560   -0.782740    0.704053   -0.000000    2.675985
IROOT=  4:     7.691    0.406202   -0.270174    0.000000    1.240007
IROOT=  5:     8.006    2.531380   -1.253830   -0.000000    7.180286
IROOT=  6:     8.429    1.197743    0.190068   -0.000000    3.082515
IROOT=  7:     8.588    0.554678    2.695679   -0.000000    6.995420
IROOT=  8:     8.865    1.351684    0.912096   -0.000000    4.144743
IROOT=  9:     9.067    1.971193    0.620573   -0.000000    5.252803
IROOT= 10:     9.380    0.277996   -2.186870    0.000000    5.603313
--------------------------------------------------------------------


------------------------------------------
NATURAL ORBITALS FOR STATE    1
------------------------------------------

Making the (pseudo)densities                       ... done

------------------------------------------
NATURAL ORBITALS FOR STATE    2
------------------------------------------

Making the (pseudo)densities                       ... done

------------------------------------------
NATURAL ORBITALS FOR STATE    3
------------------------------------------

Making the (pseudo)densities                       ... done

------------------------------------------
NATURAL ORBITALS FOR STATE    4
------------------------------------------

Making the (pseudo)densities                       ... done

------------------------------------------
NATURAL ORBITALS FOR STATE    5
------------------------------------------

Making the (pseudo)densities                       ... done

------------------------------------------
NATURAL ORBITALS FOR STATE    6
------------------------------------------

Making the (pseudo)densities                       ... done

------------------------------------------
NATURAL ORBITALS FOR STATE    7
------------------------------------------

Making the (pseudo)densities                       ... done

------------------------------------------
NATURAL ORBITALS FOR STATE    8
------------------------------------------

Making the (pseudo)densities                       ... done

------------------------------------------
NATURAL ORBITALS FOR STATE    9
------------------------------------------

Making the (pseudo)densities                       ... done

------------------------------------------
NATURAL ORBITALS FOR STATE   10
------------------------------------------

Making the (pseudo)densities                       ... done

------------------------------------------
STATE AVERAGED NATURAL ORBITALS FOR ACTIVE SPACE SELECTION
------------------------------------------

Solving eigenvalue problem for the occupied space  ... done
Solving eigenvalue problem for the virtual space   ... done
After automatic selection of the active space:
 No of roots active in IP calculation:    5  
 No of roots active in EA calculation:   12  

------------------------------
PARTIAL COULOMB TRANSFORMATION
------------------------------

Transformation type                        ... one-operator
Dimension of the basis                     ...  276
Number of internal MOs                     ...  273 (3-275)
Pair cutoff                                ... 0.000e+00 Eh
Number of AO pairs included in the trafo   ... 38226
Total Number of distinct AO pairs          ... 38226
Memory devoted for trafo                   ... 32000.0 MB 
Max. Number of MO pairs treated together   ... 109723      
Max. Number of MOs treated per batch       ...  397      
Number Format for Storage                  ... Double (8 Byte)
AO-integral source                         ... DIRECT
Integral package used                      ... LIBINT

Starting integral evaluation:
<ss|**>:      3585150 b        0 skpd     1.208 s (  0.000 ms/b)
<sp|**>:      5366160 b        0 skpd     2.561 s (  0.000 ms/b)
<sd|**>:      3770190 b        0 skpd    14.524 s (  0.004 ms/b)
<sf|**>:      1082484 b        0 skpd     7.634 s (  0.007 ms/b)
<pp|**>:      2127960 b        0 skpd    13.589 s (  0.006 ms/b)
<pd|**>:      2895876 b        0 skpd     6.631 s (  0.002 ms/b)
<pf|**>:       832680 b        0 skpd     2.582 s (  0.003 ms/b)
<dd|**>:      1059354 b        0 skpd     3.681 s (  0.003 ms/b)
<df|**>:       582876 b        0 skpd     3.019 s (  0.005 ms/b)
<ff|**>:        97146 b        0 skpd     0.834 s (  0.009 ms/b)
Closing buffer AOJ (10.59 GB; CompressionRatio= 1.00)
Collecting buffer AOJ 
    ... done with AO integral generation
Number of MO pairs included in the trafo   ... 37401
    ... Now sorting integrals
IBATCH = 1 of  1
Closing buffer JAO (10.65 GB; CompressionRatio= 1.00)
Collecting buffer JAO 
TOTAL TIME for half transformation         ...   179.662 sec
AO-integral generation                     ...    17.112 sec
Half transformation                        ...    39.161 sec
J-integral sorting                         ...   122.210 sec

-------------------------- SECOND HALF TRANSFORMATION -------------------------
Formation of (pq|rs)                       ... ok (    18.355 sec)
Integral sorting                           ... -------------------------------------------------------
Primary job  terminated normally, but 1 process returned
a non-zero exit code. Per user-direction, the job has been aborted.
-------------------------------------------------------

ORCA finished by error termination in MDCI
Calling Command: mpirun -np 8  /home/Lib/ORCA_500/orca_mdci_mpi 000021.mdciinp.tmp 000021 
[file orca_tools/qcmsg.cpp, line 458]: 
  .... aborting the run

