
                                        *****************
                                        * O   R   C   A *
                                        *****************

                                            #,                                       
                                            ###                                      
                                            ####                                     
                                            #####                                    
                                            ######                                   
                                           ########,                                 
                                     ,,################,,,,,                         
                               ,,#################################,,                 
                          ,,##########################################,,             
                       ,#########################################, ''#####,          
                    ,#############################################,,   '####,        
                  ,##################################################,,,,####,       
                ,###########''''           ''''###############################       
              ,#####''   ,,,,##########,,,,          '''####'''          '####       
            ,##' ,,,,###########################,,,                        '##       
           ' ,,###''''                  '''############,,,                           
         ,,##''                                '''############,,,,        ,,,,,,###''
      ,#''                                            '''#######################'''  
     '                                                          ''''####''''         
             ,#######,   #######,   ,#######,      ##                                
            ,#'     '#,  ##    ##  ,#'     '#,    #''#        ######   ,####,        
            ##       ##  ##   ,#'  ##            #'  '#       #        #'  '#        
            ##       ##  #######   ##           ,######,      #####,   #    #        
            '#,     ,#'  ##    ##  '#,     ,#' ,#      #,         ##   #,  ,#        
             '#######'   ##     ##  '#######'  #'      '#     #####' # '####'        



                  #######################################################
                  #                        -***-                        #
                  #          Department of theory and spectroscopy      #
                  #    Directorship and core code : Frank Neese         #
                  #        Max Planck Institute fuer Kohlenforschung    #
                  #                Kaiser Wilhelm Platz 1               #
                  #                 D-45470 Muelheim/Ruhr               #
                  #                      Germany                        #
                  #                                                     #
                  #                  All rights reserved                #
                  #                        -***-                        #
                  #######################################################


                         Program Version 5.0.0 -  RELEASE  -
                                (SVN: $Rev: 19529$)
                ($Date: 2021-06-28 11:36:33 +0200 (Mo, 28 Jun 2021) $)


 With contributions from (in alphabetic order):
   Daniel Aravena         : Magnetic Suceptibility
   Michael Atanasov       : Ab Initio Ligand Field Theory (pilot matlab implementation)
   Alexander A. Auer      : GIAO ZORA, VPT2 properties, NMR spectrum
   Ute Becker             : Parallelization
   Giovanni Bistoni       : ED, misc. LED, open-shell LED, HFLD
   Martin Brehm           : Molecular dynamics
   Dmytro Bykov           : SCF Hessian
   Vijay G. Chilkuri      : MRCI spin determinant printing, contributions to CSF-ICE
   Dipayan Datta          : RHF DLPNO-CCSD density
   Achintya Kumar Dutta   : EOM-CC, STEOM-CC
   Dmitry Ganyushin       : Spin-Orbit,Spin-Spin,Magnetic field MRCI
   Miquel Garcia          : C-PCM Hessian, Gaussian charge scheme
   Yang Guo               : DLPNO-NEVPT2, F12-NEVPT2, CIM, IAO-localization
   Andreas Hansen         : Spin unrestricted coupled pair/coupled cluster methods
   Benjamin Helmich-Paris : MC-RPA, TRAH-SCF, COSX integrals
   Lee Huntington         : MR-EOM, pCC
   Robert Izsak           : Overlap fitted RIJCOSX, COSX-SCS-MP3, EOM
   Marcus Kettner         : VPT2
   Christian Kollmar      : KDIIS, OOCD, Brueckner-CCSD(T), CCSD density, CASPT2, CASPT2-K
   Simone Kossmann        : Meta GGA functionals, TD-DFT gradient, OOMP2, MP2 Hessian
   Martin Krupicka        : Initial AUTO-CI
   Lucas Lang             : DCDCAS
   Marvin Lechner         : AUTO-CI (C++ implementation), FIC-MRCC
   Dagmar Lenk            : GEPOL surface, SMD
   Dimitrios Liakos       : Extrapolation schemes; Compound Job, initial MDCI parallelization
   Dimitrios Manganas     : Further ROCIS development; embedding schemes
   Dimitrios Pantazis     : SARC Basis sets
   Anastasios Papadopoulos: AUTO-CI, single reference methods and gradients
   Taras Petrenko         : DFT Hessian,TD-DFT gradient, ASA, ECA, R-Raman, ABS, FL, XAS/XES, NRVS
   Peter Pinski           : DLPNO-MP2, DLPNO-MP2 Gradient
   Christoph Reimann      : Effective Core Potentials
   Marius Retegan         : Local ZFS, SOC
   Christoph Riplinger    : Optimizer, TS searches, QM/MM, DLPNO-CCSD(T), (RO)-DLPNO pert. Triples
   Tobias Risthaus        : Range-separated hybrids, TD-DFT gradient, RPA, STAB
   Michael Roemelt        : Original ROCIS implementation
   Masaaki Saitow         : Open-shell DLPNO-CCSD energy and density
   Barbara Sandhoefer     : DKH picture change effects
   Avijit Sen             : IP-ROCIS
   Kantharuban Sivalingam : CASSCF convergence, NEVPT2, FIC-MRCI
   Bernardo de Souza      : ESD, SOC TD-DFT
   Georgi Stoychev        : AutoAux, RI-MP2 NMR
   Willem Van den Heuvel  : Paramagnetic NMR
   Boris Wezisla          : Elementary symmetry handling
   Frank Wennmohs         : Technical directorship


 We gratefully acknowledge several colleagues who have allowed us to
 interface, adapt or use parts of their codes:
   Stefan Grimme, W. Hujo, H. Kruse, P. Pracht,  : VdW corrections, initial TS optimization,
                  C. Bannwarth, S. Ehlert          DFT functionals, gCP, sTDA/sTD-DF
   Ed Valeev, F. Pavosevic, A. Kumar             : LibInt (2-el integral package), F12 methods
   Garnet Chan, S. Sharma, J. Yang, R. Olivares  : DMRG
   Ulf Ekstrom                                   : XCFun DFT Library
   Mihaly Kallay                                 : mrcc  (arbitrary order and MRCC methods)
   Jiri Pittner, Ondrej Demel                    : Mk-CCSD
   Frank Weinhold                                : gennbo (NPA and NBO analysis)
   Christopher J. Cramer and Donald G. Truhlar   : smd solvation model
   Lars Goerigk                                  : TD-DFT with DH, B97 family of functionals
   V. Asgeirsson, H. Jonsson                     : NEB implementation
   FAccTs GmbH                                   : IRC, NEB, NEB-TS, DLPNO-Multilevel, CI-OPT
                                                   MM, QMMM, 2- and 3-layer-ONIOM, Crystal-QMMM,
                                                   LR-CPCM, SF, NACMEs, symmetry and pop. for TD-DFT,
                                                   nearIR, NL-DFT gradient (VV10), updates on ESD,
                                                   ML-optimized integration grids
   S Lehtola, MJT Oliveira, MAL Marques          : LibXC Library
   Liviu Ungur et al                             : ANISO software


 Your calculation uses the libint2 library for the computation of 2-el integrals
 For citations please refer to: http://libint.valeyev.net

 Your ORCA version has been built with support for libXC version: 5.1.0
 For citations please refer to: https://tddft.org/programs/libxc/

 This ORCA versions uses:
   CBLAS   interface :  Fast vector & matrix operations
   LAPACKE interface :  Fast linear algebra routines
   SCALAPACK package :  Parallel linear algebra routines
   Shared memory     :  Shared parallel matrices
   BLAS/LAPACK       :  OpenBLAS 0.3.15  USE64BITINT DYNAMIC_ARCH NO_AFFINITY Haswell SINGLE_THREADED
        Core in use  :  Haswell
   Copyright (c) 2011-2014, The OpenBLAS Project




***************************************
The coordinates will be read from file: 000012.xyz
***************************************


================================================================================

----- Orbital basis set information -----
Your calculation utilizes the basis: aug-cc-pVTZ 
    H, B-Ne : Obtained from the ccRepo (grant-hill.group.shef.ac.uk/ccrepo) Feb. 2017
              R. A. Kendall, T. H. Dunning, Jr., R. J. Harrison, J. Chem. Phys. 96, 6796 (1992)
         He : Obtained from the ccRepo (grant-hill.group.shef.ac.uk/ccrepo) Feb. 2017
              D. E. Woon, T. H. Dunning, Jr., J. Chem. Phys. 100, 2975 (1994)
  Li-Be, Na : Obtained from the ccRepo (grant-hill.group.shef.ac.uk/ccrepo) Feb. 2017
              B. P. Prascher, D. E. Woon, K. A. Peterson, T. H. Dunning, Jr., A. K. Wilson, Theor. Chem. Acc. 128, 69 (2011)
         Mg : Obtained from the Peterson Research Group Website (tyr0.chem.wsu.edu/~kipeters) Feb. 2017
              B. P. Prascher, D. E. Woon, K. A. Peterson, T. H. Dunning, Jr., A. K. Wilson, Theor. Chem. Acc. 128, 69 (2011)
      Al-Ar : Obtained from the ccRepo (grant-hill.group.shef.ac.uk/ccrepo) Feb. 2017
              D. E. Woon, T. H. Dunning, Jr., J. Chem. Phys. 98, 1358 (1993)
      Sc-Zn : Obtained from the ccRepo (grant-hill.group.shef.ac.uk/ccrepo) Feb. 2017
              N. B. Balabanov, K. A. Peterson, J. Chem. Phys. 123, 064107 (2005)
              N. B. Balabanov, K. A. Peterson, J. Chem. Phys. 125, 074110 (2006)
      Ga-Kr : Obtained from the ccRepo (grant-hill.group.shef.ac.uk/ccrepo) Feb. 2017
              A. K. Wilson, D. E. Woon, K. A. Peterson, T. H. Dunning, Jr., J. Chem. Phys. 110, 7667 (1999)
     Ag, Au : Obtained from the Peterson Research Group Website (tyr0.chem.wsu.edu/~kipeters) Feb. 2017
              K. A. Peterson, C. Puzzarini, Theor. Chem. Acc. 114, 283 (2005)

================================================================================
                                        WARNINGS
                       Please study these warnings very carefully!
================================================================================


WARNING: Post HF methods need fully converged wavefunctions
  ===> : Setting SCFConvForced true
         You can overwrite this default with %scf ConvForced false 


WARNING: MDCI localization with Augmented Hessian Foster-Boys
  ===> : Switching off randomization!

INFO   : the flag for use of the SHARK integral package has been found!

================================================================================
                                       INPUT FILE
================================================================================
NAME = 000012.com
|  1> !STEOM-CCSD aug-cc-pVTZ TightSCF PrintMOs
|  2> 
|  3> *xyzfile 0 1 000012.xyz
|  4> 
|  5> %MaxCore 64000
|  6> %scf
|  7>  MaxIter 150
|  8> end
|  9> 
| 10> %pal nprocs 8
| 11> end
| 12> 
| 13> %mdci
| 14>  nroots 10
| 15>  DoRootwise true
| 16> end
| 17> 
| 18>                          ****END OF INPUT****
================================================================================

                       ****************************
                       * Single Point Calculation *
                       ****************************

---------------------------------
CARTESIAN COORDINATES (ANGSTROEM)
---------------------------------
  O      0.000000    0.000000    0.596896
  O      0.000000    0.000000   -0.596896

----------------------------
CARTESIAN COORDINATES (A.U.)
----------------------------
  NO LB      ZA    FRAG     MASS         X           Y           Z
   0 O     8.0000    0    15.999    0.000000    0.000000    1.127970
   1 O     8.0000    0    15.999    0.000000    0.000000   -1.127970

--------------------------------
INTERNAL COORDINATES (ANGSTROEM)
--------------------------------
 O      0   0   0     0.000000000000     0.00000000     0.00000000
 O      1   0   0     1.193792000000     0.00000000     0.00000000

---------------------------
INTERNAL COORDINATES (A.U.)
---------------------------
 O      0   0   0     0.000000000000     0.00000000     0.00000000
 O      1   0   0     2.255939940866     0.00000000     0.00000000

---------------------
BASIS SET INFORMATION
---------------------
There are 1 groups of distinct atoms

 Group   1 Type O   : 19s6p3d2f contracted to 5s4p3d2f pattern {88111/3111/111/11}

Atom   0O    basis set group =>   1
Atom   1O    basis set group =>   1


           ************************************************************
           *        Program running with 8 parallel MPI-processes     *
           *              working on a common directory               *
           ************************************************************
------------------------------------------------------------------------------
                           ORCA GTO INTEGRAL CALCULATION
------------------------------------------------------------------------------
------------------------------------------------------------------------------
                   ___                                                        
                  /   \      - P O W E R E D   B Y -                         
                 /     \                                                     
                 |  |  |   _    _      __       _____    __    __             
                 |  |  |  | |  | |    /  \     |  _  \  |  |  /  |          
                  \  \/   | |  | |   /    \    | | | |  |  | /  /          
                 / \  \   | |__| |  /  /\  \   | |_| |  |  |/  /          
                |  |  |   |  __  | /  /__\  \  |    /   |      \           
                |  |  |   | |  | | |   __   |  |    \   |  |\   \          
                \     /   | |  | | |  |  |  |  | |\  \  |  | \   \       
                 \___/    |_|  |_| |__|  |__|  |_| \__\ |__|  \__/        
                                                                              
                      - O R C A' S   B I G   F R I E N D -                    
                                      &                                       
                       - I N T E G R A L  F E E D E R -                       
                                                                              
 v1 FN, 2020, v2 2021                                                         
------------------------------------------------------------------------------


Reading SHARK input file 000012.SHARKINP.tmp ... ok
----------------------
SHARK INTEGRAL PACKAGE
----------------------

Number of atoms                             ...      2
Number of basis functions                   ...     92
Number of shells                            ...     28
Maximum angular momentum                    ...      3
Integral batch strategy                     ... SHARK/LIBINT Hybrid
RI-J (if used) integral strategy            ... SPLIT-RIJ (Revised 2003 algorithm where possible)
Printlevel                                  ...      1
Contraction scheme used                     ... SEGMENTED contraction
Coulomb Range Separation                    ... NOT USED
Exchange Range Separation                   ... NOT USED
Finite Nucleus Model                        ... NOT USED
Auxiliary Coulomb fitting basis             ... NOT available
Auxiliary J/K fitting basis                 ... NOT available
Auxiliary Correlation fitting basis         ... NOT available
Auxiliary 'external' fitting basis          ... NOT available
Integral threshold                          ...     2.500000e-11
Primitive cut-off                           ...     2.500000e-12
Primitive pair pre-selection threshold      ...     2.500000e-12

Calculating pre-screening integrals         ... done (  0.7 sec) Dimension = 28
Organizing shell pair data                  ... done (  0.0 sec)
Shell pair information
Total number of shell pairs                 ...       406
Shell pairs after pre-screening             ...       406
Total number of primitive shell pairs       ...      1948
Primitive shell pairs kept                  ...      1727
          la=0 lb=0:     55 shell pairs
          la=1 lb=0:     80 shell pairs
          la=1 lb=1:     36 shell pairs
          la=2 lb=0:     60 shell pairs
          la=2 lb=1:     48 shell pairs
          la=2 lb=2:     21 shell pairs
          la=3 lb=0:     40 shell pairs
          la=3 lb=1:     32 shell pairs
          la=3 lb=2:     24 shell pairs
          la=3 lb=3:     10 shell pairs

Calculating one electron integrals          ... done (  0.0 sec)
Calculating Nuclear repulsion               ... done (  0.0 sec) ENN=     28.369549579156 Eh

SHARK setup successfully completed in   0.8 seconds

Maximum memory used throughout the entire GTOINT-calculation: 15.9 MB


           ************************************************************
           *        Program running with 8 parallel MPI-processes     *
           *              working on a common directory               *
           ************************************************************
-------------------------------------------------------------------------------
                                 ORCA SCF
-------------------------------------------------------------------------------

------------
SCF SETTINGS
------------
Hamiltonian:
 Ab initio Hamiltonian  Method          .... Hartree-Fock(GTOs)


General Settings:
 Integral files         IntName         .... 000012
 Hartree-Fock type      HFTyp           .... RHF
 Total Charge           Charge          ....    0
 Multiplicity           Mult            ....    1
 Number of Electrons    NEL             ....   16
 Basis Dimension        Dim             ....   92
 Nuclear Repulsion      ENuc            ....     28.3695495792 Eh

Convergence Acceleration:
 DIIS                   CNVDIIS         .... on
   Start iteration      DIISMaxIt       ....    12
   Startup error        DIISStart       ....  0.200000
   # of expansion vecs  DIISMaxEq       ....     5
   Bias factor          DIISBfac        ....   1.050
   Max. coefficient     DIISMaxC        ....  10.000
 Trust-Rad. Augm. Hess. CNVTRAH         .... auto
   Auto Start mean grad. ratio tolernc. ....  1.125000
   Auto Start start iteration           ....    20
   Auto Start num. interpolation iter.  ....    10
   Max. Number of Micro iterations      ....    16
   Max. Number of Macro iterations      .... Maxiter - #DIIS iter
   Number of Davidson start vectors     ....     2
   Converg. threshold I  (grad. norm)   ....   1.000e-05
   Converg. threshold II (energy diff.) ....   1.000e-08
   Grad. Scal. Fac. for Micro threshold ....   0.100
   Minimum threshold for Micro iter.    ....   0.010
   NR start threshold (gradient norm)   ....   0.001
   Initial trust radius                 ....   0.400
   Minimum AH scaling param. (alpha)    ....   1.000
   Maximum AH scaling param. (alpha)    .... 1000.000
   Orbital update algorithm             .... Taylor
   White noise on init. David. guess    .... on
   Maximum white noise                  ....   0.010
   Quad. conv. algorithm                .... NR
 SOSCF                  CNVSOSCF        .... on
   Start iteration      SOSCFMaxIt      ....   150
   Startup grad/error   SOSCFStart      ....  0.003300
 Level Shifting         CNVShift        .... on
   Level shift para.    LevelShift      ....    0.2500
   Turn off err/grad.   ShiftErr        ....    0.0010
 Zerner damping         CNVZerner       .... off
 Static damping         CNVDamp         .... on
   Fraction old density DampFac         ....    0.7000
   Max. Damping (<1)    DampMax         ....    0.9800
   Min. Damping (>=0)   DampMin         ....    0.0000
   Turn off err/grad.   DampErr         ....    0.1000
 Fernandez-Rico         CNVRico         .... off

SCF Procedure:
 Maximum # iterations   MaxIter         ....   150
 SCF integral mode      SCFMode         .... Direct
   Integral package                     .... SHARK and LIBINT hybrid scheme
 Reset frequency        DirectResetFreq ....    20
 Integral Threshold     Thresh          ....  2.500e-11 Eh
 Primitive CutOff       TCut            ....  2.500e-12 Eh

Convergence Tolerance:
 Convergence Check Mode ConvCheckMode   .... Total+1el-Energy
 Convergence forced     ConvForced      .... 1
 Energy Change          TolE            ....  1.000e-08 Eh
 1-El. energy change                    ....  1.000e-05 Eh
 Orbital Gradient       TolG            ....  1.000e-05
 Orbital Rotation angle TolX            ....  1.000e-05
 DIIS Error             TolErr          ....  5.000e-07


Diagonalization of the overlap matrix:
Smallest eigenvalue                        ... 2.305e-04
Time for diagonalization                   ...    0.010 sec
Threshold for overlap eigenvalues          ... 1.000e-08
Number of eigenvalues below threshold      ... 0
Time for construction of square roots      ...    0.004 sec
Total time needed                          ...    0.016 sec

Time for model grid setup =    0.056 sec

------------------------------
INITIAL GUESS: MODEL POTENTIAL
------------------------------
Loading Hartree-Fock densities                     ... done
Calculating cut-offs                               ... done
Initializing the effective Hamiltonian             ... done
Setting up the integral package (SHARK)            ... done
Starting the Coulomb interaction                   ... done (   0.2 sec)
Reading the grid                                   ... done
Mapping shells                                     ... done
Starting the XC term evaluation                    ... done (   0.0 sec)
Transforming the Hamiltonian                       ... done (   0.0 sec)
Diagonalizing the Hamiltonian                      ... done (   0.0 sec)
Back transforming the eigenvectors                 ... done (   0.0 sec)
Now organizing SCF variables                       ... done
                      ------------------
                      INITIAL GUESS DONE (   0.3 sec)
                      ------------------
--------------
SCF ITERATIONS
--------------
ITER       Energy         Delta-E        Max-DP      RMS-DP      [F,P]     Damp
               ***  Starting incremental Fock matrix formation  ***
  0   -149.5586843258   0.000000000000 0.02147250  0.00070763  0.2051557 0.7000
  1   -149.5686705415  -0.009986215741 0.01555934  0.00053978  0.1493443 0.7000
                               ***Turning on DIIS***
  2   -149.5759204642  -0.007249922669 0.01117435  0.00040285  0.1083160 0.7000
  3   -149.6040079050  -0.028087440837 0.02771723  0.00109913  0.0784444 0.0000
  4   -149.5947080921   0.009299812939 0.00258201  0.00012381  0.0055225 0.0000
                      *** Initiating the SOSCF procedure ***
                           *** Shutting down DIIS ***
                      *** Re-Reading the Fockian *** 
                      *** Removing any level shift *** 
ITER      Energy       Delta-E        Grad      Rot      Max-DP    RMS-DP
  5   -149.59227586   0.0024322298  0.002028  0.002028  0.001418  0.000058
               *** Restarting incremental Fock matrix formation ***
  6   -149.59429197  -0.0020161053  0.000391  0.000496  0.000770  0.000025
  7   -149.59429342  -0.0000014496  0.000163  0.000234  0.000350  0.000012
  8   -149.59429361  -0.0000001967  0.000015  0.000012  0.000023  0.000001
  9   -149.59429362  -0.0000000014  0.000004  0.000003  0.000005  0.000000
                 **** Energy Check signals convergence ****
              ***Rediagonalizing the Fockian in SOSCF/NRSCF***

               *****************************************************
               *                     SUCCESS                       *
               *           SCF CONVERGED AFTER  10 CYCLES          *
               *****************************************************


----------------
TOTAL SCF ENERGY
----------------

Total Energy       :         -149.59429362 Eh           -4070.66768 eV

Components:
Nuclear Repulsion  :           28.36954958 Eh             771.97469 eV
Electronic Energy  :         -177.96384319 Eh           -4842.64237 eV
One Electron Energy:         -262.11451381 Eh           -7132.49853 eV
Two Electron Energy:           84.15067061 Eh            2289.85616 eV

Virial components:
Potential Energy   :         -298.93983007 Eh           -8134.56633 eV
Kinetic Energy     :          149.34553645 Eh            4063.89865 eV
Virial Ratio       :            2.00166565


---------------
SCF CONVERGENCE
---------------

  Last Energy change         ...   -1.9287e-10  Tolerance :   1.0000e-08
  Last MAX-Density change    ...    8.4764e-07  Tolerance :   1.0000e-07
  Last RMS-Density change    ...    4.2366e-08  Tolerance :   5.0000e-09
  Last Orbital Gradient      ...    6.5002e-07  Tolerance :   1.0000e-05
  Last Orbital Rotation      ...    8.0619e-07  Tolerance :   1.0000e-05

             **** THE GBW FILE WAS UPDATED (000012.gbw) ****
             **** DENSITY 000012.scfp WAS UPDATED ****
             **** ENERGY FILE WAS UPDATED (000012.en.tmp) ****
             **** THE GBW FILE WAS UPDATED (000012.gbw) ****
             **** DENSITY 000012.scfp WAS UPDATED ****
----------------
ORBITAL ENERGIES
----------------

  NO   OCC          E(Eh)            E(eV) 
   0   2.0000     -20.742052      -564.4199 
   1   2.0000     -20.741045      -564.3925 
   2   2.0000      -1.670801       -45.4648 
   3   2.0000      -1.101438       -29.9717 
   4   2.0000      -0.777454       -21.1556 
   5   2.0000      -0.746416       -20.3110 
   6   2.0000      -0.660606       -17.9760 
   7   2.0000      -0.466772       -12.7015 
   8   0.0000       0.023853         0.6491 
   9   0.0000       0.100046         2.7224 
  10   0.0000       0.143207         3.8969 
  11   0.0000       0.152232         4.1424 
  12   0.0000       0.155919         4.2428 
  13   0.0000       0.203115         5.5270 
  14   0.0000       0.203302         5.5321 
  15   0.0000       0.211783         5.7629 
  16   0.0000       0.329796         8.9742 
  17   0.0000       0.519568        14.1382 
  18   0.0000       0.569615        15.5000 
  19   0.0000       0.570660        15.5285 
  20   0.0000       0.667201        18.1555 
  21   0.0000       0.753410        20.5013 
  22   0.0000       0.763841        20.7852 
  23   0.0000       0.798668        21.7329 
  24   0.0000       0.799584        21.7578 
  25   0.0000       0.815951        22.2032 
  26   0.0000       0.826173        22.4813 
  27   0.0000       0.863758        23.5040 
  28   0.0000       0.900828        24.5128 
  29   0.0000       0.907011        24.6810 
  30   0.0000       0.969021        26.3684 
  31   0.0000       0.997175        27.1345 
  32   0.0000       1.157676        31.5020 
  33   0.0000       1.159118        31.5412 
  34   0.0000       1.567318        42.6489 
  35   0.0000       1.852023        50.3961 
  36   0.0000       1.853523        50.4369 
  37   0.0000       1.866368        50.7865 
  38   0.0000       1.866377        50.7867 
  39   0.0000       1.915115        52.1129 
  40   0.0000       1.926703        52.4283 
  41   0.0000       2.183714        59.4219 
  42   0.0000       2.184384        59.4401 
  43   0.0000       2.193536        59.6892 
  44   0.0000       2.213845        60.2418 
  45   0.0000       2.219236        60.3885 
  46   0.0000       2.259437        61.4824 
  47   0.0000       2.259543        61.4853 
  48   0.0000       2.316528        63.0359 
  49   0.0000       2.333682        63.5027 
  50   0.0000       2.346409        63.8490 
  51   0.0000       2.644107        71.9498 
  52   0.0000       2.686165        73.0943 
  53   0.0000       2.708614        73.7051 
  54   0.0000       2.844456        77.4016 
  55   0.0000       2.849004        77.5253 
  56   0.0000       2.928389        79.6855 
  57   0.0000       3.089647        84.0736 
  58   0.0000       3.107586        84.5617 
  59   0.0000       3.514235        95.6272 
  60   0.0000       4.105018       111.7032 
  61   0.0000       4.112072       111.8952 
  62   0.0000       4.442173       120.8777 
  63   0.0000       4.966281       135.1394 
  64   0.0000       4.986223       135.6820 
  65   0.0000       5.909949       160.8179 
  66   0.0000       5.951166       161.9394 
  67   0.0000       5.991726       163.0432 
  68   0.0000       6.058223       164.8526 
  69   0.0000       6.066474       165.0772 
  70   0.0000       6.231257       169.5611 
  71   0.0000       6.301710       171.4783 
  72   0.0000       6.301756       171.4795 
  73   0.0000       6.504053       176.9843 
  74   0.0000       6.504059       176.9845 
  75   0.0000       6.750873       183.7006 
  76   0.0000       6.885246       187.3571 
  77   0.0000       6.885378       187.3606 
  78   0.0000       6.955207       189.2608 
  79   0.0000       6.956438       189.2943 
  80   0.0000       7.046932       191.7568 
  81   0.0000       7.048014       191.7862 
  82   0.0000       7.180481       195.3908 
  83   0.0000       7.216708       196.3766 
  84   0.0000       7.437509       202.3849 
  85   0.0000       7.472965       203.3497 
  86   0.0000       7.791270       212.0112 
  87   0.0000       7.837452       213.2679 
  88   0.0000       7.996741       217.6024 
  89   0.0000       8.311680       226.1723 
  90   0.0000      12.732077       346.4574 
  91   0.0000      14.664954       399.0537 
------------------
MOLECULAR ORBITALS
------------------
                      0         1         2         3         4         5   
                 -20.74205 -20.74104  -1.67080  -1.10144  -0.77745  -0.74642
                   2.00000   2.00000   2.00000   2.00000   2.00000   2.00000
                  --------  --------  --------  --------  --------  --------
  0O   1s         0.690110  0.689284 -0.006893  0.002492 -0.000000 -0.002660
  0O   2s        -0.000540 -0.002228  0.367924  0.410101 -0.000000 -0.137489
  0O   3s         0.030369  0.030884  0.097219  0.114994 -0.000000 -0.042092
  0O   4s         0.001618  0.000132  0.153972  0.385042  0.000000 -0.196209
  0O   5s        -0.000071 -0.002161 -0.000889  0.043014  0.000000 -0.021917
  0O   1pz       -0.001582 -0.001604 -0.084975  0.085682  0.000000 -0.255471
  0O   1px        0.000000  0.000000  0.000000  0.000000  0.261378  0.000000
  0O   1py        0.000000  0.000000 -0.000000  0.000000 -0.000000 -0.000000
  0O   2pz        0.000637  0.003258 -0.106661  0.093675  0.000000 -0.319747
  0O   2px       -0.000000  0.000000 -0.000000 -0.000000  0.329806 -0.000000
  0O   2py       -0.000000 -0.000000 -0.000000  0.000000 -0.000000 -0.000000
  0O   3pz       -0.001007  0.000883 -0.021438 -0.011769 -0.000000 -0.166313
  0O   3px       -0.000000  0.000000 -0.000000  0.000000  0.175577  0.000000
  0O   3py       -0.000000  0.000000  0.000000 -0.000000 -0.000000 -0.000000
  0O   4pz       -0.000108  0.000434  0.003250 -0.004859 -0.000000 -0.000568
  0O   4px       -0.000000  0.000000  0.000000  0.000000  0.002148 -0.000000
  0O   4py        0.000000  0.000000  0.000000 -0.000000 -0.000000 -0.000000
  0O   1dz2       0.000199 -0.000011  0.010330 -0.004318  0.000000  0.012993
  0O   1dxz      -0.000000  0.000000 -0.000000  0.000000 -0.008817  0.000000
  0O   1dyz      -0.000000 -0.000000 -0.000000  0.000000  0.000000 -0.000000
  0O   1dx2y2     0.000168  0.000185  0.000103  0.000873  0.000000 -0.000558
  0O   1dxy      -0.000000 -0.000000 -0.000000 -0.000000  0.000000  0.000000
  0O   2dz2      -0.000091 -0.001618  0.021081 -0.005027  0.000000  0.024800
  0O   2dxz       0.000000 -0.000000  0.000000 -0.000000 -0.021974  0.000000
  0O   2dyz       0.000000  0.000000  0.000000 -0.000000  0.000000 -0.000000
  0O   2dx2y2     0.000106  0.000174 -0.001515  0.001968 -0.000000 -0.000999
  0O   2dxy      -0.000000 -0.000000  0.000000 -0.000000 -0.000000  0.000000
  0O   3dz2       0.000774 -0.000131  0.001261  0.010061  0.000000  0.013189
  0O   3dxz       0.000000 -0.000000  0.000000 -0.000000  0.000964 -0.000000
  0O   3dyz      -0.000000 -0.000000 -0.000000  0.000000 -0.000000  0.000000
  0O   3dx2y2    -0.000020 -0.000014 -0.000207  0.003154 -0.000000 -0.000237
  0O   3dxy       0.000000  0.000000  0.000000 -0.000000  0.000000  0.000000
  0O   1f0        0.000096  0.000131 -0.006244  0.000073 -0.000000 -0.006944
  0O   1f+1       0.000000  0.000000  0.000000 -0.000000  0.006157 -0.000000
  0O   1f-1       0.000000 -0.000000  0.000000  0.000000 -0.000000  0.000000
  0O   1f+2       0.000030  0.000010  0.001100 -0.000656 -0.000000  0.001875
  0O   1f-2      -0.000000 -0.000000 -0.000000  0.000000 -0.000000 -0.000000
  0O   1f+3      -0.000000 -0.000000 -0.000000 -0.000000  0.002104  0.000000
  0O   1f-3       0.000000  0.000000  0.000000  0.000000 -0.000000 -0.000000
  0O   2f0       -0.000142  0.000395 -0.002452 -0.000136 -0.000000 -0.001212
  0O   2f+1      -0.000000  0.000000 -0.000000  0.000000  0.002415  0.000000
  0O   2f-1      -0.000000 -0.000000 -0.000000  0.000000 -0.000000  0.000000
  0O   2f+2       0.000019 -0.000017  0.001530 -0.000058  0.000000  0.000589
  0O   2f-2      -0.000000  0.000000 -0.000000  0.000000 -0.000000 -0.000000
  0O   2f+3       0.000000  0.000000  0.000000  0.000000  0.002281 -0.000000
  0O   2f-3      -0.000000 -0.000000  0.000000  0.000000 -0.000000 -0.000000
  1O   1s         0.690110 -0.689284 -0.006893 -0.002492  0.000000 -0.002660
  1O   2s        -0.000540  0.002228  0.367924 -0.410101  0.000000 -0.137489
  1O   3s         0.030369 -0.030884  0.097219 -0.114994  0.000000 -0.042092
  1O   4s         0.001618 -0.000132  0.153972 -0.385042 -0.000000 -0.196209
  1O   5s        -0.000071  0.002161 -0.000889 -0.043014 -0.000000 -0.021917
  1O   1pz        0.001582 -0.001604  0.084975  0.085682  0.000000  0.255471
  1O   1px       -0.000000  0.000000  0.000000  0.000000  0.261378  0.000000
  1O   1py       -0.000000 -0.000000  0.000000  0.000000 -0.000000  0.000000
  1O   2pz       -0.000637  0.003258  0.106661  0.093675 -0.000000  0.319747
  1O   2px        0.000000 -0.000000  0.000000  0.000000  0.329806  0.000000
  1O   2py        0.000000  0.000000  0.000000 -0.000000 -0.000000  0.000000
  1O   3pz        0.001007  0.000883  0.021438 -0.011769 -0.000000  0.166313
  1O   3px        0.000000 -0.000000  0.000000 -0.000000  0.175577 -0.000000
  1O   3py       -0.000000 -0.000000 -0.000000  0.000000 -0.000000  0.000000
  1O   4pz        0.000108  0.000434 -0.003250 -0.004859 -0.000000  0.000568
  1O   4px        0.000000 -0.000000 -0.000000 -0.000000  0.002148  0.000000
  1O   4py       -0.000000 -0.000000  0.000000 -0.000000 -0.000000  0.000000
  1O   1dz2       0.000199  0.000011  0.010330  0.004318  0.000000  0.012993
  1O   1dxz      -0.000000 -0.000000 -0.000000 -0.000000  0.008817  0.000000
  1O   1dyz      -0.000000 -0.000000 -0.000000 -0.000000 -0.000000  0.000000
  1O   1dx2y2     0.000168 -0.000185  0.000103 -0.000873  0.000000 -0.000558
  1O   1dxy      -0.000000  0.000000 -0.000000  0.000000  0.000000  0.000000
  1O   2dz2      -0.000091  0.001618  0.021081  0.005027 -0.000000  0.024800
  1O   2dxz       0.000000 -0.000000  0.000000 -0.000000  0.021974 -0.000000
  1O   2dyz       0.000000  0.000000  0.000000 -0.000000 -0.000000 -0.000000
  1O   2dx2y2     0.000106 -0.000174 -0.001515 -0.001968  0.000000 -0.000999
  1O   2dxy      -0.000000  0.000000  0.000000  0.000000 -0.000000  0.000000
  1O   3dz2       0.000774  0.000131  0.001261 -0.010061 -0.000000  0.013189
  1O   3dxz       0.000000 -0.000000  0.000000 -0.000000 -0.000964 -0.000000
  1O   3dyz      -0.000000 -0.000000 -0.000000  0.000000  0.000000  0.000000
  1O   3dx2y2    -0.000020  0.000014 -0.000207 -0.003154 -0.000000 -0.000237
  1O   3dxy       0.000000 -0.000000  0.000000  0.000000 -0.000000  0.000000
  1O   1f0       -0.000096  0.000131  0.006244  0.000073 -0.000000  0.006944
  1O   1f+1      -0.000000  0.000000 -0.000000  0.000000  0.006157  0.000000
  1O   1f-1       0.000000  0.000000 -0.000000 -0.000000 -0.000000 -0.000000
  1O   1f+2      -0.000030  0.000010 -0.001100 -0.000656 -0.000000 -0.001875
  1O   1f-2       0.000000 -0.000000  0.000000  0.000000  0.000000  0.000000
  1O   1f+3       0.000000  0.000000 -0.000000  0.000000  0.002104 -0.000000
  1O   1f-3       0.000000 -0.000000 -0.000000  0.000000 -0.000000  0.000000
  1O   2f0        0.000142  0.000395  0.002452 -0.000136 -0.000000  0.001212
  1O   2f+1       0.000000 -0.000000  0.000000 -0.000000  0.002415 -0.000000
  1O   2f-1       0.000000  0.000000  0.000000  0.000000 -0.000000 -0.000000
  1O   2f+2      -0.000019 -0.000017 -0.001530 -0.000058  0.000000 -0.000589
  1O   2f-2       0.000000  0.000000  0.000000  0.000000 -0.000000  0.000000
  1O   2f+3      -0.000000 -0.000000 -0.000000 -0.000000  0.002281 -0.000000
  1O   2f-3       0.000000  0.000000 -0.000000  0.000000 -0.000000  0.000000
                      6         7         8         9        10        11   
                  -0.66061  -0.46677   0.02385   0.10005   0.14321   0.15223
                   2.00000   2.00000   0.00000   0.00000   0.00000   0.00000
                  --------  --------  --------  --------  --------  --------
  0O   1s        -0.000000 -0.000000 -0.000000 -0.015143  0.001870  0.000000
  0O   2s        -0.000000  0.000000 -0.000000  0.026670  0.086841 -0.000000
  0O   3s        -0.000000  0.000000 -0.000000  0.004202  0.036715 -0.000000
  0O   4s        -0.000000  0.000000  0.000000  1.473432  0.607354  0.000000
  0O   5s        -0.000000  0.000000 -0.000000  7.628142 -0.968658  0.000000
  0O   1pz        0.000000 -0.000000 -0.000000 -0.001602  0.051113  0.000000
  0O   1px        0.000000  0.297982  0.000000  0.000000 -0.000000  0.000000
  0O   1py        0.235325 -0.000000  0.249363 -0.000000 -0.000000  0.064332
  0O   2pz        0.000000 -0.000000 -0.000000 -0.054774 -0.012058  0.000000
  0O   2px        0.000000  0.376681  0.000000 -0.000000 -0.000000  0.000000
  0O   2py        0.311688 -0.000000  0.326651 -0.000000 -0.000000  0.041575
  0O   3pz        0.000000 -0.000000 -0.000000 -1.248923  0.319998 -0.000000
  0O   3px        0.000000  0.318884  0.000000  0.000000  0.000000  0.000000
  0O   3py        0.197988 -0.000000  0.368448 -0.000000 -0.000000  0.253213
  0O   4pz       -0.000000 -0.000000 -0.000000 -2.602528 -0.783269 -0.000000
  0O   4px        0.000000  0.049146  0.000000 -0.000000 -0.000000 -0.000000
  0O   4py        0.009003 -0.000000  0.415122  0.000000 -0.000000 -0.631358
  0O   1dz2       0.000000 -0.000000  0.000000 -0.003180  0.004566  0.000000
  0O   1dxz      -0.000000  0.002332  0.000000 -0.000000  0.000000 -0.000000
  0O   1dyz      -0.011342 -0.000000  0.003444  0.000000  0.000000 -0.003094
  0O   1dx2y2     0.000000  0.000000  0.000000  0.000029  0.000221 -0.000000
  0O   1dxy      -0.000000 -0.000000 -0.000000 -0.000000 -0.000000 -0.000000
  0O   2dz2       0.000000  0.000000  0.000000  0.038321 -0.020151  0.000000
  0O   2dxz      -0.000000  0.010328  0.000000 -0.000000 -0.000000 -0.000000
  0O   2dyz      -0.035360 -0.000000  0.014554 -0.000000 -0.000000 -0.013674
  0O   2dx2y2     0.000000 -0.000000  0.000000 -0.000781 -0.001338  0.000000
  0O   2dxy      -0.000000 -0.000000 -0.000000  0.000000  0.000000  0.000000
  0O   3dz2       0.000000  0.000000 -0.000000  0.330647 -0.095338  0.000000
  0O   3dxz      -0.000000 -0.004609 -0.000000  0.000000 -0.000000  0.000000
  0O   3dyz      -0.013295  0.000000 -0.003996  0.000000  0.000000  0.015126
  0O   3dx2y2    -0.000000 -0.000000 -0.000000  0.003766  0.009161  0.000000
  0O   3dxy      -0.000000 -0.000000 -0.000000 -0.000000 -0.000000 -0.000000
  0O   1f0        0.000000 -0.000000 -0.000000 -0.000811 -0.003634 -0.000000
  0O   1f+1       0.000000 -0.000063 -0.000000  0.000000  0.000000  0.000000
  0O   1f-1       0.006003  0.000000 -0.001640  0.000000 -0.000000  0.003676
  0O   1f+2       0.000000 -0.000000  0.000000  0.000007 -0.000475  0.000000
  0O   1f-2       0.000000 -0.000000 -0.000000 -0.000000  0.000000 -0.000000
  0O   1f+3       0.000000  0.002248  0.000000  0.000000 -0.000000  0.000000
  0O   1f-3       0.001946 -0.000000  0.001862 -0.000000 -0.000000  0.000734
  0O   2f0       -0.000000 -0.000000  0.000000 -0.029249  0.038062  0.000000
  0O   2f+1       0.000000 -0.002306 -0.000000 -0.000000  0.000000 -0.000000
  0O   2f-1       0.004584  0.000000 -0.002941  0.000000 -0.000000 -0.004656
  0O   2f+2      -0.000000  0.000000 -0.000000  0.000231  0.000074 -0.000000
  0O   2f-2      -0.000000 -0.000000  0.000000 -0.000000 -0.000000 -0.000000
  0O   2f+3       0.000000  0.001802  0.000000 -0.000000  0.000000 -0.000000
  0O   2f-3       0.002648 -0.000000  0.002393  0.000000 -0.000000 -0.000706
  1O   1s        -0.000000 -0.000000  0.000000  0.015143  0.001870  0.000000
  1O   2s         0.000000 -0.000000 -0.000000 -0.026670  0.086841  0.000000
  1O   3s         0.000000 -0.000000 -0.000000 -0.004202  0.036715  0.000000
  1O   4s         0.000000 -0.000000 -0.000000 -1.473432  0.607354 -0.000000
  1O   5s         0.000000 -0.000000 -0.000000 -7.628142 -0.968658 -0.000000
  1O   1pz        0.000000 -0.000000  0.000000 -0.001602 -0.051113  0.000000
  1O   1px        0.000000 -0.297982 -0.000000  0.000000  0.000000  0.000000
  1O   1py        0.235325  0.000000 -0.249363  0.000000  0.000000  0.064332
  1O   2pz        0.000000 -0.000000  0.000000 -0.054774  0.012058  0.000000
  1O   2px        0.000000 -0.376681 -0.000000  0.000000  0.000000  0.000000
  1O   2py        0.311688  0.000000 -0.326651  0.000000  0.000000  0.041575
  1O   3pz        0.000000 -0.000000  0.000000 -1.248923 -0.319998 -0.000000
  1O   3px        0.000000 -0.318884 -0.000000  0.000000 -0.000000  0.000000
  1O   3py        0.197988  0.000000 -0.368448  0.000000  0.000000  0.253213
  1O   4pz        0.000000 -0.000000  0.000000 -2.602528  0.783269 -0.000000
  1O   4px        0.000000 -0.049146 -0.000000  0.000000  0.000000 -0.000000
  1O   4py        0.009003  0.000000 -0.415122 -0.000000  0.000000 -0.631358
  1O   1dz2      -0.000000  0.000000  0.000000  0.003180  0.004566  0.000000
  1O   1dxz       0.000000  0.002332  0.000000 -0.000000  0.000000  0.000000
  1O   1dyz       0.011342 -0.000000  0.003444  0.000000 -0.000000  0.003094
  1O   1dx2y2     0.000000  0.000000  0.000000 -0.000029  0.000221 -0.000000
  1O   1dxy      -0.000000  0.000000  0.000000  0.000000 -0.000000  0.000000
  1O   2dz2      -0.000000 -0.000000  0.000000 -0.038321 -0.020151 -0.000000
  1O   2dxz       0.000000  0.010328  0.000000 -0.000000 -0.000000  0.000000
  1O   2dyz       0.035360 -0.000000  0.014554 -0.000000 -0.000000  0.013674
  1O   2dx2y2    -0.000000  0.000000  0.000000  0.000781 -0.001338 -0.000000
  1O   2dxy      -0.000000 -0.000000  0.000000 -0.000000  0.000000 -0.000000
  1O   3dz2       0.000000  0.000000 -0.000000 -0.330647 -0.095338 -0.000000
  1O   3dxz       0.000000 -0.004609 -0.000000  0.000000 -0.000000 -0.000000
  1O   3dyz       0.013295  0.000000 -0.003996 -0.000000  0.000000 -0.015126
  1O   3dx2y2    -0.000000 -0.000000 -0.000000 -0.003766  0.009161  0.000000
  1O   3dxy      -0.000000 -0.000000  0.000000  0.000000 -0.000000  0.000000
  1O   1f0        0.000000 -0.000000  0.000000 -0.000811  0.003634  0.000000
  1O   1f+1       0.000000  0.000063  0.000000  0.000000  0.000000  0.000000
  1O   1f-1       0.006003 -0.000000  0.001640 -0.000000 -0.000000  0.003676
  1O   1f+2       0.000000  0.000000 -0.000000  0.000007  0.000475 -0.000000
  1O   1f-2      -0.000000  0.000000 -0.000000 -0.000000 -0.000000  0.000000
  1O   1f+3       0.000000 -0.002248 -0.000000  0.000000 -0.000000  0.000000
  1O   1f-3       0.001946  0.000000 -0.001862  0.000000  0.000000  0.000734
  1O   2f0        0.000000  0.000000 -0.000000 -0.029249 -0.038062 -0.000000
  1O   2f+1       0.000000  0.002306  0.000000  0.000000 -0.000000 -0.000000
  1O   2f-1       0.004584 -0.000000  0.002941 -0.000000  0.000000 -0.004656
  1O   2f+2       0.000000 -0.000000  0.000000  0.000231 -0.000074 -0.000000
  1O   2f-2      -0.000000 -0.000000  0.000000 -0.000000  0.000000  0.000000
  1O   2f+3       0.000000 -0.001802 -0.000000 -0.000000  0.000000 -0.000000
  1O   2f-3       0.002648  0.000000 -0.002393  0.000000 -0.000000 -0.000706
                     12        13        14        15        16        17   
                   0.15592   0.20312   0.20330   0.21178   0.32980   0.51957
                   0.00000   0.00000   0.00000   0.00000   0.00000   0.00000
                  --------  --------  --------  --------  --------  --------
  0O   1s        -0.000000 -0.015314  0.000000 -0.000000 -0.052429  0.001242
  0O   2s        -0.000000 -0.090237  0.000000  0.000000 -0.240977  0.165862
  0O   3s        -0.000000 -0.033270  0.000000  0.000000 -0.090446  0.029486
  0O   4s         0.000000 -0.837051  0.000000  0.000000  3.255618  1.945224
  0O   5s         0.000000  0.386267 -0.000000  0.000000 15.525355  5.428618
  0O   1pz        0.000000 -0.000429  0.000000  0.000000  0.049236 -0.244703
  0O   1px        0.061899 -0.000000 -0.056766 -0.000000 -0.000000 -0.000000
  0O   1py       -0.000000 -0.000000  0.000000 -0.106271 -0.000000  0.000000
  0O   2pz       -0.000000  0.063819 -0.000000  0.000000 -0.068763 -0.412114
  0O   2px        0.034263 -0.000000 -0.045155 -0.000000 -0.000000 -0.000000
  0O   2py       -0.000000 -0.000000  0.000000 -0.111183  0.000000  0.000000
  0O   3pz       -0.000000 -0.219310  0.000000 -0.000000 -3.279131 -2.120394
  0O   3px        0.243180 -0.000000 -0.036345 -0.000000 -0.000000 -0.000000
  0O   3py       -0.000000 -0.000000  0.000000 -0.119254 -0.000000 -0.000000
  0O   4pz       -0.000000 -1.522336  0.000000  0.000000 -3.754101 -1.075157
  0O   4px       -0.629717  0.000000  2.163843  0.000000  0.000000  0.000000
  0O   4py        0.000000  0.000000 -0.000000  2.142784 -0.000000 -0.000000
  0O   1dz2      -0.000000 -0.004123  0.000000  0.000000 -0.002444 -0.023524
  0O   1dxz      -0.002460 -0.000000 -0.002866 -0.000000  0.000000  0.000000
  0O   1dyz       0.000000 -0.000000  0.000000 -0.004046  0.000000  0.000000
  0O   1dx2y2    -0.000000 -0.000387  0.000000 -0.000000 -0.000070  0.000292
  0O   1dxy       0.000000  0.000000  0.000000 -0.000000  0.000000 -0.000000
  0O   2dz2       0.000000 -0.023070  0.000000  0.000000  0.158485  0.081748
  0O   2dxz      -0.010540  0.000000  0.024720  0.000000  0.000000  0.000000
  0O   2dyz       0.000000  0.000000 -0.000000  0.021624 -0.000000 -0.000000
  0O   2dx2y2     0.000000  0.001624 -0.000000 -0.000000  0.002094  0.000502
  0O   2dxy      -0.000000 -0.000000 -0.000000  0.000000 -0.000000 -0.000000
  0O   3dz2       0.000000  0.347271 -0.000000 -0.000000  0.837494  0.019465
  0O   3dxz       0.017296 -0.000000 -0.206531 -0.000000  0.000000  0.000000
  0O   3dyz      -0.000000 -0.000000  0.000000 -0.225490  0.000000  0.000000
  0O   3dx2y2     0.000000 -0.013489  0.000000  0.000000 -0.013285 -0.004554
  0O   3dxy      -0.000000  0.000000 -0.000000 -0.000000  0.000000  0.000000
  0O   1f0       -0.000000  0.007910 -0.000000 -0.000000 -0.008137 -0.009068
  0O   1f+1       0.003647 -0.000000 -0.003250 -0.000000  0.000000  0.000000
  0O   1f-1      -0.000000 -0.000000  0.000000 -0.002870  0.000000  0.000000
  0O   1f+2      -0.000000 -0.000051  0.000000 -0.000000 -0.000229  0.001266
  0O   1f-2      -0.000000  0.000000 -0.000000  0.000000  0.000000 -0.000000
  0O   1f+3       0.000698 -0.000000 -0.000557 -0.000000  0.000000  0.000000
  0O   1f-3      -0.000000 -0.000000  0.000000 -0.000931 -0.000000 -0.000000
  0O   2f0       -0.000000 -0.055804  0.000000  0.000000 -0.077084 -0.017956
  0O   2f+1      -0.005579  0.000000  0.012269  0.000000 -0.000000 -0.000000
  0O   2f-1       0.000000  0.000000 -0.000000  0.014481 -0.000000 -0.000000
  0O   2f+2       0.000000  0.000775 -0.000000 -0.000000 -0.000543  0.004300
  0O   2f-2       0.000000 -0.000000  0.000000 -0.000000  0.000000 -0.000000
  0O   2f+3      -0.000855  0.000000  0.000449 -0.000000 -0.000000 -0.000000
  0O   2f-3       0.000000  0.000000 -0.000000 -0.000173 -0.000000  0.000000
  1O   1s         0.000000 -0.015314  0.000000 -0.000000  0.052429 -0.001242
  1O   2s         0.000000 -0.090237  0.000000  0.000000  0.240977 -0.165862
  1O   3s         0.000000 -0.033270  0.000000  0.000000  0.090446 -0.029486
  1O   4s        -0.000000 -0.837051  0.000000  0.000000 -3.255618 -1.945224
  1O   5s        -0.000000  0.386267 -0.000000 -0.000000-15.525355 -5.428618
  1O   1pz        0.000000  0.000429 -0.000000 -0.000000  0.049236 -0.244703
  1O   1px        0.061899  0.000000  0.056766  0.000000 -0.000000  0.000000
  1O   1py       -0.000000  0.000000 -0.000000  0.106271 -0.000000  0.000000
  1O   2pz       -0.000000 -0.063819  0.000000 -0.000000 -0.068763 -0.412114
  1O   2px        0.034263  0.000000  0.045155  0.000000 -0.000000  0.000000
  1O   2py       -0.000000  0.000000 -0.000000  0.111183 -0.000000 -0.000000
  1O   3pz       -0.000000  0.219310 -0.000000 -0.000000 -3.279131 -2.120394
  1O   3px        0.243180  0.000000  0.036345  0.000000  0.000000  0.000000
  1O   3py       -0.000000  0.000000 -0.000000  0.119254  0.000000  0.000000
  1O   4pz       -0.000000  1.522336 -0.000000 -0.000000 -3.754101 -1.075157
  1O   4px       -0.629717 -0.000000 -2.163843 -0.000000 -0.000000 -0.000000
  1O   4py        0.000000 -0.000000  0.000000 -2.142784  0.000000  0.000000
  1O   1dz2       0.000000 -0.004123  0.000000  0.000000  0.002444  0.023524
  1O   1dxz       0.002460 -0.000000 -0.002866 -0.000000 -0.000000 -0.000000
  1O   1dyz      -0.000000 -0.000000  0.000000 -0.004046 -0.000000  0.000000
  1O   1dx2y2    -0.000000 -0.000387  0.000000 -0.000000  0.000070 -0.000292
  1O   1dxy      -0.000000  0.000000 -0.000000  0.000000 -0.000000  0.000000
  1O   2dz2      -0.000000 -0.023070  0.000000  0.000000 -0.158485 -0.081748
  1O   2dxz       0.010540  0.000000  0.024720  0.000000 -0.000000  0.000000
  1O   2dyz      -0.000000  0.000000 -0.000000  0.021624 -0.000000 -0.000000
  1O   2dx2y2     0.000000  0.001624 -0.000000 -0.000000 -0.002094 -0.000502
  1O   2dxy       0.000000 -0.000000  0.000000  0.000000  0.000000  0.000000
  1O   3dz2      -0.000000  0.347271 -0.000000 -0.000000 -0.837494 -0.019465
  1O   3dxz      -0.017296 -0.000000 -0.206531 -0.000000  0.000000  0.000000
  1O   3dyz       0.000000 -0.000000  0.000000 -0.225490  0.000000  0.000000
  1O   3dx2y2     0.000000 -0.013489  0.000000  0.000000  0.013285  0.004554
  1O   3dxy      -0.000000  0.000000  0.000000 -0.000000 -0.000000 -0.000000
  1O   1f0       -0.000000 -0.007910  0.000000  0.000000 -0.008137 -0.009068
  1O   1f+1       0.003647  0.000000  0.003250  0.000000 -0.000000 -0.000000
  1O   1f-1      -0.000000  0.000000 -0.000000  0.002870 -0.000000 -0.000000
  1O   1f+2       0.000000  0.000051 -0.000000 -0.000000 -0.000229  0.001266
  1O   1f-2      -0.000000 -0.000000 -0.000000  0.000000  0.000000 -0.000000
  1O   1f+3       0.000698  0.000000  0.000557  0.000000  0.000000  0.000000
  1O   1f-3      -0.000000  0.000000 -0.000000  0.000931 -0.000000  0.000000
  1O   2f0       -0.000000  0.055804 -0.000000 -0.000000 -0.077084 -0.017956
  1O   2f+1      -0.005579 -0.000000 -0.012269 -0.000000  0.000000  0.000000
  1O   2f-1       0.000000 -0.000000  0.000000 -0.014481 -0.000000  0.000000
  1O   2f+2      -0.000000 -0.000775  0.000000  0.000000 -0.000543  0.004300
  1O   2f-2       0.000000  0.000000  0.000000  0.000000  0.000000 -0.000000
  1O   2f+3      -0.000855 -0.000000 -0.000449  0.000000 -0.000000  0.000000
  1O   2f-3       0.000000 -0.000000  0.000000  0.000173  0.000000  0.000000
                     18        19        20        21        22        23   
                   0.56962   0.57066   0.66720   0.75341   0.76384   0.79867
                   0.00000   0.00000   0.00000   0.00000   0.00000   0.00000
                  --------  --------  --------  --------  --------  --------
  0O   1s         0.003472  0.000000 -0.047453 -0.000000 -0.000000  0.010472
  0O   2s        -0.003968 -0.000000 -0.017986 -0.000000 -0.000000 -0.000321
  0O   3s        -0.000107  0.000000 -0.004601 -0.000000 -0.000000  0.001260
  0O   4s         0.224288  0.000000 -1.522069  0.000000  0.000000 -1.179849
  0O   5s        -0.103578 -0.000000  0.612457  0.000000  0.000000 -1.635010
  0O   1pz        0.007358  0.000000 -0.061551  0.000000  0.000000  0.009636
  0O   1px       -0.000000 -0.000000 -0.000000  0.000000 -0.034059  0.000000
  0O   1py       -0.000000  0.000000  0.000000  0.029083  0.000000 -0.000000
  0O   2pz       -0.015822  0.000000  0.058650 -0.000000 -0.000000  0.043373
  0O   2px       -0.000000  0.000000 -0.000000  0.000000 -0.115500 -0.000000
  0O   2py        0.000000 -0.000000  0.000000  0.110841  0.000000 -0.000000
  0O   3pz        0.080106  0.000000 -0.454414 -0.000000 -0.000000  0.895760
  0O   3px        0.000000 -0.000000 -0.000000 -0.000000  0.656221  0.000000
  0O   3py       -0.000000 -0.000000  0.000000 -0.660421 -0.000000 -0.000000
  0O   4pz        0.148400  0.000000 -1.160229 -0.000000 -0.000000  0.350189
  0O   4px        0.000000  0.000000 -0.000000  0.000000 -0.236297  0.000000
  0O   4py        0.000000 -0.000000  0.000000  0.237896  0.000000 -0.000000
  0O   1dz2      -0.001454  0.000000  0.022761 -0.000000 -0.000000  0.000443
  0O   1dxz       0.000000 -0.000000  0.000000 -0.000000  0.033291  0.000000
  0O   1dyz       0.000000  0.000000 -0.000000 -0.032273 -0.000000  0.000000
  0O   1dx2y2    -0.028005 -0.000000 -0.003913 -0.000000  0.000000 -0.026910
  0O   1dxy       0.000000 -0.028311  0.000000 -0.000000  0.000000  0.000000
  0O   2dz2      -0.001239 -0.000000 -0.011480  0.000000  0.000000 -0.014261
  0O   2dxz      -0.000000  0.000000  0.000000  0.000000 -0.070253 -0.000000
  0O   2dyz       0.000000 -0.000000  0.000000  0.070620  0.000000 -0.000000
  0O   2dx2y2     0.058710  0.000000  0.009189  0.000000 -0.000000  0.087629
  0O   2dxy      -0.000000  0.059424 -0.000000  0.000000 -0.000000 -0.000000
  0O   3dz2      -0.167060 -0.000000  1.380335  0.000000  0.000000 -0.307286
  0O   3dxz      -0.000000 -0.000000  0.000000 -0.000000  0.826436 -0.000000
  0O   3dyz       0.000000  0.000000 -0.000000 -0.827015 -0.000000  0.000000
  0O   3dx2y2    -0.588204 -0.000000 -0.066843 -0.000000  0.000000 -1.207355
  0O   3dxy       0.000000 -0.592299  0.000000 -0.000000  0.000000  0.000000
  0O   1f0       -0.001533 -0.000000  0.008713 -0.000000 -0.000000 -0.000941
  0O   1f+1      -0.000000 -0.000000  0.000000 -0.000000  0.001974 -0.000000
  0O   1f-1      -0.000000  0.000000 -0.000000 -0.002610 -0.000000  0.000000
  0O   1f+2       0.006272  0.000000  0.001584 -0.000000  0.000000 -0.015188
  0O   1f-2      -0.000000  0.006401 -0.000000 -0.000000  0.000000  0.000000
  0O   1f+3       0.000000  0.000000 -0.000000  0.000000 -0.000534  0.000000
  0O   1f-3      -0.000000  0.000000 -0.000000  0.000505  0.000000 -0.000000
  0O   2f0        0.023861  0.000000 -0.151424 -0.000000 -0.000000  0.019787
  0O   2f+1       0.000000 -0.000000 -0.000000  0.000000 -0.047754  0.000000
  0O   2f-1      -0.000000 -0.000000  0.000000  0.050281  0.000000 -0.000000
  0O   2f+2      -0.007719 -0.000000 -0.004202  0.000000 -0.000000  0.090075
  0O   2f-2       0.000000 -0.008115  0.000000  0.000000 -0.000000 -0.000000
  0O   2f+3       0.000000  0.000000  0.000000 -0.000000  0.000594 -0.000000
  0O   2f-3       0.000000 -0.000000  0.000000 -0.000635 -0.000000 -0.000000
  1O   1s         0.003472  0.000000 -0.047453  0.000000  0.000000 -0.010472
  1O   2s        -0.003968  0.000000 -0.017986  0.000000  0.000000  0.000321
  1O   3s        -0.000107  0.000000 -0.004601  0.000000  0.000000 -0.001260
  1O   4s         0.224288  0.000000 -1.522069 -0.000000 -0.000000  1.179849
  1O   5s        -0.103578  0.000000  0.612457 -0.000000 -0.000000  1.635010
  1O   1pz       -0.007358  0.000000  0.061551  0.000000  0.000000  0.009636
  1O   1px       -0.000000  0.000000  0.000000  0.000000 -0.034059 -0.000000
  1O   1py       -0.000000 -0.000000 -0.000000  0.029083  0.000000  0.000000
  1O   2pz        0.015822  0.000000 -0.058650 -0.000000 -0.000000  0.043373
  1O   2px        0.000000  0.000000 -0.000000  0.000000 -0.115500 -0.000000
  1O   2py       -0.000000 -0.000000 -0.000000  0.110841  0.000000  0.000000
  1O   3pz       -0.080106  0.000000  0.454414 -0.000000 -0.000000  0.895760
  1O   3px       -0.000000  0.000000  0.000000 -0.000000  0.656221 -0.000000
  1O   3py        0.000000  0.000000 -0.000000 -0.660421 -0.000000  0.000000
  1O   4pz       -0.148400  0.000000  1.160229 -0.000000 -0.000000  0.350189
  1O   4px       -0.000000 -0.000000  0.000000  0.000000 -0.236297 -0.000000
  1O   4py       -0.000000  0.000000 -0.000000  0.237896  0.000000  0.000000
  1O   1dz2      -0.001454 -0.000000  0.022761  0.000000  0.000000 -0.000443
  1O   1dxz       0.000000 -0.000000 -0.000000  0.000000 -0.033291 -0.000000
  1O   1dyz      -0.000000 -0.000000 -0.000000  0.032273  0.000000 -0.000000
  1O   1dx2y2    -0.028005 -0.000000 -0.003913  0.000000 -0.000000  0.026910
  1O   1dxy       0.000000 -0.028311  0.000000  0.000000 -0.000000 -0.000000
  1O   2dz2      -0.001239  0.000000 -0.011480 -0.000000 -0.000000  0.014261
  1O   2dxz      -0.000000  0.000000  0.000000 -0.000000  0.070253 -0.000000
  1O   2dyz       0.000000  0.000000  0.000000 -0.070620 -0.000000 -0.000000
  1O   2dx2y2     0.058710  0.000000  0.009189 -0.000000  0.000000 -0.087629
  1O   2dxy      -0.000000  0.059424 -0.000000 -0.000000  0.000000  0.000000
  1O   3dz2      -0.167060 -0.000000  1.380335 -0.000000 -0.000000  0.307286
  1O   3dxz      -0.000000 -0.000000  0.000000  0.000000 -0.826436 -0.000000
  1O   3dyz       0.000000  0.000000 -0.000000  0.827015  0.000000  0.000000
  1O   3dx2y2    -0.588204 -0.000000 -0.066843  0.000000 -0.000000  1.207355
  1O   3dxy       0.000000 -0.592299  0.000000  0.000000 -0.000000 -0.000000
  1O   1f0        0.001533  0.000000 -0.008713 -0.000000 -0.000000 -0.000941
  1O   1f+1       0.000000  0.000000 -0.000000 -0.000000  0.001974  0.000000
  1O   1f-1      -0.000000  0.000000  0.000000 -0.002610 -0.000000 -0.000000
  1O   1f+2      -0.006272 -0.000000 -0.001584 -0.000000  0.000000 -0.015188
  1O   1f-2       0.000000 -0.006401  0.000000  0.000000  0.000000  0.000000
  1O   1f+3      -0.000000 -0.000000  0.000000  0.000000 -0.000534 -0.000000
  1O   1f-3      -0.000000 -0.000000  0.000000  0.000505  0.000000 -0.000000
  1O   2f0       -0.023861 -0.000000  0.151424 -0.000000 -0.000000  0.019787
  1O   2f+1      -0.000000  0.000000  0.000000  0.000000 -0.047754 -0.000000
  1O   2f-1       0.000000 -0.000000 -0.000000  0.050281  0.000000  0.000000
  1O   2f+2       0.007719  0.000000  0.004202  0.000000 -0.000000  0.090075
  1O   2f-2      -0.000000  0.008115 -0.000000  0.000000 -0.000000 -0.000000
  1O   2f+3       0.000000 -0.000000 -0.000000 -0.000000  0.000594  0.000000
  1O   2f-3       0.000000  0.000000 -0.000000 -0.000635 -0.000000 -0.000000
                     24        25        26        27        28        29   
                   0.79958   0.81595   0.82617   0.86376   0.90083   0.90701
                   0.00000   0.00000   0.00000   0.00000   0.00000   0.00000
                  --------  --------  --------  --------  --------  --------
  0O   1s        -0.000000  0.000000 -0.000000 -0.080486 -0.000000  0.000000
  0O   2s        -0.000000  0.000000 -0.000000  0.023010  0.000000  0.000000
  0O   3s        -0.000000  0.000000  0.000000  0.005310  0.000000  0.000000
  0O   4s         0.000000 -0.000000 -0.000000  8.487288  0.000000 -0.000000
  0O   5s        -0.000000 -0.000000 -0.000000 10.757323  0.000000 -0.000000
  0O   1pz        0.000000 -0.000000  0.000000 -0.091252 -0.000000 -0.000000
  0O   1px       -0.000000  0.127171  0.000000  0.000000  0.171988 -0.000000
  0O   1py        0.000000 -0.000000  0.139571  0.000000 -0.000000 -0.176094
  0O   2pz       -0.000000  0.000000  0.000000 -0.334770 -0.000000 -0.000000
  0O   2px       -0.000000  0.283389  0.000000  0.000000  0.538063 -0.000000
  0O   2py       -0.000000 -0.000000  0.303253  0.000000 -0.000000 -0.561617
  0O   3pz       -0.000000  0.000000  0.000000 -6.281699 -0.000000  0.000000
  0O   3px       -0.000000  2.155898  0.000000 -0.000000 -0.775936  0.000000
  0O   3py        0.000000 -0.000000  2.412726  0.000000  0.000000  0.764176
  0O   4pz        0.000000  0.000000  0.000000 -2.303603 -0.000000  0.000000
  0O   4px       -0.000000  1.254104  0.000000  0.000000  0.299154 -0.000000
  0O   4py       -0.000000 -0.000000  1.223060  0.000000 -0.000000 -0.294374
  0O   1dz2      -0.000000  0.000000 -0.000000  0.001381  0.000000  0.000000
  0O   1dxz      -0.000000 -0.015788 -0.000000 -0.000000  0.006643 -0.000000
  0O   1dyz       0.000000  0.000000 -0.013869  0.000000 -0.000000 -0.004809
  0O   1dx2y2    -0.000000  0.000000 -0.000000 -0.004573 -0.000000 -0.000000
  0O   1dxy      -0.027298 -0.000000 -0.000000  0.000000 -0.000000  0.000000
  0O   2dz2       0.000000 -0.000000 -0.000000  0.067262 -0.000000 -0.000000
  0O   2dxz       0.000000  0.003989 -0.000000  0.000000 -0.047793  0.000000
  0O   2dyz      -0.000000 -0.000000 -0.003825 -0.000000  0.000000  0.061590
  0O   2dx2y2     0.000000 -0.000000  0.000000  0.011560  0.000000  0.000000
  0O   2dxy       0.088272 -0.000000  0.000000 -0.000000  0.000000  0.000000
  0O   3dz2      -0.000000 -0.000000 -0.000000  2.251423  0.000000  0.000000
  0O   3dxz       0.000000 -2.296517 -0.000000 -0.000000  0.265313 -0.000000
  0O   3dyz       0.000000  0.000000 -2.418653 -0.000000 -0.000000 -0.274249
  0O   3dx2y2    -0.000000  0.000000 -0.000000 -0.157627 -0.000000 -0.000000
  0O   3dxy      -1.217639 -0.000000  0.000000  0.000000 -0.000000 -0.000000
  0O   1f0       -0.000000  0.000000  0.000000  0.011147  0.000000  0.000000
  0O   1f+1       0.000000 -0.024057 -0.000000  0.000000 -0.004699  0.000000
  0O   1f-1      -0.000000  0.000000 -0.025764  0.000000  0.000000  0.004620
  0O   1f+2      -0.000000  0.000000 -0.000000 -0.001296  0.000000 -0.000000
  0O   1f-2      -0.015242 -0.000000  0.000000  0.000000  0.000000  0.000000
  0O   1f+3       0.000000  0.001619  0.000000  0.000000  0.002813 -0.000000
  0O   1f-3      -0.000000 -0.000000  0.001720  0.000000 -0.000000 -0.002917
  0O   2f0       -0.000000  0.000000  0.000000 -0.142210  0.000000  0.000000
  0O   2f+1      -0.000000  0.191175  0.000000 -0.000000  0.028814 -0.000000
  0O   2f-1      -0.000000 -0.000000  0.207142  0.000000 -0.000000 -0.032146
  0O   2f+2       0.000000 -0.000000  0.000000  0.011958  0.000000  0.000000
  0O   2f-2       0.090869  0.000000 -0.000000 -0.000000  0.000000  0.000000
  0O   2f+3       0.000000 -0.003393 -0.000000 -0.000000 -0.008693  0.000000
  0O   2f-3       0.000000  0.000000 -0.002892 -0.000000  0.000000  0.008445
  1O   1s         0.000000 -0.000000 -0.000000  0.080486  0.000000 -0.000000
  1O   2s         0.000000 -0.000000 -0.000000 -0.023010 -0.000000 -0.000000
  1O   3s         0.000000 -0.000000 -0.000000 -0.005310 -0.000000 -0.000000
  1O   4s        -0.000000  0.000000  0.000000 -8.487288 -0.000000  0.000000
  1O   5s         0.000000  0.000000  0.000000-10.757323 -0.000000  0.000000
  1O   1pz        0.000000  0.000000 -0.000000 -0.091252 -0.000000 -0.000000
  1O   1px       -0.000000 -0.127171 -0.000000 -0.000000  0.171988 -0.000000
  1O   1py       -0.000000  0.000000 -0.139571 -0.000000 -0.000000 -0.176094
  1O   2pz        0.000000  0.000000 -0.000000 -0.334770 -0.000000  0.000000
  1O   2px       -0.000000 -0.283389 -0.000000 -0.000000  0.538063 -0.000000
  1O   2py       -0.000000  0.000000 -0.303253  0.000000 -0.000000 -0.561617
  1O   3pz       -0.000000  0.000000  0.000000 -6.281699 -0.000000  0.000000
  1O   3px        0.000000 -2.155898 -0.000000  0.000000 -0.775936  0.000000
  1O   3py        0.000000  0.000000 -2.412726 -0.000000  0.000000  0.764176
  1O   4pz        0.000000  0.000000  0.000000 -2.303603 -0.000000  0.000000
  1O   4px        0.000000 -1.254104 -0.000000 -0.000000  0.299154 -0.000000
  1O   4py       -0.000000  0.000000 -1.223060 -0.000000 -0.000000 -0.294374
  1O   1dz2       0.000000  0.000000 -0.000000 -0.001381 -0.000000 -0.000000
  1O   1dxz      -0.000000 -0.015788 -0.000000 -0.000000 -0.006643  0.000000
  1O   1dyz      -0.000000  0.000000 -0.013869 -0.000000  0.000000  0.004809
  1O   1dx2y2     0.000000 -0.000000  0.000000  0.004573  0.000000  0.000000
  1O   1dxy       0.027298  0.000000  0.000000 -0.000000  0.000000  0.000000
  1O   2dz2      -0.000000  0.000000  0.000000 -0.067262  0.000000  0.000000
  1O   2dxz       0.000000  0.003989 -0.000000  0.000000  0.047793 -0.000000
  1O   2dyz       0.000000 -0.000000 -0.003825  0.000000 -0.000000 -0.061590
  1O   2dx2y2    -0.000000  0.000000 -0.000000 -0.011560 -0.000000 -0.000000
  1O   2dxy      -0.088272 -0.000000  0.000000  0.000000 -0.000000 -0.000000
  1O   3dz2      -0.000000  0.000000  0.000000 -2.251423 -0.000000 -0.000000
  1O   3dxz       0.000000 -2.296517 -0.000000 -0.000000 -0.265313  0.000000
  1O   3dyz      -0.000000  0.000000 -2.418653 -0.000000  0.000000  0.274249
  1O   3dx2y2     0.000000 -0.000000  0.000000  0.157627  0.000000  0.000000
  1O   3dxy       1.217639  0.000000 -0.000000 -0.000000  0.000000  0.000000
  1O   1f0       -0.000000  0.000000 -0.000000  0.011147  0.000000  0.000000
  1O   1f+1      -0.000000  0.024057  0.000000  0.000000 -0.004699  0.000000
  1O   1f-1       0.000000 -0.000000  0.025764  0.000000  0.000000  0.004620
  1O   1f+2      -0.000000  0.000000 -0.000000 -0.001296  0.000000 -0.000000
  1O   1f-2      -0.015242  0.000000 -0.000000  0.000000 -0.000000 -0.000000
  1O   1f+3       0.000000 -0.001619 -0.000000  0.000000  0.002813 -0.000000
  1O   1f-3       0.000000  0.000000 -0.001720  0.000000 -0.000000 -0.002917
  1O   2f0       -0.000000  0.000000  0.000000 -0.142210 -0.000000  0.000000
  1O   2f+1       0.000000 -0.191175 -0.000000  0.000000  0.028814 -0.000000
  1O   2f-1      -0.000000  0.000000 -0.207142 -0.000000 -0.000000 -0.032146
  1O   2f+2       0.000000 -0.000000  0.000000  0.011958  0.000000  0.000000
  1O   2f-2       0.090869  0.000000 -0.000000 -0.000000 -0.000000 -0.000000
  1O   2f+3      -0.000000  0.003393  0.000000  0.000000 -0.008693  0.000000
  1O   2f-3      -0.000000 -0.000000  0.002892 -0.000000  0.000000  0.008445
                     30        31        32        33        34        35   
                   0.96902   0.99718   1.15768   1.15912   1.56732   1.85202
                   0.00000   0.00000   0.00000   0.00000   0.00000   0.00000
                  --------  --------  --------  --------  --------  --------
  0O   1s         0.000770  0.066903  0.000000  0.000000  0.226587 -0.000000
  0O   2s        -0.188387  0.103177  0.000000  0.000000  0.632135 -0.000000
  0O   3s        -0.025674  0.096710  0.000000  0.000000  0.150066  0.000000
  0O   4s         2.001495 -8.130384 -0.000000  0.000000  0.312256 -0.000000
  0O   5s        -0.963851-11.080131 -0.000000  0.000000 -0.239109  0.000000
  0O   1pz       -0.101919 -0.277957 -0.000000  0.000000 -0.057782  0.000000
  0O   1px       -0.000000 -0.000000  0.000000 -0.129727  0.000000 -0.000000
  0O   1py        0.000000  0.000000  0.144433  0.000000 -0.000000  0.000000
  0O   2pz       -0.717461 -0.070817 -0.000000  0.000000 -0.240408  0.000000
  0O   2px       -0.000000 -0.000000  0.000000 -0.390671  0.000000  0.000000
  0O   2py        0.000000 -0.000000  0.429781  0.000000  0.000000  0.000000
  0O   3pz        1.905115  6.993174  0.000000 -0.000000  1.023084  0.000000
  0O   3px        0.000000  0.000000 -0.000000  5.974649 -0.000000 -0.000000
  0O   3py       -0.000000  0.000000 -5.859560 -0.000000  0.000000 -0.000000
  0O   4pz        0.003413  2.130990  0.000000 -0.000000  0.374775 -0.000000
  0O   4px       -0.000000 -0.000000  0.000000  0.030345 -0.000000 -0.000000
  0O   4py        0.000000 -0.000000  0.007406 -0.000000  0.000000  0.000000
  0O   1dz2       0.031344  0.025118  0.000000 -0.000000 -0.005450  0.000000
  0O   1dxz       0.000000  0.000000 -0.000000  0.026469  0.000000  0.000000
  0O   1dyz       0.000000  0.000000 -0.026731 -0.000000  0.000000 -0.000000
  0O   1dx2y2     0.001763  0.000781 -0.000000  0.000000 -0.001341 -0.000000
  0O   1dxy      -0.000000 -0.000000  0.000000 -0.000000  0.000000 -0.003667
  0O   2dz2      -0.091586 -0.535035 -0.000000  0.000000  0.239193 -0.000000
  0O   2dxz      -0.000000 -0.000000  0.000000 -0.316333 -0.000000  0.000000
  0O   2dyz      -0.000000 -0.000000  0.319884  0.000000 -0.000000  0.000000
  0O   2dx2y2    -0.003954 -0.000685 -0.000000 -0.000000  0.038152 -0.000000
  0O   2dxy       0.000000  0.000000  0.000000  0.000000 -0.000000 -0.609610
  0O   3dz2      -0.955912 -1.126820 -0.000000  0.000000 -1.150519  0.000000
  0O   3dxz      -0.000000 -0.000000  0.000000 -3.273817  0.000000  0.000000
  0O   3dyz      -0.000000 -0.000000  3.173489  0.000000 -0.000000 -0.000000
  0O   3dx2y2     0.009579  0.012504 -0.000000 -0.000000 -0.028844  0.000000
  0O   3dxy      -0.000000 -0.000000  0.000000 -0.000000  0.000000  0.375676
  0O   1f0       -0.023196  0.038784  0.000000  0.000000  0.024186 -0.000000
  0O   1f+1      -0.000000 -0.000000  0.000000 -0.028476 -0.000000 -0.000000
  0O   1f-1       0.000000 -0.000000  0.026268  0.000000  0.000000 -0.000000
  0O   1f+2       0.001508  0.002333 -0.000000 -0.000000  0.003642 -0.000000
  0O   1f-2      -0.000000 -0.000000  0.000000 -0.000000 -0.000000 -0.036452
  0O   1f+3       0.000000 -0.000000  0.000000 -0.002130  0.000000  0.000000
  0O   1f-3       0.000000 -0.000000  0.002320  0.000000  0.000000  0.000000
  0O   2f0        0.278180  0.143148  0.000000 -0.000000 -0.251281  0.000000
  0O   2f+1       0.000000  0.000000 -0.000000  0.470479  0.000000  0.000000
  0O   2f-1       0.000000  0.000000 -0.459497 -0.000000  0.000000  0.000000
  0O   2f+2      -0.003726 -0.005091  0.000000  0.000000 -0.029604  0.000000
  0O   2f-2       0.000000  0.000000 -0.000000  0.000000  0.000000  0.336630
  0O   2f+3       0.000000  0.000000 -0.000000  0.007719 -0.000000 -0.000000
  0O   2f-3      -0.000000  0.000000 -0.007654 -0.000000  0.000000 -0.000000
  1O   1s         0.000770 -0.066903  0.000000  0.000000  0.226587 -0.000000
  1O   2s        -0.188387 -0.103177  0.000000  0.000000  0.632135 -0.000000
  1O   3s        -0.025674 -0.096710  0.000000  0.000000  0.150066 -0.000000
  1O   4s         2.001495  8.130384  0.000000 -0.000000  0.312256  0.000000
  1O   5s        -0.963851 11.080131  0.000000 -0.000000 -0.239109 -0.000000
  1O   1pz        0.101919 -0.277957 -0.000000  0.000000  0.057782 -0.000000
  1O   1px        0.000000  0.000000 -0.000000  0.129727 -0.000000 -0.000000
  1O   1py       -0.000000  0.000000 -0.144433 -0.000000  0.000000 -0.000000
  1O   2pz        0.717461 -0.070817 -0.000000  0.000000  0.240408  0.000000
  1O   2px        0.000000  0.000000 -0.000000  0.390671 -0.000000 -0.000000
  1O   2py       -0.000000  0.000000 -0.429781 -0.000000 -0.000000  0.000000
  1O   3pz       -1.905115  6.993174  0.000000 -0.000000 -1.023084  0.000000
  1O   3px       -0.000000 -0.000000  0.000000 -5.974649  0.000000  0.000000
  1O   3py        0.000000 -0.000000  5.859560  0.000000 -0.000000  0.000000
  1O   4pz       -0.003413  2.130990  0.000000 -0.000000 -0.374775 -0.000000
  1O   4px        0.000000  0.000000 -0.000000 -0.030345  0.000000  0.000000
  1O   4py       -0.000000  0.000000 -0.007406  0.000000 -0.000000 -0.000000
  1O   1dz2       0.031344 -0.025118  0.000000 -0.000000 -0.005450 -0.000000
  1O   1dxz       0.000000  0.000000 -0.000000  0.026469  0.000000  0.000000
  1O   1dyz      -0.000000  0.000000 -0.026731 -0.000000  0.000000 -0.000000
  1O   1dx2y2     0.001763 -0.000781 -0.000000  0.000000 -0.001341 -0.000000
  1O   1dxy      -0.000000  0.000000  0.000000  0.000000  0.000000 -0.003667
  1O   2dz2      -0.091586  0.535035  0.000000  0.000000  0.239193  0.000000
  1O   2dxz      -0.000000 -0.000000  0.000000 -0.316333 -0.000000 -0.000000
  1O   2dyz      -0.000000 -0.000000  0.319884  0.000000 -0.000000 -0.000000
  1O   2dx2y2    -0.003954  0.000685 -0.000000  0.000000  0.038152 -0.000000
  1O   2dxy       0.000000 -0.000000 -0.000000  0.000000 -0.000000 -0.609610
  1O   3dz2      -0.955912  1.126820  0.000000 -0.000000 -1.150519  0.000000
  1O   3dxz      -0.000000 -0.000000  0.000000 -3.273817  0.000000  0.000000
  1O   3dyz      -0.000000 -0.000000  3.173489  0.000000 -0.000000  0.000000
  1O   3dx2y2     0.009579 -0.012504  0.000000  0.000000 -0.028844  0.000000
  1O   3dxy      -0.000000  0.000000 -0.000000  0.000000  0.000000  0.375676
  1O   1f0        0.023196  0.038784  0.000000 -0.000000 -0.024186  0.000000
  1O   1f+1       0.000000  0.000000 -0.000000  0.028476  0.000000 -0.000000
  1O   1f-1       0.000000  0.000000 -0.026268 -0.000000 -0.000000 -0.000000
  1O   1f+2      -0.001508  0.002333  0.000000 -0.000000 -0.003642  0.000000
  1O   1f-2       0.000000 -0.000000  0.000000  0.000000  0.000000  0.036452
  1O   1f+3       0.000000 -0.000000 -0.000000  0.002130  0.000000  0.000000
  1O   1f-3       0.000000  0.000000 -0.002320 -0.000000 -0.000000  0.000000
  1O   2f0       -0.278180  0.143148  0.000000  0.000000  0.251281 -0.000000
  1O   2f+1      -0.000000 -0.000000  0.000000 -0.470479 -0.000000 -0.000000
  1O   2f-1      -0.000000 -0.000000  0.459497  0.000000 -0.000000  0.000000
  1O   2f+2       0.003726 -0.005091  0.000000  0.000000  0.029604 -0.000000
  1O   2f-2      -0.000000  0.000000 -0.000000 -0.000000 -0.000000 -0.336630
  1O   2f+3      -0.000000 -0.000000  0.000000 -0.007719 -0.000000 -0.000000
  1O   2f-3      -0.000000 -0.000000  0.007654  0.000000  0.000000 -0.000000
                     36        37        38        39        40        41   
                   1.85352   1.86637   1.86638   1.91511   1.92670   2.18371
                   0.00000   0.00000   0.00000   0.00000   0.00000   0.00000
                  --------  --------  --------  --------  --------  --------
  0O   1s        -0.015593 -0.000000  0.000000 -0.000000  0.000000  0.028193
  0O   2s        -0.040028 -0.000000  0.000000 -0.000000  0.000000  0.080646
  0O   3s        -0.005050 -0.000000  0.000000 -0.000000  0.000000  0.036587
  0O   4s        -0.008965  0.000000 -0.000000  0.000000 -0.000000 -1.226197
  0O   5s         0.010366  0.000000  0.000000  0.000000  0.000000 -0.725361
  0O   1pz        0.002443  0.000000  0.000000  0.000000 -0.000000 -0.005336
  0O   1px       -0.000000 -0.000000 -0.002817 -0.000000 -0.079024 -0.000000
  0O   1py       -0.000000 -0.003373  0.000000 -0.084371  0.000000 -0.000000
  0O   2pz        0.015503 -0.000000  0.000000 -0.000000  0.000000  0.052060
  0O   2px        0.000000  0.000000  0.008189 -0.000000 -0.051478  0.000000
  0O   2py       -0.000000  0.007285 -0.000000 -0.079161  0.000000  0.000000
  0O   3pz       -0.062917 -0.000000  0.000000 -0.000000  0.000000  0.749203
  0O   3px       -0.000000 -0.000000 -0.008075  0.000000  0.197260  0.000000
  0O   3py       -0.000000 -0.006659  0.000000  0.209159 -0.000000  0.000000
  0O   4pz       -0.015412 -0.000000 -0.000000 -0.000000 -0.000000  0.143829
  0O   4px       -0.000000  0.000000  0.002537 -0.000000 -0.047916  0.000000
  0O   4py       -0.000000  0.002165 -0.000000 -0.051616  0.000000  0.000000
  0O   1dz2       0.000283 -0.000000  0.000000 -0.000000  0.000000  0.001256
  0O   1dxz      -0.000000 -0.000000 -0.000155 -0.000000 -0.019473  0.000000
  0O   1dyz      -0.000000 -0.000221  0.000000 -0.017877  0.000000 -0.000000
  0O   1dx2y2     0.003727  0.000000  0.000000 -0.000000 -0.000000  0.010845
  0O   1dxy      -0.000000 -0.000000  0.000000 -0.000000 -0.000000 -0.000000
  0O   2dz2      -0.010363 -0.000000 -0.000000  0.000000 -0.000000 -0.008950
  0O   2dxz       0.000000 -0.000000 -0.015604 -0.000000 -0.780458 -0.000000
  0O   2dyz      -0.000000 -0.019477  0.000000 -0.779028  0.000000 -0.000000
  0O   2dx2y2     0.608776 -0.000000  0.000000 -0.000000  0.000000  0.718642
  0O   2dxy      -0.000000 -0.000000 -0.000000 -0.000000  0.000000 -0.000000
  0O   3dz2       0.061981  0.000000 -0.000000  0.000000 -0.000000 -0.213899
  0O   3dxz       0.000000  0.000000  0.015565  0.000000  0.615404 -0.000000
  0O   3dyz       0.000000  0.018467 -0.000000  0.609423 -0.000000 -0.000000
  0O   3dx2y2    -0.374693  0.000000 -0.000000  0.000000 -0.000000 -0.893328
  0O   3dxy       0.000000  0.000000  0.000000  0.000000 -0.000000  0.000000
  0O   1f0       -0.003312  0.000000  0.000000 -0.000000  0.000000 -0.001870
  0O   1f+1      -0.000000  0.000000  0.000171  0.000000  0.016124 -0.000000
  0O   1f-1       0.000000  0.000247 -0.000000  0.015817 -0.000000 -0.000000
  0O   1f+2       0.036232 -0.000000  0.000000 -0.000000  0.000000 -0.054590
  0O   1f-2      -0.000000 -0.000000 -0.000000 -0.000000 -0.000000  0.000000
  0O   1f+3       0.000000 -0.000000 -0.084469  0.000000  0.001170  0.000000
  0O   1f-3      -0.000000 -0.084466  0.000000  0.001464 -0.000000  0.000000
  0O   2f0        0.025716 -0.000000  0.000000 -0.000000  0.000000  0.062824
  0O   2f+1       0.000000 -0.000000 -0.004515 -0.000000 -0.100437  0.000000
  0O   2f-1       0.000000 -0.004992  0.000000 -0.097559  0.000000  0.000000
  0O   2f+2      -0.334990  0.000000 -0.000000  0.000000 -0.000000  0.569417
  0O   2f-2       0.000000 -0.000000  0.000000  0.000000  0.000000 -0.000000
  0O   2f+3      -0.000000  0.000000  0.663622 -0.000000 -0.012161 -0.000000
  0O   2f-3       0.000000  0.663557 -0.000000 -0.015364  0.000000 -0.000000
  1O   1s        -0.015593 -0.000000 -0.000000  0.000000 -0.000000 -0.028193
  1O   2s        -0.040028 -0.000000 -0.000000  0.000000 -0.000000 -0.080646
  1O   3s        -0.005050 -0.000000 -0.000000  0.000000 -0.000000 -0.036587
  1O   4s        -0.008965 -0.000000  0.000000 -0.000000  0.000000  1.226197
  1O   5s         0.010366 -0.000000 -0.000000 -0.000000 -0.000000  0.725361
  1O   1pz       -0.002443  0.000000  0.000000 -0.000000 -0.000000 -0.005336
  1O   1px        0.000000 -0.000000 -0.002817 -0.000000 -0.079024  0.000000
  1O   1py       -0.000000 -0.003373  0.000000 -0.084371  0.000000 -0.000000
  1O   2pz       -0.015503 -0.000000  0.000000 -0.000000  0.000000  0.052060
  1O   2px        0.000000  0.000000  0.008189 -0.000000 -0.051478 -0.000000
  1O   2py       -0.000000  0.007285 -0.000000 -0.079161  0.000000 -0.000000
  1O   3pz        0.062917 -0.000000  0.000000 -0.000000  0.000000  0.749203
  1O   3px        0.000000 -0.000000 -0.008075  0.000000  0.197260 -0.000000
  1O   3py        0.000000 -0.006659  0.000000  0.209159 -0.000000 -0.000000
  1O   4pz        0.015412 -0.000000 -0.000000 -0.000000 -0.000000  0.143829
  1O   4px        0.000000  0.000000  0.002537 -0.000000 -0.047916 -0.000000
  1O   4py       -0.000000  0.002165 -0.000000 -0.051616  0.000000 -0.000000
  1O   1dz2       0.000283  0.000000 -0.000000  0.000000 -0.000000 -0.001256
  1O   1dxz      -0.000000  0.000000  0.000155  0.000000  0.019473  0.000000
  1O   1dyz      -0.000000  0.000221 -0.000000  0.017877 -0.000000  0.000000
  1O   1dx2y2     0.003727  0.000000  0.000000  0.000000 -0.000000 -0.010845
  1O   1dxy      -0.000000  0.000000 -0.000000 -0.000000 -0.000000  0.000000
  1O   2dz2      -0.010363 -0.000000  0.000000 -0.000000  0.000000  0.008950
  1O   2dxz      -0.000000  0.000000  0.015604  0.000000  0.780458 -0.000000
[...]
---------------------------------------------------

EOM type                                   ... STEOM
Multiplicity                               ... singlet
Solver                                     ... Davidson
Convergence check                          ... for each root separately
Convergence threshold                      ... 1.00E-05
Root homing                                ... on
Preconditioning update                     ... CIS
Reduced space size (times number of roots) ... 40
Number of roots in the CIS initial guess   ... 400
Number of roots to be optimized            ... 10
Number of amplitudes to be optimized       ... 504

--------------------------------
AUTOMATIC CHOICE OF INCORE LEVEL
--------------------------------

Memory available                           ...  32000.00 MB
Memory needed for SIP and SEA amplitudes   ...      3.32 MB
 -> Final InCoreLevel    ... 1


Making SIP amplitudes for STEOM-CCSD       ... done (    0.0)
Making SEA amplitudes for STEOM-CCSD       ... done (    0.0)
Dressing integrals for STEOM-CCSD          ... 
Dressing of Occ / Occ block ... done (    0.0)
Dressing of Virt / Virt block ... done (    0.0)
done (   14.5)
done (    0.3)
Building the initial guess                 ... done (    0.0)
Solving Root No   1 

Iter    Delta-E          Residual              Time
---------------------------------------------------
  0   0.015078103877   0.005328655602         0.001
  1   0.003425140578   0.000655393553         0.001
  2   0.000325195179   0.000006634752         0.001

      *** CONVERGENCE OF RESIDUAL NORM REACHED ***
       --- The STEOM iterations have converged ---
Solving Root No   2 

Iter    Delta-E          Residual              Time
---------------------------------------------------
  0   0.291835814000   0.011593829591         0.001
  1   0.002763819800   0.000861939985         0.001
  2   0.000464947980   0.000007657810         0.001

      *** CONVERGENCE OF RESIDUAL NORM REACHED ***
       --- The STEOM iterations have converged ---
Solving Root No   3 

Iter    Delta-E          Residual              Time
---------------------------------------------------
  0   0.223872871741   0.015842436362         0.001
  1   0.010807341030   0.008927407847         0.001
  2   0.005802806254   0.000500404339         0.001
  3   0.000713619804   0.000059227193         0.001
  4   0.000040787382   0.000004298442         0.001

      *** CONVERGENCE OF RESIDUAL NORM REACHED ***
       --- The STEOM iterations have converged ---
Solving Root No   4 

Iter    Delta-E          Residual              Time
---------------------------------------------------
  0   0.378760027218   0.010105405026         0.001
  1   0.025495240904   0.027726864603         0.001
  2   0.018218392951   0.004761092460         0.001
  3   0.081207048693   0.004002600153         0.001
  4   0.002314442647   0.000150847172         0.001
  5   0.000105612103   0.000004585491         0.001

      *** CONVERGENCE OF RESIDUAL NORM REACHED ***
       --- The STEOM iterations have converged ---
Solving Root No   5 

Iter    Delta-E          Residual              Time
---------------------------------------------------
  0   0.294158023406   0.001093538787         0.001
  1   0.001760270472   0.000080487712         0.001
  2   0.000124350925   0.000005175024         0.001

      *** CONVERGENCE OF RESIDUAL NORM REACHED ***
       --- The STEOM iterations have converged ---
Solving Root No   6 

Iter    Delta-E          Residual              Time
---------------------------------------------------
  0   0.317948128786   0.002272981306         0.001
  1   0.007067729459   0.000910151567         0.001
  2   0.001727663118   0.000095258255         0.001
  3   0.000074823015   0.000009117235         0.001

      *** CONVERGENCE OF RESIDUAL NORM REACHED ***
       --- The STEOM iterations have converged ---
Solving Root No   7 

Iter    Delta-E          Residual              Time
---------------------------------------------------
  0   0.316170721788   0.003105482938         0.001
  1   0.013163659054   0.020696108117         0.001
  2   0.027978841447   0.004721809909         0.001
  3   0.003864661464   0.000233642412         0.001
  4   0.000036439126   0.000158422093         0.001
  5   0.000026159638   0.000020359426         0.001
  6   0.000054562765   0.000000666879         0.001

      *** CONVERGENCE OF RESIDUAL NORM REACHED ***
       --- The STEOM iterations have converged ---
Solving Root No   8 

Iter    Delta-E          Residual              Time
---------------------------------------------------
  0   0.371695322590   0.005640354370         0.001
  1   0.016968344043   0.006675365033         0.001
  2   0.015446960902   0.005378835249         0.001
  3   0.008660443348   0.001282943655         0.001
  4   0.000952743960   0.000034000717         0.001
  5   0.000002437746   0.000001504837         0.001

      *** CONVERGENCE OF RESIDUAL NORM REACHED ***
       --- The STEOM iterations have converged ---
Solving Root No   9 

Iter    Delta-E          Residual              Time
---------------------------------------------------
  0   0.385567566324   0.000395498854         0.001
  1   0.000671400244   0.000047574936         0.001
  2   0.000423400215   0.000392375021         0.001
  3   0.000396829420   0.000050621253         0.001
  4   0.000029871520   0.000001982623         0.001

      *** CONVERGENCE OF RESIDUAL NORM REACHED ***
       --- The STEOM iterations have converged ---
Solving Root No  10 

Iter    Delta-E          Residual              Time
---------------------------------------------------
  0   0.405238443049   0.000590940786         0.001
  1   0.000371545423   0.000584309702         0.001
  2   0.001133158687   0.000210086537         0.001
  3   0.000225183673   0.000022745309         0.001
  4   0.000066463182   0.000000661775         0.001

      *** CONVERGENCE OF RESIDUAL NORM REACHED ***
       --- The STEOM iterations have converged ---

------------------
STEOM-CCSD RESULTS
------------------

IROOT=  1: -0.018828 au    -0.512 eV   -4132.4 cm**-1
  Amplitude    Excitation
  -0.968344     7 ->   8
  -0.247320     7 ->  14
  Ground state amplitude:  0.000005

Percentage Active Character     99.95

  Amplitude    Excitation in Canonical Basis
  -0.972690     7 ->   8
   0.205286     7 ->  15

IROOT=  2:  0.206508 au     5.619 eV   45323.3 cm**-1
  Amplitude    Excitation
  -0.957134     4 ->   8
  -0.247058     4 ->  14
   0.145294     7 ->  11
  Ground state amplitude: -0.000000

Percentage Active Character     99.89

  Amplitude    Excitation in Canonical Basis
  -0.961510     4 ->   8
   0.205430     4 ->  15
   0.142865     7 ->  11

IROOT=  3:  0.288607 au     7.853 eV   63341.9 cm**-1
  Amplitude    Excitation
   0.961736     5 ->   8
   0.251172     5 ->  14
  Ground state amplitude:  0.000000

Percentage Active Character     98.86

  Amplitude    Excitation in Canonical Basis
   0.970370     5 ->   8
  -0.208570     5 ->  15

IROOT=  4:  0.292273 au     7.953 eV   64146.6 cm**-1
  Amplitude    Excitation
   0.884799     7 ->  10
   0.463406     7 ->  13
  Ground state amplitude: -0.000000

Percentage Active Character     99.92

  Amplitude    Excitation in Canonical Basis
   0.890003     7 ->  10
  -0.441014     7 ->  13

IROOT=  5:  0.309078 au     8.410 eV   67834.8 cm**-1
  Amplitude    Excitation
  -0.992492     7 ->   9
  -0.101806     7 ->  15
  Ground state amplitude:  0.000000

Percentage Active Character     99.77

  Amplitude    Excitation in Canonical Basis
  -0.951899     7 ->   9
   0.276365     7 ->  16
  -0.115815     7 ->  17

IROOT=  6:  0.327166 au     8.903 eV   71804.5 cm**-1
  Amplitude    Excitation
  -0.996062     7 ->  11
  Ground state amplitude:  0.000000

Percentage Active Character     99.96

  Amplitude    Excitation in Canonical Basis
  -0.991760     7 ->  11
   0.107401     7 ->  29

IROOT=  7:  0.329669 au     8.971 eV   72354.0 cm**-1
  Amplitude    Excitation
   0.204481     6 ->   8
  -0.973724     7 ->  12
  Ground state amplitude:  0.000000

Percentage Active Character     99.64

  Amplitude    Excitation in Canonical Basis
   0.205004     6 ->   8
  -0.971065     7 ->  12

IROOT=  8:  0.384840 au    10.472 eV   84462.6 cm**-1
  Amplitude    Excitation
   0.466668     7 ->  10
  -0.882461     7 ->  13
  Ground state amplitude:  0.000000

Percentage Active Character     99.95

  Amplitude    Excitation in Canonical Basis
   0.449877     7 ->  10
   0.879177     7 ->  13
  -0.141473     7 ->  20

IROOT=  9:  0.404185 au    10.998 eV   88708.4 cm**-1
  Amplitude    Excitation
   0.230132     7 ->   8
  -0.972166     7 ->  14
  Ground state amplitude: -0.000000

Percentage Active Character     99.97

  Amplitude    Excitation in Canonical Basis
   0.198921     7 ->   8
   0.972367     7 ->  15
  -0.103978     7 ->  26

IROOT= 10:  0.413833 au    11.261 eV   90825.9 cm**-1
  Amplitude    Excitation
   0.157648     4 ->  18
  -0.240382     5 ->  15
   0.850003     6 ->   8
   0.161917     6 ->  14
   0.383987     7 ->  12
  Ground state amplitude:  0.000000

Percentage Active Character     96.39

Warning:: the state may have not converged with respect to active space 
-------------------- Handle with Care -------------------- 

  Amplitude    Excitation in Canonical Basis
   0.157648     4 ->  14
  -0.212578     5 ->  17
   0.854378     6 ->   8
  -0.129821     6 ->  15
   0.384274     7 ->  12


STEOM-CCSD done (    0.4 sec)
Calculating the Dipole integrals                  ... done
Transforming integrals                            ... done
Calculating the Linear Momentum integrals         ... done
Transforming integrals                            ... done
Calculating angular momentum integrals            ... done
Transforming integrals                            ... done

--------------------------------------------------------------------
               UNRELAXED EXCITED STATE DIPOLE MOMENTS
--------------------------------------------------------------------
               E(eV)     DX(au)      DY(au)      DZ(au)      |D|(D)
IROOT=  0:     0.000    0.000000   -0.000000    0.000000    0.000000
IROOT=  1:    -0.512   -0.000000    0.000042   -0.000619    0.001576
IROOT=  2:     5.619   -0.000000   -0.000000    0.000641    0.001630
IROOT=  3:     7.853    0.000000    0.000001    0.000016    0.000040
IROOT=  4:     7.953    0.000000    0.000000    0.000004    0.000010
IROOT=  5:     8.410    0.000000   -0.000101   -0.000005    0.000256
IROOT=  6:     8.903   -0.000000   -0.000000   -0.000125    0.000319
IROOT=  7:     8.971    0.000000   -0.000000    0.000000    0.000000
IROOT=  8:    10.472    0.000000   -0.000000    0.000001    0.000002
IROOT=  9:    10.998   -0.000000    0.000059    0.000199    0.000527
IROOT= 10:    11.261    0.000000   -0.000000   -0.000000    0.000000
--------------------------------------------------------------------

-----------------------------------------------------------------------------
         ABSORPTION SPECTRUM VIA TRANSITION ELECTRIC DIPOLE MOMENTS
-----------------------------------------------------------------------------
State   Energy  Wavelength   fosc         T2         TX        TY        TZ  
        (cm-1)    (nm)                  (au**2)     (au)      (au)      (au) 
-----------------------------------------------------------------------------
   1   -4132.4   -2419.9   -0.000000000   0.00000   0.00000   0.00000   0.00000
   2   45323.3    220.6   0.000000000   0.00000   0.00000   0.00000   0.00000
   3   63341.9    157.9   0.000000000   0.00000   0.00000   0.00000   0.00000
   4   64146.6    155.9   0.000000000   0.00000   0.00000   0.00000   0.00000
   5   67834.8    147.4   0.023245721   0.11281   0.33588   0.00000   0.00000
   6   71804.5    139.3   0.000000000   0.00000   0.00000   0.00000   0.00000
   7   72354.0    138.2   0.083582867   0.38030   0.00000   0.00000   0.61669
   8   84462.6    118.4   0.000000000   0.00000   0.00000   0.00000   0.00000
   9   88708.4    112.7   0.000000000   0.00000   0.00000   0.00000   0.00000
  10   90825.9    110.1   0.116576166   0.42255   0.00000   0.00000   0.65004

-------------------------------------------------------------------
                             CD SPECTRUM
-------------------------------------------------------------------
State   Energy Wavelength       R         MX        MY        MZ   
        (cm-1)   (nm)       (1e40*cgs)   (au)      (au)      (au)  
-------------------------------------------------------------------
   1   -2419.9   -4132.4      0.00101  -0.00000   0.00000  -0.64694
   2     220.6   45323.3     -0.00000   0.00000   0.00000  -0.00282
   3     157.9   63341.9      0.00000   0.68916  -0.00000   0.00000
   4     155.9   64146.6      0.00000  -0.00000  -0.35395  -0.00000
   5     147.4   67834.8     -0.00000  -0.00000   0.00000   0.00016
   6     139.3   71804.5     -0.00000  -0.00000   0.00000   0.00005
   7     138.2   72354.0      0.00002  -0.00001  -0.00000   0.00000
   8     118.4   84462.6     -0.00000   0.00000   0.23248   0.00000
   9     112.7   88708.4     -0.00001   0.00000   0.00000  -0.02150
  10     110.1   90825.9     -0.00102  -0.00001  -0.00000   0.00004

TDM done (    0.5 sec)


------------------------------------------------------------------------------- 
                                     TIMINGS                                   
------------------------------------------------------------------------------- 


Total execution time                   ...       14.698 sec

Fock Matrix Formation                  ...        0.823 sec (  5.6%)
Initial Guess                          ...        0.004 sec (  0.0%)
DIIS Solver                            ...        0.116 sec (  0.8%)
State Vector Update                    ...        0.006 sec (  0.0%)
Sigma-vector construction              ...        2.256 sec ( 15.4%)
  <0|H|D>                              ...        0.002 sec (  0.1% of sigma)
  <D|H|D>(0-ext)                       ...        0.016 sec (  0.7% of sigma)
  <D|H|D>(2-ext Fock)                  ...        0.004 sec (  0.2% of sigma)
  <D|H|D>(2-ext)                       ...        0.091 sec (  4.0% of sigma)
  <D|H|D>(4-ext)                       ...        0.298 sec ( 13.2% of sigma)
  <D|H|D>(4-ext-corr)                  ...        0.178 sec (  7.9% of sigma)
  <S|H|0>                              ...        0.002 sec (  0.1% of sigma)
  <S|H|S>                              ...        0.003 sec (  0.1% of sigma)
  <S|H|D>(1-ext)                       ...        0.007 sec (  0.3% of sigma)
  <D|H|S>(1-ext)                       ...        0.014 sec (  0.6% of sigma)
  <S|H|D>(3-ext)                       ...        0.093 sec (  4.1% of sigma)
  Fock-dressing                        ...        1.178 sec ( 52.2% of sigma)
  (ik|jl)-dressing                     ...        0.011 sec (  0.5% of sigma)
  (ij|ab),(ia|jb)-dressing             ...        0.279 sec ( 12.3% of sigma)
  Pair energies                        ...        0.002 sec (  0.1% of sigma)
Total Time for computing STEOM-CCSD    ...        7.828 sec ( 53.3% of ALL)
  Dressing integrals                   ...        0.739 sec (  9.4% of (STEOM))
  EOM+STEOM Singles                    ...        0.269 sec (  3.4% of (STEOM))
  EOM Doubles                          ...        4.917 sec ( 62.8% of (STEOM))
  Build Hamiltonian                    ...        0.218 sec (  2.8% of (STEOM))
  Diagonalize Hamiltonian              ...        0.048 sec (  0.6% of (STEOM))
  Ritz vectors                         ...        0.202 sec (  2.6% of (STEOM))
  Residual vectors                     ...        0.218 sec (  2.8% of (STEOM))
  Orthogonalization                    ...        0.622 sec (  7.9% of (STEOM))
One-particle density matrix            ...        0.001 sec (  0.0%)


Maximum memory used throughout the entire MDCI-calculation: 500.2 MB

-------------------------   --------------------
FINAL SINGLE POINT ENERGY      -150.088177937666
-------------------------   --------------------


                            ***************************************
                            *     ORCA property calculations      *
                            ***************************************

                                    ---------------------
                                    Active property flags
                                    ---------------------
   (+) Dipole Moment


------------------------------------------------------------------------------
                       ORCA ELECTRIC PROPERTIES CALCULATION
------------------------------------------------------------------------------

Dipole Moment Calculation                       ... on
Quadrupole Moment Calculation                   ... off
Polarizability Calculation                      ... off
GBWName                                         ... 000012.gbw
Electron density file                           ... 000012.scfp
The origin for moment calculation is the CENTER OF MASS  = ( 0.000000,  0.000000  0.000000)

-------------
DIPOLE MOMENT
-------------
                                X             Y             Z
Electronic contribution:     -0.00000       0.00000       0.00000
Nuclear contribution   :      0.00000       0.00000       0.00000
                        -----------------------------------------
Total Dipole Moment    :     -0.00000       0.00000       0.00000
                        -----------------------------------------
Magnitude (a.u.)       :      0.00000
Magnitude (Debye)      :      0.00000



--------------------
Rotational spectrum 
--------------------
 
Rotational constants in cm-1:     0.000000     1.478689     1.478689 
Rotational constants in MHz :     0.000000 44329.969530 44329.969530 

 Dipole components along the rotational axes: 
x,y,z [a.u.] :     0.000000     0.000000    -0.000000 
x,y,z [Debye]:     0.000000     0.000000    -0.000000 

 

                           *** MDCI DENSITY ***

------------------------------------------------------------------------------
                       ORCA ELECTRIC PROPERTIES CALCULATION
------------------------------------------------------------------------------

Dipole Moment Calculation                       ... on
Quadrupole Moment Calculation                   ... off
Polarizability Calculation                      ... off
GBWName                                         ... 000012.gbw
Electron density file                           ... 000012.mdcip
The origin for moment calculation is the CENTER OF MASS  = ( 0.000000,  0.000000  0.000000)

-------------
DIPOLE MOMENT
-------------
                                X             Y             Z
Electronic contribution:      0.00000      -0.00000       0.00000
Nuclear contribution   :      0.00000       0.00000       0.00000
                        -----------------------------------------
Total Dipole Moment    :      0.00000      -0.00000       0.00000
                        -----------------------------------------
Magnitude (a.u.)       :      0.00000
Magnitude (Debye)      :      0.00000



--------------------
Rotational spectrum 
--------------------
 
Rotational constants in cm-1:     0.000000     1.478689     1.478689 
Rotational constants in MHz :     0.000000 44329.969530 44329.969530 

 Dipole components along the rotational axes: 
x,y,z [a.u.] :     0.000000    -0.000000     0.000000 
x,y,z [Debye]:     0.000000    -0.000000     0.000000 

 

Timings for individual modules:

Sum of individual times         ...       21.350 sec (=   0.356 min)
GTO integral calculation        ...        1.850 sec (=   0.031 min)   8.7 %
SCF iterations                  ...        3.591 sec (=   0.060 min)  16.8 %
MDCI module                     ...       15.910 sec (=   0.265 min)  74.5 %
                             ****ORCA TERMINATED NORMALLY****
TOTAL RUN TIME: 0 days 0 hours 0 minutes 22 seconds 205 msec
