 Entering Gaussian System, Link 0=g16
 Input=000029.com
 Output=000029.log
 Initial command:
 /home/sabyasachi/g16/l1.exe "/scratch/sabyasachi/PBS_7976460.helios/Gau-47395.inp" -scrdir="/scratch/sabyasachi/PBS_7976460.helios/"
 Entering Link 1 = /home/sabyasachi/g16/l1.exe PID=     47396.
  
 Copyright (c) 1988-2019, Gaussian, Inc.  All Rights Reserved.
  
 This is part of the Gaussian(R) 16 program.  It is based on
 the Gaussian(R) 09 system (copyright 2009, Gaussian, Inc.),
 the Gaussian(R) 03 system (copyright 2003, Gaussian, Inc.),
 the Gaussian(R) 98 system (copyright 1998, Gaussian, Inc.),
 the Gaussian(R) 94 system (copyright 1995, Gaussian, Inc.),
 the Gaussian 92(TM) system (copyright 1992, Gaussian, Inc.),
 the Gaussian 90(TM) system (copyright 1990, Gaussian, Inc.),
 the Gaussian 88(TM) system (copyright 1988, Gaussian, Inc.),
 the Gaussian 86(TM) system (copyright 1986, Carnegie Mellon
 University), and the Gaussian 82(TM) system (copyright 1983,
 Carnegie Mellon University). Gaussian is a federally registered
 trademark of Gaussian, Inc.
  
 This software contains proprietary and confidential information,
 including trade secrets, belonging to Gaussian, Inc.
  
 This software is provided under written license and may be
 used, copied, transmitted, or stored only in accord with that
 written license.
  
 The following legend is applicable only to US Government
 contracts under FAR:
  
                    RESTRICTED RIGHTS LEGEND
  
 Use, reproduction and disclosure by the US Government is
 subject to restrictions as set forth in subparagraphs (a)
 and (c) of the Commercial Computer Software - Restricted
 Rights clause in FAR 52.227-19.
  
 Gaussian, Inc.
 340 Quinnipiac St., Bldg. 40, Wallingford CT 06492
  
  
 ---------------------------------------------------------------
 Warning -- This program may not be used in any manner that
 competes with the business of Gaussian, Inc. or will provide
 assistance to any competitor of Gaussian, Inc.  The licensee
 of this program is prohibited from giving any competitor of
 Gaussian, Inc. access to this program.  By using this program,
 the user acknowledges that Gaussian, Inc. is engaged in the
 business of creating and licensing software in the field of
 computational chemistry and represents and warrants to the
 licensee that it is not a competitor of Gaussian, Inc. and that
 it will not use this program in any manner prohibited above.
 ---------------------------------------------------------------
  

 Cite this work as:
 Gaussian 16, Revision C.01,
 M. J. Frisch, G. W. Trucks, H. B. Schlegel, G. E. Scuseria, 
 M. A. Robb, J. R. Cheeseman, G. Scalmani, V. Barone, 
 G. A. Petersson, H. Nakatsuji, X. Li, M. Caricato, A. V. Marenich, 
 J. Bloino, B. G. Janesko, R. Gomperts, B. Mennucci, H. P. Hratchian, 
 J. V. Ortiz, A. F. Izmaylov, J. L. Sonnenberg, D. Williams-Young, 
 F. Ding, F. Lipparini, F. Egidi, J. Goings, B. Peng, A. Petrone, 
 T. Henderson, D. Ranasinghe, V. G. Zakrzewski, J. Gao, N. Rega, 
 G. Zheng, W. Liang, M. Hada, M. Ehara, K. Toyota, R. Fukuda, 
 J. Hasegawa, M. Ishida, T. Nakajima, Y. Honda, O. Kitao, H. Nakai, 
 T. Vreven, K. Throssell, J. A. Montgomery, Jr., J. E. Peralta, 
 F. Ogliaro, M. J. Bearpark, J. J. Heyd, E. N. Brothers, K. N. Kudin, 
 V. N. Staroverov, T. A. Keith, R. Kobayashi, J. Normand, 
 K. Raghavachari, A. P. Rendell, J. C. Burant, S. S. Iyengar, 
 J. Tomasi, M. Cossi, J. M. Millam, M. Klene, C. Adamo, R. Cammi, 
 J. W. Ochterski, R. L. Martin, K. Morokuma, O. Farkas, 
 J. B. Foresman, and D. J. Fox, Gaussian, Inc., Wallingford CT, 2019.
 
 ******************************************
 Gaussian 16:  EM64L-G16RevC.01  3-Jul-2019
                21-Mar-2022 
 ******************************************
 %mem=64gb
 %nproc=8
 Will use up to    8 processors via shared memory.
 ----------------------------------------------------------------------
 #P TD(Nstates=10000) pbepbe/Gen SCF(maxcycles=100) Int(Grid=ultrafine)
 ----------------------------------------------------------------------
 1/38=1,172=1/1;
 2/12=2,17=6,18=5,40=1/2;
 3/5=7,11=9,25=1,30=1,74=1009,75=-5/1,2,3,8;
 4//1;
 5/5=2,7=100,38=5/2;
 8/6=1,10=1,108=10000/1;
 9/41=10000,42=1,70=2/14;
 6/7=2,8=2,9=2,10=2/1;
 99/5=1,9=1/99;
 Leave Link    1 at Mon Mar 21 20:11:56 2022, MaxMem=  8589934592 cpu:               0.4 elap:               0.1
 (Enter /home/sabyasachi/g16/l101.exe)
 ---------------------
 xGDB7_00001_tier4.com
 ---------------------
 Symbolic Z-matrix:
 Charge =  0 Multiplicity = 1
 8                    -1.02862  -0.39518   0. 
 7                     0.        0.52623   0. 
 6                     1.13275  -0.03091   0. 
 1                    -1.81657   0.15179   0. 
 1                     1.99426   0.62344   0. 
 1                     1.2548   -1.11197   0. 
 
 ITRead=  0  0  0  0  0  0
 MicOpt= -1 -1 -1 -1 -1 -1
 NAtoms=      6 NQM=        6 NQMF=       0 NMMI=      0 NMMIF=      0
                NMic=       0 NMicF=      0.
                    Isotopes and Nuclear Properties:
 (Nuclear quadrupole moments (NQMom) in fm**2, nuclear magnetic moments (NMagM)
  in nuclear magnetons)

  Atom         1           2           3           4           5           6
 IAtWgt=          16          14          12           1           1           1
 AtmWgt=  15.9949146  14.0030740  12.0000000   1.0078250   1.0078250   1.0078250
 NucSpn=           0           2           0           1           1           1
 AtZEff=  -0.0000000  -0.0000000  -0.0000000  -0.0000000  -0.0000000  -0.0000000
 NQMom=    0.0000000   2.0440000   0.0000000   0.0000000   0.0000000   0.0000000
 NMagM=    0.0000000   0.4037610   0.0000000   2.7928460   2.7928460   2.7928460
 AtZNuc=   8.0000000   7.0000000   6.0000000   1.0000000   1.0000000   1.0000000
 Leave Link  101 at Mon Mar 21 20:11:56 2022, MaxMem=  8589934592 cpu:               0.6 elap:               0.1
 (Enter /home/sabyasachi/g16/l202.exe)
                          Input orientation:                          
 ---------------------------------------------------------------------
 Center     Atomic      Atomic             Coordinates (Angstroms)
 Number     Number       Type             X           Y           Z
 ---------------------------------------------------------------------
      1          8           0       -1.028621   -0.395177    0.000000
      2          7           0        0.000000    0.526228    0.000000
      3          6           0        1.132746   -0.030907    0.000000
      4          1           0       -1.816572    0.151791    0.000000
      5          1           0        1.994262    0.623439    0.000000
      6          1           0        1.254802   -1.111965    0.000000
 ---------------------------------------------------------------------
                    Distance matrix (angstroms):
                    1          2          3          4          5
     1  O    0.000000
     2  N    1.380959   0.000000
     3  C    2.191849   1.262344   0.000000
     4  H    0.959188   1.854761   2.954971   0.000000
     5  H    3.189890   1.996630   1.081840   3.839910   0.000000
     6  H    2.393283   2.063542   1.087926   3.321207   1.886380
                    6
     6  H    0.000000
 Stoichiometry    CH3NO
 Framework group  CS[SG(CH3NO)]
 Deg. of freedom     9
 Full point group                 CS      NOp   2
 Largest Abelian subgroup         CS      NOp   2
 Largest concise Abelian subgroup C1      NOp   1
                         Standard orientation:                         
 ---------------------------------------------------------------------
 Center     Atomic      Atomic             Coordinates (Angstroms)
 Number     Number       Type             X           Y           Z
 ---------------------------------------------------------------------
      1          8           0       -1.028621   -0.395177   -0.000000
      2          7           0       -0.000000    0.526228   -0.000000
      3          6           0        1.132746   -0.030907    0.000000
      4          1           0       -1.816572    0.151791   -0.000000
      5          1           0        1.994262    0.623439    0.000000
      6          1           0        1.254802   -1.111965    0.000000
 ---------------------------------------------------------------------
 Rotational constants (GHZ):          71.1254820          11.9936263          10.2630126
 Leave Link  202 at Mon Mar 21 20:11:56 2022, MaxMem=  8589934592 cpu:               0.1 elap:               0.0
 (Enter /home/sabyasachi/g16/l301.exe)
 General basis read from cards:  (5D, 7F)
 Centers:       4      5      6
 S 3 1.00
     Exponent=  1.3010701000D+01 Coefficients=  1.9682158000D-02
     Exponent=  1.9622572000D+00 Coefficients=  1.3796524000D-01
     Exponent=  4.4453796000D-01 Coefficients=  4.7831935000D-01
 S 1 1.00
     Exponent=  1.2194962000D-01 Coefficients=  1.0000000000D+00
 P 1 1.00
     Exponent=  8.0000000000D-01 Coefficients=  1.0000000000D+00
 P 1 1.00
     Exponent=  1.1704099050D-01 Coefficients=  1.0000000000D+00
 ****
 Centers:       3
 S 5 1.00
     Exponent=  1.2384016938D+03 Coefficients=  5.4568832082D-03
     Exponent=  1.8629004992D+02 Coefficients=  4.0638409211D-02
     Exponent=  4.2251176346D+01 Coefficients=  1.8025593888D-01
     Exponent=  1.1676557932D+01 Coefficients=  4.6315121755D-01
     Exponent=  3.5930506482D+00 Coefficients=  4.4087173314D-01
 S 1 1.00
     Exponent=  4.0245147363D-01 Coefficients=  1.0000000000D+00
 S 1 1.00
     Exponent=  1.3090182668D-01 Coefficients=  1.0000000000D+00
 S 1 1.00
     Exponent=  6.7053540256D-02 Coefficients=  1.0000000000D+00
 P 3 1.00
     Exponent=  9.4680970621D+00 Coefficients=  3.8387871728D-02
     Exponent=  2.0103545142D+00 Coefficients=  2.1117025112D-01
     Exponent=  5.4771004707D-01 Coefficients=  5.1328172114D-01
 P 1 1.00
     Exponent=  1.5268613795D-01 Coefficients=  1.0000000000D+00
 D 1 1.00
     Exponent=  8.0000000000D-01 Coefficients=  1.0000000000D+00
 D 1 1.00
     Exponent=  1.1713185140D-01 Coefficients=  1.0000000000D+00
 ****
 Centers:       2
 S 5 1.00
     Exponent=  1.7128415853D+03 Coefficients= -5.3934125305D-03
     Exponent=  2.5764812677D+02 Coefficients= -4.0221581118D-02
     Exponent=  5.8458245853D+01 Coefficients= -1.7931144990D-01
     Exponent=  1.6198367905D+01 Coefficients= -4.6376317823D-01
     Exponent=  5.0052600809D+00 Coefficients= -4.4171422662D-01
 S 1 1.00
     Exponent=  5.8731856571D-01 Coefficients=  1.0000000000D+00
 S 1 1.00
     Exponent=  1.8764592253D-01 Coefficients=  1.0000000000D+00
 S 1 1.00
     Exponent=  9.6171241529D-02 Coefficients=  1.0000000000D+00
 P 3 1.00
     Exponent=  1.3571470233D+01 Coefficients= -4.0072398852D-02
     Exponent=  2.9257372874D+00 Coefficients= -2.1807045028D-01
     Exponent=  7.9927750754D-01 Coefficients= -5.1294466049D-01
 P 1 1.00
     Exponent=  2.1954348034D-01 Coefficients=  1.0000000000D+00
 D 1 1.00
     Exponent=  1.0000000000D+00 Coefficients=  1.0000000000D+00
 D 1 1.00
     Exponent=  1.6697708112D-01 Coefficients=  1.0000000000D+00
 ****
 Centers:       1
 S 5 1.00
     Exponent=  2.2661767785D+03 Coefficients= -5.3431809926D-03
     Exponent=  3.4087010191D+02 Coefficients= -3.9890039230D-02
     Exponent=  7.7363135167D+01 Coefficients= -1.7853911985D-01
     Exponent=  2.1479644940D+01 Coefficients= -4.6427684959D-01
     Exponent=  6.6589433124D+00 Coefficients= -4.4309745172D-01
 S 1 1.00
     Exponent=  8.0975975668D-01 Coefficients=  1.0000000000D+00
 S 1 1.00
     Exponent=  2.5530772234D-01 Coefficients=  1.0000000000D+00
 S 1 1.00
     Exponent=  7.6572453250D-02 Coefficients=  1.0000000000D+00
 P 3 1.00
     Exponent=  1.7721504317D+01 Coefficients=  4.3394573193D-02
     Exponent=  3.8635505440D+00 Coefficients=  2.3094120765D-01
     Exponent=  1.0480920883D+00 Coefficients=  5.1375311064D-01
 P 1 1.00
     Exponent=  2.7641544411D-01 Coefficients=  1.0000000000D+00
 P 1 1.00
     Exponent=  6.9002276350D-02 Coefficients=  1.0000000000D+00
 D 1 1.00
     Exponent=  1.2000000000D+00 Coefficients=  1.0000000000D+00
 D 1 1.00
     Exponent=  1.7992024323D-01 Coefficients=  1.0000000000D+00
 ****
 Ernie: Thresh=  0.10000D-02 Tol=  0.10000D-05 Strict=F.
 There are    68 symmetry adapted cartesian basis functions of A'  symmetry.
 There are    25 symmetry adapted cartesian basis functions of A"  symmetry.
 There are    62 symmetry adapted basis functions of A'  symmetry.
 There are    25 symmetry adapted basis functions of A"  symmetry.
    87 basis functions,   129 primitive gaussians,    93 cartesian basis functions
    12 alpha electrons       12 beta electrons
       nuclear repulsion energy        71.3165683749 Hartrees.
 IExCor= 1009 DFT=T Ex=PBE Corr=PBE ExCW=0 ScaHFX=  0.000000
 ScaDFX=  1.000000  1.000000  1.000000  1.000000 ScalE2=  1.000000  1.000000
 IRadAn=      5 IRanWt=     -1 IRanGd=            0 ICorTp=0 IEmpDi=  4
 NAtoms=    6 NActive=    6 NUniq=    6 SFac= 1.00D+00 NAtFMM=   60 NAOKFM=F Big=F
 Integral buffers will be    131072 words long.
 Regular integral format.
 Two-electron integral symmetry is turned on.
 Leave Link  301 at Mon Mar 21 20:11:56 2022, MaxMem=  8589934592 cpu:               0.6 elap:               0.1
 (Enter /home/sabyasachi/g16/l302.exe)
 NPDir=0 NMtPBC=     1 NCelOv=     1 NCel=       1 NClECP=     1 NCelD=      1
         NCelK=      1 NCelE2=     1 NClLst=     1 CellRange=     0.0.
 One-electron integrals computed using PRISM.
 One-electron integral symmetry used in STVInt
 NBasis=    87 RedAO= T EigKep=  4.94D-04  NBF=    62    25
 NBsUse=    87 1.00D-06 EigRej= -1.00D+00 NBFU=    62    25
 Precomputing XC quadrature grid using
 IXCGrd= 4 IRadAn=           5 IRanWt=          -1 IRanGd=           0 AccXCQ= 0.00D+00.
 Generated NRdTot=       0 NPtTot=           0 NUsed=           0 NTot=          32
 NSgBfM=    93    93    93    93    93 MxSgAt=     6 MxSgA2=     6.
 Leave Link  302 at Mon Mar 21 20:11:56 2022, MaxMem=  8589934592 cpu:               0.9 elap:               0.1
 (Enter /home/sabyasachi/g16/l303.exe)
 DipDrv:  MaxL=1.
 Leave Link  303 at Mon Mar 21 20:11:56 2022, MaxMem=  8589934592 cpu:               0.2 elap:               0.0
 (Enter /home/sabyasachi/g16/l308.exe)
 Leave Link  308 at Mon Mar 21 20:11:57 2022, MaxMem=  8589934592 cpu:               0.2 elap:               0.1
 (Enter /home/sabyasachi/g16/l401.exe)
 ExpMin= 6.71D-02 ExpMax= 2.27D+03 ExpMxC= 3.41D+02 IAcc=3 IRadAn=         5 AccDes= 0.00D+00
 Harris functional with IExCor= 1009 and IRadAn=       5 diagonalized for initial guess.
 HarFok:  IExCor= 1009 AccDes= 0.00D+00 IRadAn=         5 IDoV= 1 UseB2=F ITyADJ=14
 ICtDFT=  3500011 ScaDFX=  1.000000  1.000000  1.000000  1.000000
 FoFCou: FMM=F IPFlag=           0 FMFlag=      100000 FMFlg1=           0
         NFxFlg=           0 DoJE=T BraDBF=F KetDBF=T FulRan=T
         wScrn=  0.000000 ICntrl=       500 IOpCl=  0 I1Cent=   200000004 NGrid=           0
         NMat0=    1 NMatS0=      1 NMatT0=    0 NMatD0=    1 NMtDS0=    0 NMtDT0=    0
 Petite list used in FoFCou.
 Harris En= -169.539609786320    
 JPrj=0 DoOrth=F DoCkMO=F.
 Initial guess orbital symmetries:
       Occupied  (A') (A') (A') (A') (A') (A') (A') (A') (A') (A")
                 (A') (A")
       Virtual   (A") (A') (A') (A') (A') (A") (A') (A') (A') (A")
                 (A') (A") (A') (A') (A") (A') (A') (A") (A') (A')
                 (A') (A') (A") (A') (A') (A") (A') (A') (A') (A')
                 (A") (A') (A") (A') (A") (A") (A') (A') (A') (A')
                 (A') (A") (A') (A') (A') (A") (A') (A") (A') (A')
                 (A") (A') (A') (A') (A") (A') (A") (A') (A') (A')
                 (A") (A') (A") (A') (A') (A') (A") (A') (A") (A")
                 (A') (A') (A') (A') (A')
 The electronic state of the initial guess is 1-A'.
 Leave Link  401 at Mon Mar 21 20:11:57 2022, MaxMem=  8589934592 cpu:               1.8 elap:               0.3
 (Enter /home/sabyasachi/g16/l502.exe)
 Keep J ints in memory in symmetry-blocked form, NReq=14685034.
 FoFCou: FMM=F IPFlag=           0 FMFlag=           0 FMFlg1=           0
         NFxFlg=           0 DoJE=F BraDBF=F KetDBF=F FulRan=T
         wScrn=  0.000000 ICntrl=       600 IOpCl=  0 I1Cent=           0 NGrid=           0
         NMat0=    1 NMatS0=   3828 NMatT0=    0 NMatD0=    1 NMtDS0=    0 NMtDT0=    0
 Petite list used in FoFCou.
 Closed shell SCF:
 Using DIIS extrapolation, IDIIS=  1040.
 NGot=  8589934592 LenX=  8586108576 LenY=  8586099486
 Requested convergence on RMS density matrix=1.00D-08 within 100 cycles.
 Requested convergence on MAX density matrix=1.00D-06.
 Requested convergence on             energy=1.00D-06.
 No special actions if energy rises.
 Integral accuracy reduced to 1.0D-05 until final iterations.

 Cycle   1  Pass 0  IDiag  1:
 E= -169.465863062800    
 DIIS: error= 1.79D-02 at cycle   1 NSaved=   1.
 NSaved= 1 IEnMin= 1 EnMin= -169.465863062800     IErMin= 1 ErrMin= 1.79D-02
 ErrMax= 1.79D-02  0.00D+00 EMaxC= 1.00D-01 BMatC= 4.88D-02 BMatP= 4.88D-02
 IDIUse=3 WtCom= 8.21D-01 WtEn= 1.79D-01
 Coeff-Com:  0.100D+01
 Coeff-En:   0.100D+01
 Coeff:      0.100D+01
 Gap=     0.167 Goal=   None    Shift=    0.000
 GapD=    0.167 DampG=1.000 DampE=0.500 DampFc=0.5000 IDamp=-1.
 Damping current iteration by 5.00D-01
 RMSDP=6.05D-03 MaxDP=1.31D-01              OVMax= 1.63D-01

 Cycle   2  Pass 0  IDiag  1:
 E= -169.475253577908     Delta-E=       -0.009390515108 Rises=F Damp=T
 DIIS: error= 9.49D-03 at cycle   2 NSaved=   2.
 NSaved= 2 IEnMin= 2 EnMin= -169.475253577908     IErMin= 2 ErrMin= 9.49D-03
 ErrMax= 9.49D-03  0.00D+00 EMaxC= 1.00D-01 BMatC= 9.70D-03 BMatP= 4.88D-02
 IDIUse=3 WtCom= 9.05D-01 WtEn= 9.49D-02
 Coeff-Com:  0.264D+00 0.736D+00
 Coeff-En:   0.401D+00 0.599D+00
 Coeff:      0.277D+00 0.723D+00
 Gap=     0.181 Goal=   None    Shift=    0.000
 RMSDP=2.66D-03 MaxDP=6.28D-02 DE=-9.39D-03 OVMax= 1.66D-01

 Cycle   3  Pass 0  IDiag  1:
 E= -169.501551769891     Delta-E=       -0.026298191983 Rises=F Damp=F
 DIIS: error= 1.39D-02 at cycle   3 NSaved=   3.
 NSaved= 3 IEnMin= 3 EnMin= -169.501551769891     IErMin= 2 ErrMin= 9.49D-03
 ErrMax= 1.39D-02  0.00D+00 EMaxC= 1.00D-01 BMatC= 1.09D-02 BMatP= 9.70D-03
 IDIUse=2 WtCom= 0.00D+00 WtEn= 1.00D+00
 Coeff-En:   0.000D+00 0.000D+00 0.100D+01
 Coeff:      0.000D+00 0.000D+00 0.100D+01
 Gap=     0.176 Goal=   None    Shift=    0.000
 RMSDP=4.33D-03 MaxDP=1.16D-01 DE=-2.63D-02 OVMax= 1.60D-01

 Cycle   4  Pass 0  IDiag  1:
 E= -169.437532331367     Delta-E=        0.064019438524 Rises=F Damp=F
 DIIS: error= 3.60D-02 at cycle   4 NSaved=   4.
 NSaved= 4 IEnMin= 3 EnMin= -169.501551769891     IErMin= 2 ErrMin= 9.49D-03
 ErrMax= 3.60D-02  0.00D+00 EMaxC= 1.00D-01 BMatC= 8.03D-02 BMatP= 9.70D-03
 IDIUse=2 WtCom= 0.00D+00 WtEn= 1.00D+00
 Coeff-En:   0.000D+00 0.000D+00 0.814D+00 0.186D+00
 Coeff:      0.000D+00 0.000D+00 0.814D+00 0.186D+00
 Gap=     0.182 Goal=   None    Shift=    0.000
 RMSDP=2.04D-03 MaxDP=6.30D-02 DE= 6.40D-02 OVMax= 9.31D-02

 Cycle   5  Pass 0  IDiag  1:
 E= -169.505549491976     Delta-E=       -0.068017160610 Rises=F Damp=F
 DIIS: error= 1.13D-02 at cycle   5 NSaved=   5.
 NSaved= 5 IEnMin= 5 EnMin= -169.505549491976     IErMin= 2 ErrMin= 9.49D-03
 ErrMax= 1.13D-02  0.00D+00 EMaxC= 1.00D-01 BMatC= 7.06D-03 BMatP= 9.70D-03
 IDIUse=3 WtCom= 8.87D-01 WtEn= 1.13D-01
 Coeff-Com:  0.272D-01 0.454D-01 0.431D+00 0.571D-02 0.491D+00
 Coeff-En:   0.000D+00 0.000D+00 0.417D+00 0.000D+00 0.583D+00
 Coeff:      0.241D-01 0.403D-01 0.429D+00 0.507D-02 0.501D+00
 Gap=     0.189 Goal=   None    Shift=    0.000
 RMSDP=9.77D-04 MaxDP=2.40D-02 DE=-6.80D-02 OVMax= 3.01D-02

 Cycle   6  Pass 0  IDiag  1:
 E= -169.512083839854     Delta-E=       -0.006534347878 Rises=F Damp=F
 DIIS: error= 6.85D-04 at cycle   6 NSaved=   6.
 NSaved= 6 IEnMin= 6 EnMin= -169.512083839854     IErMin= 6 ErrMin= 6.85D-04
 ErrMax= 6.85D-04  0.00D+00 EMaxC= 1.00D-01 BMatC= 2.98D-05 BMatP= 7.06D-03
 IDIUse=3 WtCom= 9.93D-01 WtEn= 6.85D-03
 Coeff-Com:  0.926D-03 0.150D-01 0.163D+00-0.411D-01 0.329D+00 0.533D+00
 Coeff-En:   0.000D+00 0.000D+00 0.000D+00 0.000D+00 0.000D+00 0.100D+01
 Coeff:      0.920D-03 0.149D-01 0.162D+00-0.408D-01 0.327D+00 0.536D+00
 Gap=     0.189 Goal=   None    Shift=    0.000
 RMSDP=5.39D-05 MaxDP=1.10D-03 DE=-6.53D-03 OVMax= 2.34D-03

 Cycle   7  Pass 0  IDiag  1:
 E= -169.512109558631     Delta-E=       -0.000025718777 Rises=F Damp=F
 DIIS: error= 4.29D-05 at cycle   7 NSaved=   7.
 NSaved= 7 IEnMin= 7 EnMin= -169.512109558631     IErMin= 7 ErrMin= 4.29D-05
 ErrMax= 4.29D-05  0.00D+00 EMaxC= 1.00D-01 BMatC= 2.65D-07 BMatP= 2.98D-05
 IDIUse=1 WtCom= 1.00D+00 WtEn= 0.00D+00
 Coeff-Com: -0.407D-03 0.235D-02 0.332D-01-0.114D-01 0.757D-01 0.169D+00
 Coeff-Com:  0.732D+00
 Coeff:     -0.407D-03 0.235D-02 0.332D-01-0.114D-01 0.757D-01 0.169D+00
 Coeff:      0.732D+00
 Gap=     0.189 Goal=   None    Shift=    0.000
 RMSDP=9.12D-06 MaxDP=1.71D-04 DE=-2.57D-05 OVMax= 2.08D-04

 Initial convergence to 1.0D-05 achieved.  Increase integral accuracy.
 Cycle   8  Pass 1  IDiag  1:
 E= -169.512105453961     Delta-E=        0.000004104670 Rises=F Damp=F
 DIIS: error= 1.40D-05 at cycle   1 NSaved=   1.
 NSaved= 1 IEnMin= 1 EnMin= -169.512105453961     IErMin= 1 ErrMin= 1.40D-05
 ErrMax= 1.40D-05  0.00D+00 EMaxC= 1.00D-01 BMatC= 2.02D-08 BMatP= 2.02D-08
 IDIUse=1 WtCom= 1.00D+00 WtEn= 0.00D+00
 Coeff-Com:  0.100D+01
 Coeff:      0.100D+01
 Gap=     0.189 Goal=   None    Shift=    0.000
 RMSDP=9.12D-06 MaxDP=1.71D-04 DE= 4.10D-06 OVMax= 3.18D-04

 Cycle   9  Pass 1  IDiag  1:
 E= -169.512105300329     Delta-E=        0.000000153633 Rises=F Damp=F
 DIIS: error= 4.46D-05 at cycle   2 NSaved=   2.
 NSaved= 2 IEnMin= 1 EnMin= -169.512105453961     IErMin= 1 ErrMin= 1.40D-05
 ErrMax= 4.46D-05  0.00D+00 EMaxC= 1.00D-01 BMatC= 1.75D-07 BMatP= 2.02D-08
 IDIUse=1 WtCom= 1.00D+00 WtEn= 0.00D+00
 Coeff-Com:  0.751D+00 0.249D+00
 Coeff:      0.751D+00 0.249D+00
 Gap=     0.189 Goal=   None    Shift=    0.000
 RMSDP=4.46D-06 MaxDP=1.19D-04 DE= 1.54D-07 OVMax= 2.34D-04

 Cycle  10  Pass 1  IDiag  1:
 E= -169.512105475880     Delta-E=       -0.000000175551 Rises=F Damp=F
 DIIS: error= 2.10D-06 at cycle   3 NSaved=   3.
 NSaved= 3 IEnMin= 3 EnMin= -169.512105475880     IErMin= 3 ErrMin= 2.10D-06
 ErrMax= 2.10D-06  0.00D+00 EMaxC= 1.00D-01 BMatC= 5.33D-10 BMatP= 2.02D-08
 IDIUse=1 WtCom= 1.00D+00 WtEn= 0.00D+00
 Coeff-Com:  0.306D+00 0.105D+00 0.589D+00
 Coeff:      0.306D+00 0.105D+00 0.589D+00
 Gap=     0.189 Goal=   None    Shift=    0.000
 RMSDP=4.08D-07 MaxDP=5.38D-06 DE=-1.76D-07 OVMax= 8.29D-06

 Cycle  11  Pass 1  IDiag  1:
 E= -169.512105476278     Delta-E=       -0.000000000398 Rises=F Damp=F
 DIIS: error= 1.72D-06 at cycle   4 NSaved=   4.
 NSaved= 4 IEnMin= 4 EnMin= -169.512105476278     IErMin= 4 ErrMin= 1.72D-06
 ErrMax= 1.72D-06  0.00D+00 EMaxC= 1.00D-01 BMatC= 1.72D-10 BMatP= 5.33D-10
 IDIUse=1 WtCom= 1.00D+00 WtEn= 0.00D+00
 Coeff-Com:  0.156D+00 0.539D-01 0.392D+00 0.398D+00
 Coeff:      0.156D+00 0.539D-01 0.392D+00 0.398D+00
 Gap=     0.189 Goal=   None    Shift=    0.000
 RMSDP=1.27D-07 MaxDP=3.36D-06 DE=-3.98D-10 OVMax= 4.20D-06

 Cycle  12  Pass 1  IDiag  1:
 E= -169.512105476397     Delta-E=       -0.000000000120 Rises=F Damp=F
 DIIS: error= 4.65D-07 at cycle   5 NSaved=   5.
 NSaved= 5 IEnMin= 5 EnMin= -169.512105476397     IErMin= 5 ErrMin= 4.65D-07
 ErrMax= 4.65D-07  0.00D+00 EMaxC= 1.00D-01 BMatC= 1.41D-11 BMatP= 1.72D-10
 IDIUse=1 WtCom= 1.00D+00 WtEn= 0.00D+00
 Coeff-Com:  0.209D-01 0.833D-02 0.907D-01 0.238D+00 0.642D+00
 Coeff:      0.209D-01 0.833D-02 0.907D-01 0.238D+00 0.642D+00
 Gap=     0.189 Goal=   None    Shift=    0.000
 RMSDP=4.10D-08 MaxDP=7.07D-07 DE=-1.20D-10 OVMax= 1.33D-06

 Cycle  13  Pass 1  IDiag  1:
 E= -169.512105476409     Delta-E=       -0.000000000011 Rises=F Damp=F
 DIIS: error= 7.76D-08 at cycle   6 NSaved=   6.
 NSaved= 6 IEnMin= 6 EnMin= -169.512105476409     IErMin= 6 ErrMin= 7.76D-08
 ErrMax= 7.76D-08  0.00D+00 EMaxC= 1.00D-01 BMatC= 8.55D-13 BMatP= 1.41D-11
 IDIUse=1 WtCom= 1.00D+00 WtEn= 0.00D+00
 Coeff-Com:  0.704D-03 0.100D-02 0.218D-01 0.947D-01 0.327D+00 0.555D+00
 Coeff:      0.704D-03 0.100D-02 0.218D-01 0.947D-01 0.327D+00 0.555D+00
 Gap=     0.189 Goal=   None    Shift=    0.000
 RMSDP=1.40D-08 MaxDP=2.50D-07 DE=-1.12D-11 OVMax= 2.89D-07

 Cycle  14  Pass 1  IDiag  1:
 E= -169.512105476408     Delta-E=        0.000000000000 Rises=F Damp=F
 DIIS: error= 1.57D-08 at cycle   7 NSaved=   7.
 NSaved= 7 IEnMin= 6 EnMin= -169.512105476409     IErMin= 7 ErrMin= 1.57D-08
 ErrMax= 1.57D-08  0.00D+00 EMaxC= 1.00D-01 BMatC= 3.38D-14 BMatP= 8.55D-13
 IDIUse=1 WtCom= 1.00D+00 WtEn= 0.00D+00
 Coeff-Com: -0.604D-03 0.137D-03 0.594D-02 0.336D-01 0.119D+00 0.264D+00
 Coeff-Com:  0.578D+00
 Coeff:     -0.604D-03 0.137D-03 0.594D-02 0.336D-01 0.119D+00 0.264D+00
 Coeff:      0.578D+00
 Gap=     0.189 Goal=   None    Shift=    0.000
 RMSDP=2.69D-09 MaxDP=5.35D-08 DE= 3.98D-13 OVMax= 6.14D-08

 SCF Done:  E(RPBE-PBE) =  -169.512105476     A.U. after   14 cycles
            NFock= 14  Conv=0.27D-08     -V/T= 2.0078
 KE= 1.682000155276D+02 PE=-5.397089303230D+02 EE= 1.306802409440D+02
 Leave Link  502 at Mon Mar 21 20:11:58 2022, MaxMem=  8589934592 cpu:              10.2 elap:               1.3
 (Enter /home/sabyasachi/g16/l801.exe)
 DoSCS=F DFT=T ScalE2(SS,OS)=  1.000000  1.000000
 ExpMin= 6.71D-02 ExpMax= 2.27D+03 ExpMxC= 3.41D+02 IAcc=3 IRadAn=         5 AccDes= 0.00D+00
 HarFok:  IExCor=  205 AccDes= 0.00D+00 IRadAn=         5 IDoV=-2 UseB2=F ITyADJ=14
 ICtDFT= 12500011 ScaDFX=  1.000000  1.000000  1.000000  1.000000
 Largest valence mixing into a core orbital is  6.51D-05
 Largest core mixing into a valence orbital is  1.17D-05
 Range of M.O.s used for correlation:     4    87
 NBasis=    87 NAE=    12 NBE=    12 NFC=     3 NFV=     0
 NROrb=     84 NOA=     9 NOB=     9 NVA=    75 NVB=    75

 **** Warning!!: The largest alpha MO coefficient is  0.15816028D+02

 Leave Link  801 at Mon Mar 21 20:11:58 2022, MaxMem=  8589934592 cpu:               0.5 elap:               0.1
 (Enter /home/sabyasachi/g16/l914.exe)
 RHF ground state
 Keep J ints in memory in symmetry-blocked form, NReq=499028166.
 FoFCou: FMM=F IPFlag=           0 FMFlag=           0 FMFlg1=           0
         NFxFlg=           0 DoJE=F BraDBF=F KetDBF=F FulRan=T
         wScrn=  0.000000 ICntrl=       600 IOpCl=  0 I1Cent=           0 NGrid=           0
         NMat0=    1 NMatS0=   3828 NMatT0=    0 NMatD0=    1 NMtDS0=    0 NMtDT0=    0
 Petite list used in FoFCou.
 MDV=  8589934592 DFT=T DoStab=F Mixed=F DoRPA=T DoScal=T NonHer=F
 Making orbital integer symmetry assigments:
 Orbital symmetries:
       Occupied  (A') (A') (A') (A') (A') (A') (A') (A') (A") (A')
                 (A') (A")
       Virtual   (A") (A') (A') (A') (A') (A") (A') (A') (A') (A")
                 (A") (A') (A') (A') (A") (A') (A') (A") (A') (A')
                 (A') (A') (A") (A') (A") (A') (A') (A') (A') (A')
                 (A") (A') (A") (A') (A") (A") (A') (A') (A') (A')
                 (A') (A') (A") (A') (A') (A") (A') (A") (A') (A')
                 (A") (A') (A') (A') (A") (A') (A") (A') (A') (A')
                 (A") (A') (A") (A') (A') (A') (A") (A') (A") (A")
                 (A') (A') (A') (A') (A')
   675 initial guesses have been made.
 Convergence on wavefunction:    0.001000000000000
 Davidson Disk Diagonalization:  ConvIn= 1.00D-03 SkipCon=T Conv= 1.00D-03.
 Max sub-space:  2700 roots to seek:  1350 dimension of matrix:         1350
 *** WARNING: Number of orthogonal guesses is          675
 Iteration     1 Dimension   675 NMult     0 NNew    675
 CISAX will form   675 AO SS matrices at one time.
 NMat=   675 NSing=   675 JSym2X=-1.
 New state      1 was old state      2
 New state      2 was old state      1
 New state      8 was old state      9
 New state      9 was old state      8
 New state     12 was old state     14
 New state     14 was old state     15
 New state     15 was old state     16
 New state     16 was old state     17
 New state     17 was old state     18
 New state     18 was old state     20
 New state     19 was old state     21
 New state     20 was old state     19
 New state     21 was old state     12
 New state     24 was old state     25
 New state     25 was old state     24
 New state     27 was old state     28
 New state     28 was old state     27
 New state     29 was old state     31
 New state     30 was old state     32
 New state     31 was old state     30
 New state     32 was old state     29
 New state     33 was old state     34
 New state     34 was old state     36
 New state     35 was old state     37
 New state     36 was old state     35
 New state     37 was old state     38
 New state     38 was old state     39
 New state     39 was old state     40
 New state     40 was old state     33
 New state     43 was old state     44
 New state     44 was old state     43
 New state     45 was old state     48
 New state     47 was old state     45
 New state     48 was old state     50
 New state     49 was old state     51
 New state     50 was old state     52
 New state     51 was old state     49
 New state     52 was old state     47
 New state     54 was old state     55
 New state     55 was old state     58
 New state     56 was old state     57
 New state     57 was old state     54
 New state     58 was old state     56
 New state     60 was old state     61
 New state     61 was old state     62
 New state     62 was old state     60
 New state     63 was old state     64
 New state     64 was old state     65
 New state     65 was old state     66
 New state     66 was old state     63
 New state     67 was old state     71
 New state     69 was old state     70
 New state     70 was old state     67
 New state     71 was old state     73
 New state     72 was old state     74
 New state     73 was old state     72
 New state     74 was old state     76
 New state     75 was old state     77
 New state     76 was old state     75
 New state     77 was old state     78
 New state     78 was old state     79
 New state     79 was old state     81
 New state     81 was old state     84
 New state     82 was old state     83
 New state     83 was old state     82
 New state     84 was old state     85
 New state     85 was old state     89
 New state     86 was old state     88
 New state     87 was old state     86
 New state     88 was old state     87
 New state     89 was old state     93
 New state     91 was old state     92
 New state     92 was old state     94
 New state     93 was old state     91
 New state     94 was old state     96
 New state     96 was old state     98
 New state     98 was old state     99
 New state     99 was old state    100
 New state    100 was old state    101
 New state    101 was old state    102
 New state    102 was old state    103
 New state    103 was old state    104
 New state    104 was old state    105
 New state    105 was old state    106
 New state    106 was old state    107
 New state    107 was old state    109
 New state    108 was old state    112
 New state    109 was old state    108
 New state    110 was old state    111
 New state    111 was old state    110
 New state    112 was old state    115
 New state    115 was old state    117
 New state    117 was old state    118
 New state    118 was old state    120
 New state    119 was old state    122
 New state    120 was old state    121
 New state    121 was old state    124
 New state    122 was old state    119
 New state    123 was old state    125
 New state    124 was old state    123
 New state    125 was old state    127
 New state    126 was old state    128
 New state    127 was old state    126
 New state    128 was old state    130
 New state    130 was old state    131
 New state    131 was old state    133
 New state    133 was old state    134
 New state    134 was old state    135
 New state    135 was old state    137
 New state    136 was old state    143
 New state    137 was old state    138
 New state    138 was old state    141
 New state    139 was old state    142
 New state    141 was old state    139
 New state    142 was old state    145
 New state    143 was old state    144
 New state    144 was old state    146
 New state    145 was old state    136
 New state    146 was old state    148
 New state    147 was old state    150
 New state    148 was old state    149
 New state    149 was old state    147
 New state    150 was old state    151
 New state    151 was old state    152
 New state    152 was old state    154
 New state    154 was old state    155
 New state    155 was old state    158
 New state    157 was old state    162
 New state    158 was old state    163
 New state    159 was old state    161
 New state    160 was old state    157
 New state    161 was old state    159
 New state    162 was old state    160
 New state    163 was old state    164
 New state    164 was old state    168
 New state    166 was old state    167
 New state    167 was old state    166
 New state    168 was old state    169
 New state    169 was old state    172
 New state    172 was old state    174
 New state    173 was old state    176
 New state    174 was old state    175
 New state    175 was old state    173
 New state    176 was old state    179
 New state    177 was old state    178
 New state    178 was old state    177
 New state    179 was old state    180
 New state    180 was old state    183
 New state    181 was old state    182
 New state    182 was old state    186
 New state    183 was old state    187
 New state    185 was old state    181
 New state    186 was old state    189
 New state    187 was old state    188
 New state    188 was old state    192
 New state    189 was old state    190
 New state    190 was old state    191
 New state    191 was old state    193
 New state    192 was old state    195
 New state    193 was old state    194
 New state    194 was old state    200
 New state    195 was old state    196
 New state    196 was old state    185
 New state    197 was old state    199
 New state    199 was old state    197
 New state    200 was old state    202
 New state    201 was old state    203
 New state    202 was old state    205
 New state    203 was old state    204
 New state    204 was old state    206
 New state    205 was old state    207
 New state    206 was old state    208
 New state    207 was old state    209
 New state    208 was old state    210
 New state    209 was old state    212
 New state    210 was old state    211
 New state    211 was old state    213
 New state    212 was old state    215
 New state    213 was old state    214
 New state    214 was old state    201
 New state    215 was old state    217
 New state    216 was old state    220
 New state    217 was old state    219
 New state    218 was old state    221
 New state    219 was old state    222
 New state    220 was old state    216
 No map to state    221
 New state    222 was old state    218
 New state    224 was old state    225
 New state    225 was old state    229
 New state    226 was old state    227
 New state    227 was old state    228
 New state    228 was old state    230
 New state    229 was old state    226
 New state    230 was old state    233
 New state    231 was old state    232
 New state    232 was old state    234
 New state    233 was old state    231
 New state    234 was old state    235
 New state    235 was old state    224
 New state    236 was old state    237
 New state    237 was old state    236
 New state    238 was old state    242
 New state    239 was old state    241
 New state    241 was old state    239
 New state    242 was old state    244
 New state    244 was old state    245
 New state    245 was old state    247
 New state    246 was old state    248
 New state    247 was old state    249
 New state    248 was old state    246
 New state    249 was old state    251
 New state    250 was old state    252
 New state    251 was old state    250
 New state    252 was old state    253
 New state    253 was old state    254
 New state    254 was old state    255
 New state    255 was old state    266
 New state    256 was old state    258
 New state    257 was old state    261
 New state    258 was old state    259
 New state    259 was old state    260
 New state    260 was old state    262
 New state    261 was old state    265
 New state    262 was old state    264
 New state    264 was old state    256
 New state    265 was old state    267
 New state    266 was old state    270
 New state    267 was old state    269
 New state    268 was old state    271
 New state    269 was old state    268
 New state    270 was old state    272
 New state    271 was old state    273
 New state    272 was old state    274
 New state    273 was old state    275
 New state    274 was old state    276
 New state    275 was old state    278
 New state    276 was old state    279
 New state    277 was old state    280
 New state    278 was old state    283
 New state    279 was old state    281
 New state    280 was old state    277
 New state    281 was old state    282
 New state    282 was old state    290
 New state    283 was old state    284
 New state    284 was old state    285
 New state    285 was old state    286
 New state    286 was old state    296
 New state    287 was old state    288
 New state    288 was old state    287
 New state    290 was old state    291
 New state    291 was old state    292
 New state    292 was old state    293
 New state    293 was old state    294
 New state    294 was old state    298
 New state    296 was old state    297
 New state    297 was old state    299
 New state    298 was old state    313
 New state    299 was old state    301
 New state    300 was old state    302
 New state    301 was old state    304
 New state    302 was old state    303
 New state    303 was old state    300
 New state    304 was old state    306
 New state    306 was old state    307
 New state    307 was old state    308
 New state    308 was old state    309
 New state    309 was old state    310
 New state    310 was old state    311
 New state    311 was old state    312
 New state    312 was old state    314
 New state    313 was old state    319
 New state    314 was old state    316
 New state    316 was old state    317
 New state    317 was old state    318
 New state    318 was old state    322
 New state    319 was old state    321
 New state    321 was old state    323
 New state    322 was old state    324
 New state    323 was old state    329
 New state    324 was old state    325
 New state    325 was old state    326
 New state    326 was old state    328
 New state    328 was old state    332
 New state    329 was old state    330
 New state    330 was old state    333
 New state    332 was old state    335
 New state    333 was old state    336
 New state    334 was old state    339
 New state    335 was old state    337
 New state    336 was old state    338
 New state    337 was old state    346
 New state    338 was old state    334
 New state    339 was old state    340
 New state    340 was old state    344
 New state    343 was old state    345
 New state    344 was old state    343
 New state    345 was old state    347
 New state    346 was old state    348
 New state    347 was old state    349
 New state    348 was old state    355
 New state    349 was old state    359
 New state    350 was old state    351
 New state    351 was old state    353
 New state    352 was old state    350
 New state    353 was old state    354
 New state    354 was old state    352
 New state    355 was old state    356
 New state    356 was old state    357
 New state    357 was old state    358
 New state    358 was old state    360
 New state    359 was old state    363
 New state    360 was old state    362
 New state    362 was old state    365
 New state    363 was old state    364
 New state    364 was old state    366
 New state    365 was old state    377
 New state    366 was old state    369
 New state    368 was old state    370
 New state    369 was old state    372
 New state    370 was old state    371
 New state    371 was old state    374
 New state    372 was old state    368
 New state    373 was old state    376
 New state    374 was old state    375
 New state    375 was old state    373
 New state    376 was old state    379
 New state    377 was old state    378
 New state    378 was old state    380
 New state    379 was old state    381
 New state    380 was old state    383
 New state    381 was old state    384
 New state    383 was old state    385
 New state    384 was old state    392
 New state    385 was old state    388
 New state    387 was old state    389
 New state    388 was old state    390
 New state    389 was old state    387
 New state    390 was old state    391
 New state    391 was old state    394
 New state    392 was old state    395
 New state    394 was old state    398
 New state    395 was old state    397
 New state    396 was old state    399
 New state    397 was old state    396
 New state    398 was old state    403
 New state    399 was old state    401
 New state    401 was old state    406
 New state    402 was old state    408
 New state    403 was old state    404
 New state    404 was old state    407
 New state    405 was old state    409
 New state    406 was old state    402
 New state    407 was old state    410
 New state    408 was old state    405
 New state    409 was old state    412
 New state    410 was old state    413
 New state    412 was old state    414
 New state    413 was old state    420
 New state    414 was old state    415
 New state    415 was old state    416
 New state    416 was old state    417
 New state    417 was old state    421
 No map to state    420
 New state    421 was old state    423
 New state    422 was old state    424
 New state    423 was old state    422
 New state    424 was old state    425
 New state    425 was old state    428
 New state    427 was old state    430
 New state    428 was old state    427
 New state    430 was old state    431
 New state    431 was old state    432
 New state    432 was old state    434
 New state    434 was old state    435
 New state    435 was old state    438
 New state    438 was old state    442
 New state    439 was old state    443
 New state    442 was old state    439
 New state    443 was old state    444
 New state    444 was old state    446
 New state    446 was old state    447
 New state    447 was old state    448
 New state    448 was old state    449
 New state    449 was old state    450
 New state    450 was old state    451
 New state    451 was old state    453
 New state    453 was old state    454
 New state    454 was old state    456
 New state    456 was old state    457
 New state    457 was old state    458
 New state    458 was old state    459
 New state    459 was old state    460
 New state    460 was old state    462
 New state    462 was old state    468
 New state    463 was old state    464
 New state    464 was old state    465
 New state    465 was old state    463
 New state    466 was old state    467
 New state    467 was old state    466
 New state    468 was old state    471
 New state    471 was old state    473
 New state    473 was old state    474
 New state    474 was old state    478
 New state    478 was old state    482
 New state    480 was old state    481
 New state    481 was old state    485
 New state    482 was old state    483
 New state    483 was old state    484
 New state    484 was old state    480
 New state    485 was old state    487
 New state    487 was old state    489
 New state    489 was old state    490
 New state    490 was old state    492
 New state    492 was old state    499
 New state    497 was old state    498
 New state    498 was old state    500
 New state    499 was old state    497
 New state    500 was old state    508
 New state    502 was old state    504
 New state    503 was old state    505
 New state    504 was old state    502
 New state    505 was old state    503
 New state    506 was old state    507
 New state    507 was old state    506
 New state    508 was old state    509
 New state    509 was old state    510
 New state    510 was old state    515
 New state    513 was old state    514
 New state    514 was old state    513
 New state    515 was old state    517
 New state    517 was old state    518
 New state    518 was old state    519
 New state    519 was old state    520
 New state    520 was old state    522
 New state    522 was old state    524
 New state    524 was old state    535
 New state    525 was old state    526
 New state    526 was old state    525
 New state    527 was old state    529
 New state    529 was old state    531
 New state    531 was old state    527
 New state    532 was old state    533
 New state    533 was old state    532
 New state    534 was old state    536
 New state    535 was old state    534
 New state    536 was old state    542
 New state    538 was old state    540
 New state    539 was old state    538
 New state    540 was old state    541
 New state    541 was old state    539
 New state    542 was old state    568
 New state    545 was old state    547
 New state    546 was old state    548
 New state    547 was old state    545
 New state    548 was old state    549
 New state    549 was old state    546
 New state    552 was old state    556
 New state    556 was old state    552
 New state    562 was old state    563
 New state    563 was old state    562
 New state    564 was old state    565
 New state    565 was old state    564
 New state    568 was old state    570
 New state    570 was old state    571
 New state    571 was old state    572
 New state    572 was old state    574
 New state    573 was old state    575
 New state    574 was old state    573
 New state    575 was old state    577
 New state    577 was old state    578
 New state    578 was old state    579
 No map to state    579
 New state    582 was old state    583
 New state    583 was old state    584
 New state    584 was old state    582
 New state    591 was old state    592
 New state    592 was old state    591
 New state    593 was old state    594
 New state    594 was old state    595
 New state    595 was old state    593
 New state    596 was old state    597
 New state    597 was old state    596
 New state    599 was old state    600
 New state    600 was old state    599
 New state    605 was old state    607
 New state    606 was old state    605
 New state    607 was old state    606
 New state    611 was old state    612
 New state    612 was old state    616
 New state    615 was old state    619
 New state    616 was old state    617
 New state    617 was old state    618
 New state    618 was old state    615
 New state    619 was old state    620
 New state    620 was old state    611
 New state    625 was old state    627
 New state    626 was old state    625
 New state    627 was old state    626
 New state    633 was old state    634
 New state    634 was old state    633
 New state    643 was old state    645
 New state    644 was old state    643
 New state    645 was old state    644
 New state    648 was old state    649
 New state    649 was old state    650
 New state    650 was old state    648
 New state    653 was old state    654
 New state    654 was old state    653
 New state    657 was old state    658
 New state    658 was old state    657
 New state    666 was old state    667
 New state    667 was old state    666
 New state    670 was old state    671
 New state    671 was old state    670
 Excitation Energies [eV] at current iteration:
 Root      1 :     5.657910897783966
 Root      2 :     6.443568583088869
 Root      3 :     6.564636986253133
 Root      4 :     6.691678499146196
 Root      5 :     7.413197936263766
 Root      6 :     7.528310513417003
 Root      7 :     8.502757388954738
 Root      8 :     8.767203191610761
 Root      9 :     8.800382290764178
 Root     10 :     8.876540158772308
 Root     11 :     9.016161257199633
 Root     12 :     9.340096507230459
 Root     13 :     9.526781641728631
 Root     14 :     9.627190063458405
 Root     15 :     9.724852855660682
 Root     16 :     9.810317889106116
 Root     17 :     9.898911196621166
 Root     18 :    10.225174467252120
 Root     19 :    10.341218833816070
 Root     20 :    10.412752714265990
 Root     21 :    10.464192575022370
 Root     22 :    10.626185908683270
 Root     23 :    10.814950299805300
 Root     24 :    11.177350692601460
 Root     25 :    11.199643603763360
 Root     26 :    11.569658510298040
 Root     27 :    11.636252050515600
 Root     28 :    11.676059589441670
 Root     29 :    11.883444988176780
 Root     30 :    12.053406267024500
 Root     31 :    12.057151422771280
 Root     32 :    12.148862056933520
 Root     33 :    12.256283954845300
 Root     34 :    12.292838978744860
 Root     35 :    12.296297496146680
 Root     36 :    12.350243570320970
 Root     37 :    12.418063108616760
 Root     38 :    12.543314251846160
 Root     39 :    12.587302812893360
 Root     40 :    12.687013484679470
 Root     41 :    13.013599846577610
 Root     42 :    13.172103414888300
 Root     43 :    13.179502453199730
 Root     44 :    13.255662295699410
 Root     45 :    13.421647370929870
 Root     46 :    13.434721033203150
 Root     47 :    13.582834675479120
 Root     48 :    13.588166718046800
 Root     49 :    13.706693175563620
 Root     50 :    13.727659146250050
 Root     51 :    13.739996507273030
 Root     52 :    13.878938678792030
 Root     53 :    14.035130222184070
 Root     54 :    14.274532088885380
 Root     55 :    14.317713192597700
 Root     56 :    14.369034369574640
 Root     57 :    14.476189008635390
 Root     58 :    14.491509529700260
 Root     59 :    14.720630282796310
 Root     60 :    14.738612672593040
 Root     61 :    14.830933943641680
 Root     62 :    14.923140605019540
 Root     63 :    15.081627528859070
 Root     64 :    15.136750037945970
 Root     65 :    15.301551495750170
 Root     66 :    15.375039116013750
 Root     67 :    15.384151237887100
 Root     68 :    15.426695267206890
 Root     69 :    15.479203033342690
 Root     70 :    15.480174946580780
 Root     71 :    15.545433931794510
 Root     72 :    15.616211009106910
 Root     73 :    15.622473288065480
 Root     74 :    15.642456323114810
 Root     75 :    15.726371732240650
 Root     76 :    15.773256992803440
 Root     77 :    15.851353448686660
 Root     78 :    15.883791177061620
 Root     79 :    16.006854940140000
 Root     80 :    16.021496508713510
 Root     81 :    16.160193638314100
 Root     82 :    16.168534664214000
 Root     83 :    16.253184493208180
 Root     84 :    16.447651454999060
 Root     85 :    16.564309076945330
 Root     86 :    16.565582502458650
 Root     87 :    16.643014046220990
 Root     88 :    16.754978395690400
 Root     89 :    16.768576447406750
 Root     90 :    16.791662904038950
 Root     91 :    16.873863735377130
 Root     92 :    16.996582079786450
 Root     93 :    17.007137870958480
 Root     94 :    17.069208815753800
 Root     95 :    17.121261893522480
 Root     96 :    17.310251023086890
 Root     97 :    17.343865901554920
 Root     98 :    17.398206755027810
 Root     99 :    17.448742054915420
 Root    100 :    17.489873056208030
 Root    101 :    17.665119136884300
 Root    102 :    17.691217756275980
 Root    103 :    17.983011514348800
 Root    104 :    18.038372276252800
 Root    105 :    18.148172729982980
 Root    106 :    18.206233249448020
 Root    107 :    18.311283228817060
 Root    108 :    18.350460814593720
 Root    109 :    18.350527907938350
 Root    110 :    18.406760161408360
 Root    111 :    18.419941313261330
 Root    112 :    18.556121692397160
 Root    113 :    18.569664379915050
 Root    114 :    18.727438535407310
 Root    115 :    18.845753097587100
 Root    116 :    18.874557449904770
 Root    117 :    18.917425248703060
 Root    118 :    19.070991339937080
 Root    119 :    19.093491410022900
 Root    120 :    19.112757204589240
 Root    121 :    19.113165855495950
 Root    122 :    19.148871443352440
 Root    123 :    19.211355162657430
 Root    124 :    19.302488560681370
 Root    125 :    19.336716833077300
 Root    126 :    19.399175393490210
 Root    127 :    19.446784125622980
 Root    128 :    19.529884015487190
 Root    129 :    19.604742855862860
 Root    130 :    19.880941077377630
 Root    131 :    19.904762323109550
 Root    132 :    19.965977272210900
 Root    133 :    20.000097336182860
 Root    134 :    20.031957889275360
 Root    135 :    20.165242539058550
 Root    136 :    20.269779510728040
 Root    137 :    20.279858426452720
 Root    138 :    20.358387668307940
 Root    139 :    20.399239875444170
 Root    140 :    20.440438631735590
 Root    141 :    20.478412428198080
 Root    142 :    20.563671414472330
 Root    143 :    20.636431979624830
 Root    144 :    20.678197391560320
 Root    145 :    20.827935725404740
 Root    146 :    20.946141048516120
 Root    147 :    21.001902215672810
 Root    148 :    21.218857363042440
 Root    149 :    21.337299171602670
 Root    150 :    21.374526348496380
 Root    151 :    21.381647340440240
 Root    152 :    21.428128922946440
 Root    153 :    21.452999955646210
 Root    154 :    21.584954079527400
 Root    155 :    21.679706439924300
 Root    156 :    21.708024731923780
 Root    157 :    21.821796405862880
 Root    158 :    21.841883243534180
 Root    159 :    21.842820166484350
 Root    160 :    21.901808233016380
 Root    161 :    21.965650893035690
 Root    162 :    22.041979184626260
 Root    163 :    22.122355796403490
 Root    164 :    22.192165775041310
 Root    165 :    22.338490569318240
 Root    166 :    22.355061985446830
 Root    167 :    22.421687039516680
 Root    168 :    22.500802036115060
 Root    169 :    22.567151752879530
 Root    170 :    22.669309503715720
 Root    171 :    22.759244495841580
 Root    172 :    22.846892535638250
 Root    173 :    22.909962916136840
 Root    174 :    22.923350277496410
 Root    175 :    22.936450272062900
 Root    176 :    23.017524010858470
 Root    177 :    23.083253524349420
 Root    178 :    23.248369733978870
 Root    179 :    23.330631336296280
 Root    180 :    23.336803479783250
 Root    181 :    23.404113342104480
 Root    182 :    23.422888133575080
 Root    183 :    23.559022045229200
 Root    184 :    23.677165731218140
 Root    185 :    23.744721765727540
 Root    186 :    23.856487306449640
 Root    187 :    23.914539930118220
 Root    188 :    23.953268925974050
 Root    189 :    23.964872207625760
 Root    190 :    23.992822577265350
 Root    191 :    24.072587003052180
 Root    192 :    24.100302455844930
 Root    193 :    24.210701268251570
 Root    194 :    24.241649043950550
 Root    195 :    24.254166308353850
 Root    196 :    24.325202785570710
 Root    197 :    24.449724492680110
 Root    198 :    24.463639666753110
 Root    199 :    24.472713102800750
 Root    200 :    24.581411697124660
 Root    201 :    24.658195862548830
 Root    202 :    24.758801707201490
 Root    203 :    24.784345867127590
 Root    204 :    24.904359515611730
 Root    205 :    25.155671007471010
 Root    206 :    25.195792024333070
 Root    207 :    25.310700221182310
 Root    208 :    25.395357934141360
 Root    209 :    25.551965300204710
 Root    210 :    25.639366890912950
 Root    211 :    25.650480406152760
 Root    212 :    25.723071787392560
 Root    213 :    25.824194140271640
 Root    214 :    25.839454151524190
 Root    215 :    25.982733834339790
 Root    216 :    25.988456872368280
 Root    217 :    26.068863216736010
 Root    218 :    26.205446980242590
 Root    219 :    26.343504200214680
 Root    220 :    26.361353363425190
 Root    221 :    26.386388473881210
 Root    222 :    26.465826282170960
 Root    223 :    26.530919332827570
 Root    224 :    26.687197660036350
 Root    225 :    26.738339727267850
 Root    226 :    26.757971996124300
 Root    227 :    26.851241273060910
 Root    228 :    26.913474357068770
 Root    229 :    26.916409475713690
 Root    230 :    27.084963502628480
 Root    231 :    27.103548148938170
 Root    232 :    27.156649410814750
 Root    233 :    27.206241795823920
 Root    234 :    27.302715255226230
 Root    235 :    27.346695707075430
 Root    236 :    27.481508795453490
 Root    237 :    27.497497556520500
 Root    238 :    27.776090304088110
 Root    239 :    27.785368303489350
 Root    240 :    27.820665011437960
 Root    241 :    27.845574574082280
 Root    242 :    28.061628211356870
 Root    243 :    28.124744225527450
 Root    244 :    28.196396835241240
 Root    245 :    28.239582078341090
 Root    246 :    28.293990486491120
 Root    247 :    28.394868289531170
 Root    248 :    28.478651449544930
 Root    249 :    28.603550835601810
 Root    250 :    28.637733558474470
 Root    251 :    28.713385975761600
 Root    252 :    28.846137370987640
 Root    253 :    28.974472646500590
 Root    254 :    29.089676226490500
 Root    255 :    29.233244021531810
 Root    256 :    29.504117135747570
 Root    257 :    29.616479852034860
 Root    258 :    29.619043562422380
 Root    259 :    29.634417119575770
 Root    260 :    29.676553757644990
 Root    261 :    29.944454180093710
 Root    262 :    30.007254132689950
 Root    263 :    30.050051569231550
 Root    264 :    30.115867358928770
 Root    265 :    30.246611572498120
 Root    266 :    30.263128512703190
 Root    267 :    30.395671753588540
 Root    268 :    30.410090400009850
 Root    269 :    30.444855416985000
 Root    270 :    30.550519866321800
 Root    271 :    30.583316429867260
 Root    272 :    30.663653038785080
 Root    273 :    30.709734795502790
 Root    274 :    30.800965559687400
 Root    275 :    30.821627341405960
 Root    276 :    30.932763969118970
 Root    277 :    30.944365682817650
 Root    278 :    31.007912062396890
 Root    279 :    31.044450001277220
 Root    280 :    31.189175403983050
 Root    281 :    31.302762752823530
 Root    282 :    31.378392032070360
 Root    283 :    31.570279854256200
 Root    284 :    31.676526397737500
 Root    285 :    31.912743732556340
 Root    286 :    32.234943212082440
 Root    287 :    32.259703685170480
 Root    288 :    32.266245691012790
 Root    289 :    32.378496483196510
 Root    290 :    32.494825055263950
 Root    291 :    32.601010390152080
 Root    292 :    32.623421287137180
 Root    293 :    32.766161153561780
 Root    294 :    32.801041476954270
 Root    295 :    32.803236512341190
 Root    296 :    33.203756071874070
 Root    297 :    33.293933626819650
 Root    298 :    33.416681601367860
 Root    299 :    33.678082375559210
 Root    300 :    33.703329650600520
 Root    301 :    33.771969305557910
 Root    302 :    33.875503556839200
 Root    303 :    33.911740887483300
 Root    304 :    34.081502362948350
 Root    305 :    34.101880140380370
 Root    306 :    34.113549206074960
 Root    307 :    34.271058973340180
 Root    308 :    34.445972991707820
 Root    309 :    34.450551805303890
 Root    310 :    34.611174892511510
 Root    311 :    34.712975766811670
 Root    312 :    34.807367855128600
 Root    313 :    35.139536064186050
 Root    314 :    35.574394102338320
 Root    315 :    35.659616487578360
 Root    316 :    35.778337077619060
 Root    317 :    35.861003390931090
 Root    318 :    35.872543587476600
 Root    319 :    35.899422486203140
 Root    320 :    35.966006734029290
 Root    321 :    36.040644740816990
 Root    322 :    36.143536949604840
 Root    323 :    36.373151227046660
 Root    324 :    36.379247080380670
 Root    325 :    36.432451569988140
 Root    326 :    36.565514919570030
 Root    327 :    36.614902415395520
 Root    328 :    36.794779481686500
 Root    329 :    36.867337811388870
 Root    330 :    37.224049644909210
 Root    331 :    37.275229975373780
 Root    332 :    37.450595530631770
 Root    333 :    37.457092291609480
 Root    334 :    37.557236301202080
 Root    335 :    37.603000694623700
 Root    336 :    37.632434750610580
 Root    337 :    37.826546910164570
 Root    338 :    37.843366398490200
 Root    339 :    37.940216802718130
 Root    340 :    38.479679060089740
 Root    341 :    38.497537609234750
 Root    342 :    38.587266878018130
 Root    343 :    38.730111610801310
 Root    344 :    38.784109349889690
 Root    345 :    38.955071888137400
 Root    346 :    39.052714164052650
 Root    347 :    39.112681161342350
 Root    348 :    39.278240635295490
 Root    349 :    39.479934103295840
 Root    350 :    39.510264017556180
 Root    351 :    39.576586901319980
 Root    352 :    39.657832850423620
 Root    353 :    39.670970361219130
 Root    354 :    39.817639490335020
 Root    355 :    40.089295272280270
 Root    356 :    40.144003910433820
 Root    357 :    40.394769100153400
 Root    358 :    40.652621712099940
 Root    359 :    40.878481895356730
 Root    360 :    40.908099013548780
 Root    361 :    40.918354522982430
 Root    362 :    40.967991418051480
 Root    363 :    41.310819609762800
 Root    364 :    41.391711583502860
 Root    365 :    41.492387562496560
 Root    366 :    41.829882122893570
 Root    367 :    42.096176485040200
 Root    368 :    42.498096218571040
 Root    369 :    42.501295881590700
 Root    370 :    42.516046061290130
 Root    371 :    42.564608744839270
 Root    372 :    42.572451908472940
 Root    373 :    42.655034448321420
 Root    374 :    42.681159093033900
 Root    375 :    42.849103922827370
 Root    376 :    43.074404126761370
 Root    377 :    43.095192331344550
 Root    378 :    43.318877995597870
 Root    379 :    43.407029102478440
 Root    380 :    43.521217233818590
 Root    381 :    43.993776064351450
 Root    382 :    44.021100482076300
 Root    383 :    44.185428827525260
 Root    384 :    44.527754553953460
 Root    385 :    44.563733469282990
 Root    386 :    44.626898441380070
 Root    387 :    44.668852230921150
 Root    388 :    44.761957807262580
 Root    389 :    44.781626838311290
 Root    390 :    45.084136438027660
 Root    391 :    45.144252504621000
 Root    392 :    45.423789865087040
 Root    393 :    45.522689288614630
 Root    394 :    45.660200760170050
 Root    395 :    46.050915374917620
 Root    396 :    46.488020028703170
 Root    397 :    46.559139833436010
 Root    398 :    46.692479729064600
 Root    399 :    46.838163089200330
 Root    400 :    46.903565908398910
 Root    401 :    47.230418243402570
 Root    402 :    47.522257851925540
 Root    403 :    47.584718120608170
 Root    404 :    47.795093016985620
 Root    405 :    47.852459542614150
 Root    406 :    47.926337737289160
 Root    407 :    48.074801755361110
 Root    408 :    48.116720574264920
 Root    409 :    48.358694274730560
 Root    410 :    48.408691322289610
 Root    411 :    48.500272670356380
 Root    412 :    48.563959332362670
 Root    413 :    48.731394391135550
 Root    414 :    49.006894596457390
 Root    415 :    49.012922879978380
 Root    416 :    49.386309660379980
 Root    417 :    49.552667137034590
 Root    418 :    49.636751813308020
 Root    419 :    49.841611662125080
 Root    420 :    49.943536192638210
 Root    421 :    50.451211039825780
 Root    422 :    50.855490069431370
 Root    423 :    50.939923441606620
 Root    424 :    50.946672892663570
 Root    425 :    51.207860246426010
 Root    426 :    51.366387085830400
 Root    427 :    51.542957532080230
 Root    428 :    51.545663734874110
 Root    429 :    51.652932102734400
 Root    430 :    51.747298304094990
 Root    431 :    51.865949159548530
 Root    432 :    52.041372365727850
 Root    433 :    52.117498181332300
 Root    434 :    52.368193924912780
 Root    435 :    52.541035602402150
 Root    436 :    52.880775260832220
 Root    437 :    52.914688132227110
 Root    438 :    53.235551187956600
 Root    439 :    53.368016852909850
 Root    440 :    53.434703487127010
 Root    441 :    53.547219395320940
 Root    442 :    53.652577290507870
 Root    443 :    53.969554031219460
 Root    444 :    54.115090624967660
 Root    445 :    54.189695172028090
 Root    446 :    54.258245855994740
 Root    447 :    54.548589044919110
 Root    448 :    54.651841428129110
 Root    449 :    54.816706557681300
 Root    450 :    54.899591993685990
 Root    451 :    55.048581326924830
 Root    452 :    55.252317079628770
 Root    453 :    55.691152844314540
 Root    454 :    55.903364168657730
 Root    455 :    56.007369782727880
 Root    456 :    56.072609609899290
 Root    457 :    56.605446052858890
 Root    458 :    56.682480035024570
 Root    459 :    56.840826484458220
 Root    460 :    57.077900364932180
 Root    461 :    57.205067283701480
 Root    462 :    57.400925907749590
 Root    463 :    57.557133573845600
 Root    464 :    57.610208276947580
 Root    465 :    57.813794284832600
 Root    466 :    57.906964198168790
 Root    467 :    58.094538001803930
 Root    468 :    58.237941440542610
 Root    469 :    58.273573621491300
 Root    470 :    58.386297477197720
 Root    471 :    58.547331152860870
 Root    472 :    58.678557474252480
 Root    473 :    58.936578071315840
 Root    474 :    59.176604448211260
 Root    475 :    59.266807271411490
 Root    476 :    59.457826013943380
 Root    477 :    59.517536673773650
 Root    478 :    59.705375007353810
 Root    479 :    59.726479287247760
 Root    480 :    59.801103236872570
 Root    481 :    60.042448021745880
 Root    482 :    60.195701679120150
 Root    483 :    60.414606725153480
 Root    484 :    60.669073161268810
 Root    485 :    60.871273431419590
 Root    486 :    60.893184873554480
 Root    487 :    60.978935226045170
 Root    488 :    60.998525168037550
 Root    489 :    61.267709910310430
 Root    490 :    61.531248380208190
 Root    491 :    61.716786595619960
 Root    492 :    61.862465103873490
 Root    493 :    62.621049296260170
 Root    494 :    62.725053803250010
 Root    495 :    62.834853345333170
 Root    496 :    62.957250849257130
 Root    497 :    63.164209605574700
 Root    498 :    63.352597241636150
 Root    499 :    63.427620289042520
 Root    500 :    63.511705954488500
 Root    501 :    63.608015322220160
 Root    502 :    63.824150165897950
 Root    503 :    63.906512083892680
 Root    504 :    64.004282289798740
 Root    505 :    64.061836185512130
 Root    506 :    64.317282389876250
 Root    507 :    64.513650487034620
 Root    508 :    64.688012390418380
 Root    509 :    64.813912449242480
 Root    510 :    64.871890864198790
 Root    511 :    64.945973720859680
 Root    512 :    65.313102021197620
 Root    513 :    65.552161959447200
 Root    514 :    65.577217579646050
 Root    515 :    65.966037189911730
 Root    516 :    66.064714169757540
 Root    517 :    66.684339892137590
 Root    518 :    66.737170316347740
 Root    519 :    66.759089590520150
 Root    520 :    66.868635105528710
 Root    521 :    66.903440764328690
 Root    522 :    67.049320928286790
 Root    523 :    67.422213365846190
 Root    524 :    67.967055855676890
 Root    525 :    68.337373626302070
 Root    526 :    68.373796964260460
 Root    527 :    68.674985098373310
 Root    528 :    68.800721792102620
 Root    529 :    68.858961898714530
 Root    530 :    68.929987829636520
 Root    531 :    69.048629692433580
 Root    532 :    69.210712720740940
 Root    533 :    69.328025197766560
 Root    534 :    69.444692004953340
 Root    535 :    69.715122692523270
 Root    536 :    69.911786834246160
 Root    537 :    70.405087600754730
 Root    538 :    70.433620136553200
 Root    539 :    70.616092220536200
 Root    540 :    70.734574980285770
 Root    541 :    70.750487570449320
 Root    542 :    71.125407667315540
 Root    543 :    71.865759710605600
 Root    544 :    72.128523522709460
 Root    545 :    72.390772731527010
 Root    546 :    72.537746182824760
 Root    547 :    72.614172351723240
 Root    548 :    72.827295975402000
 Root    549 :    72.908090818619930
 Root    550 :    72.990397671742430
 Root    551 :    73.056716197158240
 Root    552 :    73.396854259952280
 Root    553 :    73.527362038894150
 Root    554 :    73.651509601801000
 Root    555 :    74.009674989635950
 Root    556 :    74.282631464308080
 Root    557 :    74.462545094523800
 Root    558 :    74.829106581403410
 Root    559 :    75.073072580159180
 Root    560 :    75.167157886006650
 Root    561 :    75.241620274723620
 Root    562 :    75.546359840717160
 Root    563 :    75.663615505345280
 Root    564 :    76.286203759006680
 Root    565 :    76.423847844121950
 Root    566 :    76.426055066951850
 Root    567 :    76.636390835433430
 Root    568 :    77.084395544492620
 Root    569 :    77.134122791238820
 Root    570 :    77.484442727946430
 Root    571 :    77.659206357487430
 Root    572 :    77.905157069676950
 Root    573 :    78.111667691707400
 Root    574 :    78.198699370495970
 Root    575 :    78.383913946474830
 Root    576 :    78.460472575515010
 Root    577 :    78.887220259486260
 Root    578 :    79.336900024388970
 Root    579 :    79.417923458891980
 Root    580 :    80.201785376847780
 Root    581 :    80.539025527187730
 Root    582 :    81.227793694079680
 Root    583 :    81.261090951103480
 Root    584 :    81.473074765012580
 Root    585 :    81.802664812764380
 Root    586 :    82.005436593909960
 Root    587 :    82.289772275363700
 Root    588 :    82.543278970575670
 Root    589 :    83.118360387022690
 Root    590 :    83.424547308176470
 Root    591 :    84.291810996804440
 Root    592 :    84.445487802366050
 Root    593 :    84.657188299262700
 Root    594 :    84.873380844957910
 Root    595 :    84.975091960339480
 Root    596 :    85.713259568225400
 Root    597 :    86.290550588526060
 Root    598 :    86.335682454219100
 Root    599 :    86.445533298634870
 Root    600 :    87.209071198226370
 Root    601 :    87.386418739441990
 Root    602 :    87.484359897926240
 Root    603 :    87.919849690908520
 Root    604 :    88.198889566728240
 Root    605 :    88.466142490983460
 Root    606 :    88.472617000571110
 Root    607 :    88.794048535190140
 Root    608 :    89.148742178226770
 Root    609 :    89.429094446849850
 Root    610 :    89.642765294411650
 Root    611 :    90.180409855444690
 Root    612 :    90.408780169362690
 Root    613 :    90.770566940115200
 Root    614 :    90.863394335832000
 Root    615 :    90.977255010042070
 Root    616 :    91.033661253908600
 Root    617 :    91.170010750129450
 Root    618 :    91.349194610557150
 Root    619 :    91.454207927374310
 Root    620 :    91.494559312640450
 Root    621 :    91.943563772942540
 Root    622 :    92.116000136858030
 Root    623 :    92.612614083051440
 Root    624 :    92.729905762976470
 Root    625 :    93.563022725254670
 Root    626 :    93.587393491055590
 Root    627 :    93.813169265326810
 Root    628 :    93.924036215625050
 Root    629 :    94.058593377404550
 Root    630 :    94.224229812978550
 Root    631 :    94.410616343303360
 Root    632 :    94.745537071027630
 Root    633 :    95.973711683713150
 Root    634 :    95.978158601878020
 Root    635 :    96.139794527490910
 Root    636 :    97.118767869021940
 Root    637 :    97.712222576942510
 Root    638 :    98.475189848656670
 Root    639 :    98.645577425985070
 Root    640 :    99.252838771960280
 Root    641 :    99.849452014407120
 Root    642 :   100.429406538355200
 Root    643 :   101.456319886402600
 Root    644 :   101.545494669078100
 Root    645 :   101.722935373732400
 Root    646 :   102.374799601696900
 Root    647 :   103.291435257305600
 Root    648 :   104.288893703323800
 Root    649 :   104.622748678436500
 Root    650 :   105.039199290615400
 Root    651 :   105.695508325625900
 Root    652 :   106.095534680583000
 Root    653 :   106.650655040253700
 Root    654 :   106.882080698330300
 Root    655 :   107.953984152800500
 Root    656 :   107.960457839855100
 Root    657 :   108.408827737743000
 Root    658 :   108.924966337473100
 Root    659 :   109.304314115936200
 Root    660 :   110.999239525347700
 Root    661 :   111.407812900118300
 Root    662 :   112.043090566909600
 Root    663 :   112.376896788979200
 Root    664 :   112.814300827230400
 Root    665 :   113.269761637406900
 Root    666 :   115.803076267725500
 Root    667 :   116.154338097057800
 Root    668 :   117.768233716478600
 Root    669 :   118.836603934512500
 Root    670 :   119.121775753977900
 Root    671 :   119.334310298962700
 Root    672 :   121.201694234983300
 Root    673 :   125.345283322553800
 Root    674 :   127.189914105056200
 Root    675 :   133.366145310104300
 Convergence achieved for final wavefunctions.
 ***********************************************************************
 Excited states from <AA,BB:AA,BB> singles matrix:
 ***********************************************************************
 
 1PDM for each excited state written to RWF  633
 Ground to excited state transition densities written to RWF  633
 Ground to excited state transition electric dipole moments (Au):
       state          X           Y           Z        Dip. S.      Osc.
         1        -0.0000     -0.0000     -0.0633      0.0040      0.0006
         2         0.8390     -0.0062      0.0000      0.7039      0.1111
         3         0.0000      0.0000     -0.1065      0.0114      0.0018
         4        -0.5311     -0.0834     -0.0000      0.2891      0.0474
         5        -0.0000     -0.0000      0.2917      0.0851      0.0155
         6         0.3154     -0.2819     -0.0000      0.1790      0.0330
         7         0.0000      0.0000     -0.0953      0.0091      0.0019
         8         0.0000      0.0000     -0.1829      0.0335      0.0072
         9         0.4406     -0.5541      0.0000      0.5012      0.1081
        10        -0.4398     -0.4852      0.0000      0.4289      0.0933
        11        -0.0000     -0.0000     -0.0192      0.0004      0.0001
        12        -0.0000      0.0000      0.3786      0.1433      0.0328
        13        -0.1779      0.1607      0.0000      0.0575      0.0134
        14         0.0000      0.0000      0.0001      0.0000      0.0000
        15        -0.1548     -0.0234     -0.0000      0.0245      0.0058
        16        -0.0000     -0.0000      0.2446      0.0598      0.0144
        17        -0.1792      0.1021     -0.0000      0.0426      0.0103
        18        -0.2013     -0.2357     -0.0000      0.0961      0.0241
        19         0.0000      0.0000     -0.3200      0.1024      0.0259
        20        -0.0000     -0.0000      0.1709      0.0292      0.0075
        21        -0.8803      0.4292     -0.0000      0.9592      0.2459
        22        -0.0000      0.0000     -0.1747      0.0305      0.0079
        23        -0.4920     -0.0189     -0.0000      0.2424      0.0642
        24         0.0000      0.0000     -0.1572      0.0247      0.0068
        25        -0.1335     -0.4790      0.0000      0.2473      0.0678
        26         0.0693     -0.1968     -0.0000      0.0435      0.0123
        27        -0.0000     -0.0000     -0.0424      0.0018      0.0005
        28         0.4073      0.4964      0.0000      0.4124      0.1180
        29         0.0000     -0.0000      0.0672      0.0045      0.0013
        30         0.0000      0.0000      0.0426      0.0018      0.0005
        31        -0.5927      0.0825     -0.0000      0.3581      0.1058
        32         0.0000      0.0000     -0.0175      0.0003      0.0001
        33         0.0914     -0.1203      0.0000      0.0228      0.0069
        34         0.0000      0.0000     -0.3979      0.1583      0.0477
        35        -0.2094     -0.0043      0.0000      0.0438      0.0132
        36        -0.0000     -0.0000      0.2475      0.0613      0.0185
        37        -0.0091     -0.0314      0.0000      0.0011      0.0003
        38        -0.3409      0.1247     -0.0000      0.1318      0.0405
        39         0.0000     -0.0000      0.1868      0.0349      0.0108
        40         0.2149     -0.0157     -0.0000      0.0464      0.0144
        41         0.0000     -0.0000      0.0686      0.0047      0.0015
        42         0.1513      0.1224     -0.0000      0.0379      0.0122
        43        -0.0000     -0.0000      0.0080      0.0001      0.0000
        44         0.1624      0.0715     -0.0000      0.0315      0.0102
        45         0.0000      0.0000     -0.0553      0.0031      0.0010
        46        -0.0570      0.0914     -0.0000      0.0116      0.0038
        47        -0.0518      0.1765     -0.0000      0.0338      0.0113
        48         0.0000      0.0000     -0.5044      0.2545      0.0847
        49         0.1783     -0.3439     -0.0000      0.1501      0.0504
        50        -0.0000      0.0000     -0.0513      0.0026      0.0009
        51         0.1723      0.3373     -0.0000      0.1435      0.0483
        52         0.2966      0.4069      0.0000      0.2535      0.0862
        53        -0.7422     -0.0021      0.0000      0.5509      0.1894
        54         0.1901     -0.1990      0.0000      0.0757      0.0265
        55        -0.0000     -0.0000      0.0424      0.0018      0.0006
        56        -0.0000     -0.0000      0.0919      0.0084      0.0030
        57         0.0000      0.0000     -0.3358      0.1128      0.0400
        58        -0.5724     -0.0974     -0.0000      0.3371      0.1197
        59         0.0000      0.0000      0.3464      0.1200      0.0433
        60        -0.0545     -0.4165      0.0000      0.1764      0.0637
        61         0.0787      0.0867     -0.0000      0.0137      0.0050
        62         0.3975     -0.3042     -0.0000      0.2505      0.0916
        63        -0.0000     -0.0000     -0.3391      0.1150      0.0425
        64         0.2147     -0.2500     -0.0000      0.1086      0.0403
        65         0.0659     -0.0459      0.0000      0.0064      0.0024
        66        -0.4543     -0.2727     -0.0000      0.2807      0.1057
        67         0.0000     -0.0000     -0.2245      0.0504      0.0190
        68         0.0937     -0.2756      0.0000      0.0847      0.0320
        69         0.4661     -0.0969      0.0000      0.2267      0.0860
        70        -0.0000     -0.0000      0.6353      0.4037      0.1531
        71        -0.0000     -0.0000      0.1045      0.0109      0.0042
        72         0.0000      0.0000      0.2223      0.0494      0.0189
        73        -0.2403      0.0973     -0.0000      0.0672      0.0257
        74        -0.0849     -0.1943      0.0000      0.0449      0.0172
        75         0.0137     -0.1672      0.0000      0.0281      0.0108
        76        -0.2292     -0.1383     -0.0000      0.0716      0.0277
        77         0.0000      0.0000     -0.0002      0.0000      0.0000
        78         0.2333      0.4785      0.0000      0.2834      0.1103
        79         0.0000     -0.0000     -0.0671      0.0045      0.0018
        80         0.0000     -0.0000     -0.0700      0.0049      0.0019
        81         0.4500     -0.2482      0.0000      0.2641      0.1046
        82         0.0000      0.0000      0.0403      0.0016      0.0006
        83        -0.1565     -0.2648     -0.0000      0.0946      0.0377
        84        -0.3531     -0.0336     -0.0000      0.1258      0.0507
        85        -0.4189      0.0078      0.0000      0.1755      0.0712
        86        -0.0000     -0.0000     -0.0592      0.0035      0.0014
        87        -0.0379     -0.2015     -0.0000      0.0420      0.0171
        88        -0.0000     -0.0000      0.5751      0.3308      0.1358
        89         0.0303     -0.1902      0.0000      0.0371      0.0152
        90        -0.0000     -0.0000      0.0094      0.0001      0.0000
[...]
     14   0.000000D+00  0.814791D+00  0.280939D+00 -0.112549D+00  0.000000D+00
     15   0.114253D+00  0.000000D+00  0.000000D+00  0.000000D+00 -0.347170D+00
     16  -0.825633D-02  0.000000D+00  0.000000D+00  0.000000D+00  0.494560D-01
               606           607           608           609           610 
      1  -0.166261D+03 -0.166249D+03 -0.166236D+03 -0.166226D+03 -0.166218D+03
      2  -0.441577D-03  0.125268D-01  0.000000D+00 -0.168185D-01  0.000000D+00
      3   0.319297D-01  0.478181D-01  0.000000D+00 -0.489908D-01  0.000000D+00
      4   0.000000D+00  0.000000D+00  0.915111D-01  0.000000D+00 -0.557271D-01
      5  -0.162042D-01 -0.482280D-01  0.000000D+00  0.589973D-01  0.000000D+00
      6  -0.781947D-01 -0.144636D+00  0.000000D+00  0.132968D+00  0.000000D+00
      7   0.000000D+00  0.000000D+00 -0.271449D+00  0.000000D+00  0.138795D+00
      8   0.000000D+00  0.000000D+00  0.553863D-01  0.000000D+00  0.763538D-01
      9   0.000000D+00  0.000000D+00 -0.248773D+00  0.000000D+00  0.279210D-01
     10  -0.405440D+00 -0.322489D-01  0.000000D+00 -0.725882D+00  0.000000D+00
     11   0.307050D+00 -0.162156D+01  0.000000D+00 -0.588979D+00  0.000000D+00
     12  -0.182600D+00 -0.798590D+00  0.000000D+00 -0.232784D+00  0.000000D+00
     13  -0.594001D-01  0.633426D-01  0.000000D+00 -0.232705D-01  0.000000D+00
     14  -0.424167D+00 -0.784232D+00  0.000000D+00 -0.681499D+00  0.000000D+00
     15   0.000000D+00  0.000000D+00  0.198983D+00  0.000000D+00 -0.578276D-01
     16   0.000000D+00  0.000000D+00  0.804499D-01  0.000000D+00  0.215778D+00
               611           612           613           614           615 
      1  -0.166198D+03 -0.166190D+03 -0.166176D+03 -0.166173D+03 -0.166169D+03
      2   0.000000D+00  0.000000D+00 -0.116648D+00  0.195148D-02  0.000000D+00
      3   0.000000D+00  0.000000D+00 -0.116940D+00  0.156903D-01  0.000000D+00
      4  -0.372708D-01 -0.693242D-01  0.000000D+00  0.000000D+00  0.127292D+00
      5   0.000000D+00  0.000000D+00  0.376932D+00  0.365406D-01  0.000000D+00
      6   0.000000D+00  0.000000D+00  0.351485D+00 -0.445831D-01  0.000000D+00
      7   0.111474D+00  0.189741D+00  0.000000D+00  0.000000D+00 -0.366524D+00
      8  -0.419411D-01  0.201260D+00  0.000000D+00  0.000000D+00  0.280066D+00
      9   0.107583D-01  0.331802D+00  0.000000D+00  0.000000D+00 -0.400611D+00
     10   0.000000D+00  0.000000D+00 -0.511900D+00  0.129821D+00  0.000000D+00
     11   0.000000D+00  0.000000D+00 -0.163604D+01 -0.548488D-01  0.000000D+00
     12   0.000000D+00  0.000000D+00 -0.373374D+00  0.524801D+00  0.000000D+00
     13   0.000000D+00  0.000000D+00 -0.251571D-01  0.313137D+00  0.000000D+00
     14   0.000000D+00  0.000000D+00 -0.738485D+00 -0.869138D-01  0.000000D+00
     15   0.219553D+00 -0.400635D+00  0.000000D+00  0.000000D+00  0.266275D+00
     16  -0.465697D-01  0.376528D+00  0.000000D+00  0.000000D+00  0.476524D+00
               616           617           618           619           620 
      1  -0.166167D+03 -0.166162D+03 -0.166155D+03 -0.166151D+03 -0.166150D+03
      2  -0.193781D-01 -0.119385D+00  0.000000D+00  0.000000D+00 -0.154614D+00
      3   0.852052D-01 -0.937705D-01  0.000000D+00  0.000000D+00  0.245904D+00
      4   0.000000D+00  0.000000D+00 -0.993411D-01  0.431662D-02  0.000000D+00
      5   0.745293D-01  0.371299D+00  0.000000D+00  0.000000D+00  0.470147D+00
      6  -0.258708D+00  0.276944D+00  0.000000D+00  0.000000D+00 -0.736210D+00
      7   0.000000D+00  0.000000D+00  0.271330D+00 -0.154822D-01  0.000000D+00
      8   0.000000D+00  0.000000D+00 -0.240900D+00 -0.124652D+00  0.000000D+00
      9   0.000000D+00  0.000000D+00  0.764330D+00  0.218781D+00  0.000000D+00
     10  -0.360818D+00  0.223819D+00  0.000000D+00  0.000000D+00  0.135352D+01
     11   0.488668D+00 -0.404901D+00  0.000000D+00  0.000000D+00 -0.169742D+01
     12  -0.153506D+00 -0.194711D+00  0.000000D+00  0.000000D+00  0.118821D+01
     13   0.103513D+00  0.188868D+00  0.000000D+00  0.000000D+00 -0.279099D+00
     14   0.523744D+00  0.622269D+00  0.000000D+00  0.000000D+00  0.494034D+00
     15   0.000000D+00  0.000000D+00 -0.737961D+00 -0.493003D+00  0.000000D+00
     16   0.000000D+00  0.000000D+00 -0.374618D+00 -0.194065D+00  0.000000D+00
               621           622           623           624           625 
      1  -0.166133D+03 -0.166127D+03 -0.166109D+03 -0.166104D+03 -0.166074D+03
      2   0.733723D-01  0.000000D+00  0.704895D-01  0.000000D+00 -0.367521D-01
      3   0.159852D+00  0.000000D+00  0.779742D-01  0.000000D+00  0.298212D-01
      4   0.000000D+00 -0.957611D-01  0.000000D+00 -0.778580D-01  0.000000D+00
      5  -0.217177D+00  0.000000D+00 -0.215828D+00  0.000000D+00  0.121124D+00
      6  -0.484706D+00  0.000000D+00 -0.250074D+00  0.000000D+00 -0.104235D+00
      7   0.000000D+00  0.275334D+00  0.000000D+00  0.223099D+00  0.000000D+00
      8   0.000000D+00 -0.725037D-01  0.000000D+00  0.129352D+00  0.000000D+00
      9   0.000000D+00  0.453551D+00  0.000000D+00  0.189118D+00  0.000000D+00
     10   0.785404D+00  0.000000D+00  0.712753D+00  0.000000D+00  0.377327D-01
     11   0.906702D+00  0.000000D+00  0.388888D+00  0.000000D+00 -0.403357D+00
     12   0.884061D+00  0.000000D+00  0.625565D+00  0.000000D+00  0.176479D-01
     13   0.741708D-01  0.000000D+00  0.809542D-01  0.000000D+00 -0.743578D-01
     14   0.142752D+01  0.000000D+00  0.105387D+01  0.000000D+00  0.198135D+00
     15   0.000000D+00 -0.308774D+00  0.000000D+00 -0.183000D+00  0.000000D+00
     16   0.000000D+00 -0.101061D+00  0.000000D+00  0.167638D+00  0.000000D+00
               626           627           628           629           630 
      1  -0.166073D+03 -0.166065D+03 -0.166060D+03 -0.166056D+03 -0.166049D+03
      2   0.000000D+00  0.126725D+00  0.000000D+00 -0.449802D-01 -0.367463D-01
      3   0.000000D+00 -0.736114D-01  0.000000D+00  0.101324D-01 -0.704180D-01
      4   0.142346D+00  0.000000D+00  0.462444D-01  0.000000D+00  0.000000D+00
      5   0.000000D+00 -0.402106D+00  0.000000D+00  0.133950D+00  0.119081D+00
      6   0.000000D+00  0.213897D+00  0.000000D+00 -0.149144D-01  0.182525D+00
      7  -0.420244D+00  0.000000D+00 -0.134611D+00  0.000000D+00  0.000000D+00
      8   0.282978D+00  0.000000D+00  0.122456D+00  0.000000D+00  0.000000D+00
      9  -0.699852D+00  0.000000D+00 -0.449239D+00  0.000000D+00  0.000000D+00
     10   0.000000D+00 -0.298751D+00  0.000000D+00  0.487335D+00 -0.124855D+00
     11   0.000000D+00  0.214370D+01  0.000000D+00 -0.730375D+00  0.723544D+00
     12   0.000000D+00 -0.680925D-01  0.000000D+00  0.932254D-01 -0.189636D+00
     13   0.000000D+00  0.523598D-01  0.000000D+00 -0.661321D-01  0.672342D-01
     14   0.000000D+00  0.541593D+00  0.000000D+00  0.794775D-01 -0.151041D+00
     15   0.492308D+00  0.000000D+00  0.576125D+00  0.000000D+00  0.000000D+00
     16   0.488273D+00  0.000000D+00  0.220815D+00  0.000000D+00  0.000000D+00
               631           632           633           634           635 
      1  -0.166043D+03 -0.166030D+03 -0.165985D+03 -0.165985D+03 -0.165979D+03
      2   0.000000D+00 -0.591375D-03  0.184351D+00  0.000000D+00  0.500748D-01
      3   0.000000D+00  0.121229D+00 -0.961034D-01  0.000000D+00 -0.846598D-01
      4   0.127499D+00  0.000000D+00  0.000000D+00  0.188033D+00  0.000000D+00
      5   0.000000D+00  0.122261D-01 -0.579686D+00  0.000000D+00 -0.146179D+00
      6   0.000000D+00 -0.366463D+00  0.288193D+00  0.000000D+00  0.253319D+00
      7  -0.392022D+00  0.000000D+00  0.000000D+00 -0.569498D+00  0.000000D+00
      8  -0.369148D+00  0.000000D+00  0.000000D+00  0.671548D+00  0.000000D+00
      9  -0.209797D+00  0.000000D+00  0.000000D+00 -0.133322D+01  0.000000D+00
     10   0.000000D+00  0.332091D+00 -0.158866D+00  0.000000D+00  0.970802D-02
     11   0.000000D+00 -0.378222D+00  0.682478D+00  0.000000D+00 -0.770403D+00
     12   0.000000D+00  0.748320D-01  0.519609D+00  0.000000D+00 -0.737221D-01
     13   0.000000D+00  0.141060D+00 -0.110453D+00  0.000000D+00 -0.919528D-01
     14   0.000000D+00  0.428516D+00 -0.444765D+00  0.000000D+00 -0.227182D+00
     15   0.253225D+00  0.000000D+00  0.000000D+00  0.133708D+01  0.000000D+00
     16  -0.602093D+00  0.000000D+00  0.000000D+00  0.103297D+01  0.000000D+00
               636           637           638           639           640 
      1  -0.165943D+03 -0.165921D+03 -0.165893D+03 -0.165887D+03 -0.165865D+03
      2  -0.232457D-01  0.000000D+00  0.745067D-01  0.000000D+00  0.138522D-01
      3  -0.280768D-01  0.000000D+00 -0.608625D-01  0.000000D+00 -0.241765D-01
      4   0.000000D+00  0.522987D-01  0.000000D+00  0.347200D-01  0.000000D+00
      5   0.739301D-01  0.000000D+00 -0.250864D+00  0.000000D+00 -0.396595D-01
      6   0.950183D-01  0.000000D+00  0.190513D+00  0.000000D+00  0.773104D-01
      7   0.000000D+00 -0.166068D+00  0.000000D+00 -0.101251D+00  0.000000D+00
      8   0.000000D+00  0.760514D-01  0.000000D+00  0.525859D-01  0.000000D+00
      9   0.000000D+00 -0.364458D+00  0.000000D+00 -0.142553D+00  0.000000D+00
     10  -0.150772D-01  0.000000D+00 -0.546865D+00  0.000000D+00 -0.138723D+00
     11   0.227640D+00  0.000000D+00  0.736567D+00  0.000000D+00 -0.994076D+00
     12  -0.737386D-01  0.000000D+00 -0.158291D+01  0.000000D+00 -0.102288D+01
     13  -0.149094D+00  0.000000D+00  0.659342D-01  0.000000D+00  0.242984D+00
     14  -0.797828D-01  0.000000D+00 -0.842422D+00  0.000000D+00 -0.574043D-01
     15   0.000000D+00  0.473007D+00  0.000000D+00  0.201936D+00  0.000000D+00
     16   0.000000D+00  0.347680D+00  0.000000D+00 -0.190293D+00  0.000000D+00
               641           642           643           644           645 
      1  -0.165843D+03 -0.165821D+03 -0.165784D+03 -0.165780D+03 -0.165774D+03
      2  -0.721501D-01  0.000000D+00  0.000000D+00  0.000000D+00  0.651986D-01
      3  -0.952402D-01  0.000000D+00  0.000000D+00  0.000000D+00  0.710326D-01
      4   0.000000D+00 -0.202007D-02 -0.225656D-01 -0.601888D-01  0.000000D+00
      5   0.225096D+00  0.000000D+00  0.000000D+00  0.000000D+00 -0.238398D+00
      6   0.309529D+00  0.000000D+00  0.000000D+00  0.000000D+00 -0.241321D+00
      7   0.000000D+00  0.392162D-02  0.498599D-01  0.190500D+00  0.000000D+00
      8   0.000000D+00  0.133261D+00  0.107148D+00 -0.129245D+00  0.000000D+00
      9   0.000000D+00 -0.131508D+00 -0.276593D-01  0.319660D+00  0.000000D+00
     10   0.193778D+00  0.000000D+00  0.000000D+00  0.000000D+00  0.326860D+00
     11   0.208128D-01  0.000000D+00  0.000000D+00  0.000000D+00 -0.248776D+00
     12  -0.141575D+00  0.000000D+00  0.000000D+00  0.000000D+00  0.911546D+00
     13  -0.710820D-01  0.000000D+00  0.000000D+00  0.000000D+00 -0.182753D+00
     14   0.104724D+00  0.000000D+00  0.000000D+00  0.000000D+00  0.608564D+00
     15   0.000000D+00  0.116087D+00 -0.100639D+00 -0.433842D+00  0.000000D+00
     16   0.000000D+00 -0.388790D-03  0.141251D+00 -0.148402D+00  0.000000D+00
               646           647           648           649           650 
      1  -0.165750D+03 -0.165716D+03 -0.165680D+03 -0.165667D+03 -0.165652D+03
      2   0.223779D-01 -0.136992D-01 -0.861035D-01  0.775988D-02  0.000000D+00
      3  -0.521760D-01 -0.810013D-01 -0.446315D-01 -0.976445D-01  0.000000D+00
      4   0.000000D+00  0.000000D+00  0.000000D+00  0.000000D+00  0.220337D+00
      5  -0.684747D-01  0.557874D-01  0.298626D+00 -0.181482D-01  0.000000D+00
      6   0.168811D+00  0.300710D+00  0.176100D+00  0.347247D+00  0.000000D+00
      7   0.000000D+00  0.000000D+00  0.000000D+00  0.000000D+00 -0.757598D+00
      8   0.000000D+00  0.000000D+00  0.000000D+00  0.000000D+00  0.290884D+00
      9   0.000000D+00  0.000000D+00  0.000000D+00  0.000000D+00 -0.129448D+01
     10   0.115593D+00 -0.122570D+01 -0.513268D+00  0.125724D+00  0.000000D+00
     11  -0.926013D-01  0.250814D+00 -0.285639D+00 -0.969022D+00  0.000000D+00
     12   0.116889D+00 -0.733250D+00 -0.241011D+00 -0.214354D+00  0.000000D+00
     13  -0.220655D+00  0.119868D+00 -0.256307D-02  0.497523D-01  0.000000D+00
     14   0.769606D-01 -0.752149D+00 -0.493341D-01 -0.258400D+00  0.000000D+00
     15   0.000000D+00  0.000000D+00  0.000000D+00  0.000000D+00  0.122134D+01
     16   0.000000D+00  0.000000D+00  0.000000D+00  0.000000D+00  0.396170D+00
               651           652           653           654           655 
      1  -0.165628D+03 -0.165613D+03 -0.165593D+03 -0.165584D+03 -0.165545D+03
      2  -0.981275D-02 -0.483604D-01 -0.160438D-01  0.000000D+00  0.000000D+00
      3  -0.119402D-01  0.376159D-01 -0.151098D-01  0.000000D+00  0.000000D+00
      4   0.000000D+00  0.000000D+00  0.000000D+00 -0.342362D-01  0.281210D-01
      5   0.561253D-01  0.162028D+00  0.506496D-01  0.000000D+00  0.000000D+00
      6   0.263097D-01 -0.133333D+00  0.640163D-01  0.000000D+00  0.000000D+00
      7   0.000000D+00  0.000000D+00  0.000000D+00  0.119593D+00 -0.103401D+00
      8   0.000000D+00  0.000000D+00  0.000000D+00 -0.107107D+00  0.454828D-01
      9   0.000000D+00  0.000000D+00  0.000000D+00  0.267174D+00 -0.183797D+00
     10   0.213764D+00  0.472998D+00  0.300601D+00  0.000000D+00  0.000000D+00
     11  -0.152242D+00 -0.892898D-01 -0.524086D+00  0.000000D+00  0.000000D+00
     12  -0.118526D+00  0.428383D-01  0.254835D+00  0.000000D+00  0.000000D+00
     13   0.150317D-01  0.153976D+00 -0.146141D+00  0.000000D+00  0.000000D+00
     14   0.497578D+00  0.443614D+00 -0.534287D+00  0.000000D+00  0.000000D+00
     15   0.000000D+00  0.000000D+00  0.000000D+00 -0.228638D+00  0.542595D+00
     16   0.000000D+00  0.000000D+00  0.000000D+00  0.331634D+00  0.679066D-01
               656           657           658           659           660 
      1  -0.165545D+03 -0.165528D+03 -0.165509D+03 -0.165495D+03 -0.165433D+03
      2  -0.574754D-01  0.358545D-01  0.000000D+00  0.117654D-01  0.754082D-01
      3   0.880299D-02 -0.254753D-02  0.000000D+00 -0.823874D-01  0.214677D-01
      4   0.000000D+00  0.000000D+00  0.216556D+00  0.000000D+00  0.000000D+00
      5   0.203229D+00 -0.132278D+00  0.000000D+00 -0.283603D-01 -0.273421D+00
      6  -0.181645D-01 -0.361696D-02  0.000000D+00  0.296123D+00 -0.668585D-01
      7   0.000000D+00  0.000000D+00 -0.740939D+00  0.000000D+00  0.000000D+00
      8   0.000000D+00  0.000000D+00  0.701290D+00  0.000000D+00  0.000000D+00
      9   0.000000D+00  0.000000D+00 -0.160605D+01  0.000000D+00  0.000000D+00
     10   0.397825D+00  0.181101D-01  0.000000D+00 -0.221408D+00 -0.117219D+00
     11  -0.615608D+00  0.344759D+00  0.000000D+00 -0.259291D+00  0.741665D+00
     12   0.859175D-01  0.142163D+00  0.000000D+00  0.173748D+00 -0.339677D+00
     13  -0.121543D+00  0.759799D-03  0.000000D+00  0.191414D+00  0.150733D+00
     14  -0.555653D-01  0.194785D+00  0.000000D+00 -0.320117D+00  0.654599D-01
     15   0.000000D+00  0.000000D+00  0.157395D+01  0.000000D+00  0.000000D+00
     16   0.000000D+00  0.000000D+00  0.990881D+00  0.000000D+00  0.000000D+00
               661           662           663           664           665 
      1  -0.165418D+03 -0.165395D+03 -0.165382D+03 -0.165366D+03 -0.165350D+03
      2   0.166808D-01  0.000000D+00 -0.110233D+00 -0.278801D-01  0.138991D+00
      3  -0.240130D-01  0.000000D+00 -0.116249D-01 -0.822369D-02  0.442697D-01
      4   0.000000D+00 -0.217267D-01  0.000000D+00  0.000000D+00  0.000000D+00
      5  -0.525408D-01  0.000000D+00  0.415643D+00  0.948099D-01 -0.566949D+00
      6   0.648524D-01  0.000000D+00  0.360037D-01  0.276772D-01 -0.189145D+00
      7   0.000000D+00  0.937288D-01  0.000000D+00  0.000000D+00  0.000000D+00
      8   0.000000D+00 -0.165200D+00  0.000000D+00  0.000000D+00  0.000000D+00
      9   0.000000D+00  0.314032D+00  0.000000D+00  0.000000D+00  0.000000D+00
     10   0.133186D+00  0.000000D+00  0.153355D-01  0.249963D+00  0.211567D+00
     11   0.177632D+00  0.000000D+00 -0.706908D+00  0.220939D+00  0.173645D+01
     12   0.177616D+00  0.000000D+00 -0.385776D+00 -0.130539D-01  0.471377D-02
     13  -0.631542D-01  0.000000D+00 -0.345343D-01  0.629684D-01  0.103635D-01
     14   0.134232D+00  0.000000D+00  0.780733D-01  0.853228D-02  0.560082D+00
     15   0.000000D+00 -0.162345D+00  0.000000D+00  0.000000D+00  0.000000D+00
     16   0.000000D+00 -0.263249D+00  0.000000D+00  0.000000D+00  0.000000D+00
               666           667           668           669           670 
      1  -0.165256D+03 -0.165244D+03 -0.165184D+03 -0.165145D+03 -0.165134D+03
      2   0.000000D+00  0.902192D-01 -0.151594D+00 -0.295962D-01  0.245503D-01
      3   0.000000D+00 -0.711263D-01 -0.522403D-01  0.217975D-01 -0.519593D-01
      4  -0.498200D-01  0.000000D+00  0.000000D+00  0.000000D+00  0.000000D+00
      5   0.000000D+00 -0.340146D+00  0.604835D+00  0.971576D-01 -0.830758D-01
      6   0.000000D+00  0.285323D+00  0.226207D+00 -0.814580D-01  0.202522D+00
      7   0.211532D+00  0.000000D+00  0.000000D+00  0.000000D+00  0.000000D+00
      8  -0.188666D-01  0.000000D+00  0.000000D+00  0.000000D+00  0.000000D+00
      9   0.265993D+00  0.000000D+00  0.000000D+00  0.000000D+00  0.000000D+00
     10   0.000000D+00 -0.574465D+00  0.167712D+00  0.417068D-01 -0.555812D+00
     11   0.000000D+00  0.918967D+00 -0.238267D+01  0.177091D-01  0.270959D+00
     12   0.000000D+00 -0.389227D+00  0.192046D+00 -0.202663D-01 -0.523770D+00
     13   0.000000D+00  0.102251D+00 -0.100312D+00  0.137761D-01  0.175891D+00
     14   0.000000D+00 -0.146312D+00 -0.827597D+00  0.810913D-01 -0.246042D+00
     15  -0.264230D-01  0.000000D+00  0.000000D+00  0.000000D+00  0.000000D+00
     16  -0.174206D-01  0.000000D+00  0.000000D+00  0.000000D+00  0.000000D+00
               671           672           673           674           675 
      1  -0.165127D+03 -0.165058D+03 -0.164906D+03 -0.164838D+03 -0.164611D+03
      2  -0.647218D-01  0.975444D-02 -0.312809D-01  0.195315D-01  0.104799D-01
      3   0.765821D-01  0.132120D+00  0.134106D-01 -0.174182D-01 -0.255207D-01
      4   0.000000D+00  0.000000D+00  0.000000D+00  0.000000D+00  0.000000D+00
      5   0.262731D+00 -0.772013D-01  0.180944D+00 -0.606578D-01  0.271422D-01
      6  -0.290377D+00 -0.555295D+00 -0.552090D-03  0.796340D-01  0.150479D+00
      7   0.000000D+00  0.000000D+00  0.000000D+00  0.000000D+00  0.000000D+00
      8   0.000000D+00  0.000000D+00  0.000000D+00  0.000000D+00  0.000000D+00
      9   0.000000D+00  0.000000D+00  0.000000D+00  0.000000D+00  0.000000D+00
     10   0.779971D+00  0.103594D+01  0.159831D+00 -0.205520D+00 -0.231333D+00
     11  -0.145991D+01 -0.253552D-01 -0.461183D+00 -0.204347D-01 -0.826265D-01
     12   0.895416D-01  0.678830D+00  0.199605D+00 -0.565928D+00 -0.132793D+00
     13   0.391526D-01 -0.660673D-01 -0.231710D+00  0.363533D-01  0.934718D-01
     14  -0.186167D+00  0.919252D+00 -0.834829D-01 -0.334194D+00 -0.651829D-01
     15   0.000000D+00  0.000000D+00  0.000000D+00  0.000000D+00  0.000000D+00
     16   0.000000D+00  0.000000D+00  0.000000D+00  0.000000D+00  0.000000D+00
 Unable to Open any file for archive entry.
 1\1\GINC-HEL25\SP\RPBEPBE TD-FC\Gen\C1H3N1O1\SABYASACHI\21-Mar-2022\0\
 \#P TD(Nstates=10000) pbepbe/Gen SCF(maxcycles=100) Int(Grid=ultrafine
 )\\xGDB7_00001_tier4.com\\0,1\O,0,-1.028621,-0.395177,0.\N,0,0.,0.5262
 28,0.\C,0,1.132746,-0.030907,0.\H,0,-1.816572,0.151791,0.\H,0,1.994262
 ,0.623439,0.\H,0,1.254802,-1.111965,0.\\Version=EM64L-G16RevC.01\State
 =1-A'\HF=-169.5121055\RMSD=2.692e-09\PG=CS [SG(C1H3N1O1)]\\@
 The archive entry for this job was punched.


 ERWIN WITH HIS PSI CAN DO
 CALCULATIONS QUITE A FEW.
 BUT ONE THING HAS NOT BEEN SEEN
 JUST WHAT DOES PSI REALLY MEAN.
 -- WALTER HUCKEL, TRANS. BY FELIX BLOCH
 Job cpu time:       0 days  0 hours  7 minutes  2.5 seconds.
 Elapsed time:       0 days  0 hours  0 minutes 53.1 seconds.
 File lengths (MBytes):  RWF=    227 Int=      0 D2E=      0 Chk=    127 Scr=      1
 Normal termination of Gaussian 16 at Mon Mar 21 20:12:49 2022.
