 Entering Gaussian System, Link 0=g16
 Input=000002.com
 Output=000002.log
 Initial command:
 /home/sabyasachi/g16/l1.exe "/scratch/sabyasachi/PBS_7976433.helios/Gau-34340.inp" -scrdir="/scratch/sabyasachi/PBS_7976433.helios/"
 Entering Link 1 = /home/sabyasachi/g16/l1.exe PID=     34341.
  
 Copyright (c) 1988-2019, Gaussian, Inc.  All Rights Reserved.
  
 This is part of the Gaussian(R) 16 program.  It is based on
 the Gaussian(R) 09 system (copyright 2009, Gaussian, Inc.),
 the Gaussian(R) 03 system (copyright 2003, Gaussian, Inc.),
 the Gaussian(R) 98 system (copyright 1998, Gaussian, Inc.),
 the Gaussian(R) 94 system (copyright 1995, Gaussian, Inc.),
 the Gaussian 92(TM) system (copyright 1992, Gaussian, Inc.),
 the Gaussian 90(TM) system (copyright 1990, Gaussian, Inc.),
 the Gaussian 88(TM) system (copyright 1988, Gaussian, Inc.),
 the Gaussian 86(TM) system (copyright 1986, Carnegie Mellon
 University), and the Gaussian 82(TM) system (copyright 1983,
 Carnegie Mellon University). Gaussian is a federally registered
 trademark of Gaussian, Inc.
  
 This software contains proprietary and confidential information,
 including trade secrets, belonging to Gaussian, Inc.
  
 This software is provided under written license and may be
 used, copied, transmitted, or stored only in accord with that
 written license.
  
 The following legend is applicable only to US Government
 contracts under FAR:
  
                    RESTRICTED RIGHTS LEGEND
  
 Use, reproduction and disclosure by the US Government is
 subject to restrictions as set forth in subparagraphs (a)
 and (c) of the Commercial Computer Software - Restricted
 Rights clause in FAR 52.227-19.
  
 Gaussian, Inc.
 340 Quinnipiac St., Bldg. 40, Wallingford CT 06492
  
  
 ---------------------------------------------------------------
 Warning -- This program may not be used in any manner that
 competes with the business of Gaussian, Inc. or will provide
 assistance to any competitor of Gaussian, Inc.  The licensee
 of this program is prohibited from giving any competitor of
 Gaussian, Inc. access to this program.  By using this program,
 the user acknowledges that Gaussian, Inc. is engaged in the
 business of creating and licensing software in the field of
 computational chemistry and represents and warrants to the
 licensee that it is not a competitor of Gaussian, Inc. and that
 it will not use this program in any manner prohibited above.
 ---------------------------------------------------------------
  

 Cite this work as:
 Gaussian 16, Revision C.01,
 M. J. Frisch, G. W. Trucks, H. B. Schlegel, G. E. Scuseria, 
 M. A. Robb, J. R. Cheeseman, G. Scalmani, V. Barone, 
 G. A. Petersson, H. Nakatsuji, X. Li, M. Caricato, A. V. Marenich, 
 J. Bloino, B. G. Janesko, R. Gomperts, B. Mennucci, H. P. Hratchian, 
 J. V. Ortiz, A. F. Izmaylov, J. L. Sonnenberg, D. Williams-Young, 
 F. Ding, F. Lipparini, F. Egidi, J. Goings, B. Peng, A. Petrone, 
 T. Henderson, D. Ranasinghe, V. G. Zakrzewski, J. Gao, N. Rega, 
 G. Zheng, W. Liang, M. Hada, M. Ehara, K. Toyota, R. Fukuda, 
 J. Hasegawa, M. Ishida, T. Nakajima, Y. Honda, O. Kitao, H. Nakai, 
 T. Vreven, K. Throssell, J. A. Montgomery, Jr., J. E. Peralta, 
 F. Ogliaro, M. J. Bearpark, J. J. Heyd, E. N. Brothers, K. N. Kudin, 
 V. N. Staroverov, T. A. Keith, R. Kobayashi, J. Normand, 
 K. Raghavachari, A. P. Rendell, J. C. Burant, S. S. Iyengar, 
 J. Tomasi, M. Cossi, J. M. Millam, M. Klene, C. Adamo, R. Cammi, 
 J. W. Ochterski, R. L. Martin, K. Morokuma, O. Farkas, 
 J. B. Foresman, and D. J. Fox, Gaussian, Inc., Wallingford CT, 2019.
 
 ******************************************
 Gaussian 16:  EM64L-G16RevC.01  3-Jul-2019
                21-Mar-2022 
 ******************************************
 %mem=64gb
 %nproc=8
 Will use up to    8 processors via shared memory.
 ----------------------------------------------------------------------
 #P TD(Nstates=10000) pbepbe/Gen SCF(maxcycles=100) Int(Grid=ultrafine)
 ----------------------------------------------------------------------
 1/38=1,172=1/1;
 2/12=2,17=6,18=5,40=1/2;
 3/5=7,11=9,25=1,30=1,74=1009,75=-5/1,2,3,8;
 4//1;
 5/5=2,7=100,38=5/2;
 8/6=1,10=1,108=10000/1;
 9/41=10000,42=1,70=2/14;
 6/7=2,8=2,9=2,10=2/1;
 99/5=1,9=1/99;
 Leave Link    1 at Mon Mar 21 20:19:50 2022, MaxMem=  8589934592 cpu:               0.4 elap:               0.1
 (Enter /home/sabyasachi/g16/l101.exe)
 ---------------------
 xGDB7_00001_tier4.com
 ---------------------
 Symbolic Z-matrix:
 Charge =  0 Multiplicity = 1
 7                     0.        0.        0.11046 
 1                     0.15411   0.92909  -0.25776 
 1                     0.72756  -0.59801  -0.25776 
 1                    -0.88169  -0.33108  -0.25773 
 
 ITRead=  0  0  0  0
 MicOpt= -1 -1 -1 -1
 NAtoms=      4 NQM=        4 NQMF=       0 NMMI=      0 NMMIF=      0
                NMic=       0 NMicF=      0.
                    Isotopes and Nuclear Properties:
 (Nuclear quadrupole moments (NQMom) in fm**2, nuclear magnetic moments (NMagM)
  in nuclear magnetons)

  Atom         1           2           3           4
 IAtWgt=          14           1           1           1
 AtmWgt=  14.0030740   1.0078250   1.0078250   1.0078250
 NucSpn=           2           1           1           1
 AtZEff=  -0.0000000  -0.0000000  -0.0000000  -0.0000000
 NQMom=    2.0440000   0.0000000   0.0000000   0.0000000
 NMagM=    0.4037610   2.7928460   2.7928460   2.7928460
 AtZNuc=   7.0000000   1.0000000   1.0000000   1.0000000
 Leave Link  101 at Mon Mar 21 20:19:50 2022, MaxMem=  8589934592 cpu:               0.6 elap:               0.1
 (Enter /home/sabyasachi/g16/l202.exe)
                          Input orientation:                          
 ---------------------------------------------------------------------
 Center     Atomic      Atomic             Coordinates (Angstroms)
 Number     Number       Type             X           Y           Z
 ---------------------------------------------------------------------
      1          7           0        0.000002    0.000000    0.110463
      2          1           0        0.154111    0.929092   -0.257758
      3          1           0        0.727563   -0.598011   -0.257757
      4          1           0       -0.881687   -0.331078   -0.257728
 ---------------------------------------------------------------------
                    Distance matrix (angstroms):
                    1          2          3          4
     1  N    0.000000
     2  H    1.011211   0.000000
     3  H    1.011211   1.631224   0.000000
     4  H    1.011214   1.631228   1.631238   0.000000
 Stoichiometry    H3N
 Framework group  C1[X(H3N)]
 Deg. of freedom     6
 Full point group                 C1      NOp   1
 Largest Abelian subgroup         C1      NOp   1
 Largest concise Abelian subgroup C1      NOp   1
                         Standard orientation:                         
 ---------------------------------------------------------------------
 Center     Atomic      Atomic             Coordinates (Angstroms)
 Number     Number       Type             X           Y           Z
 ---------------------------------------------------------------------
      1          7           0       -0.000002   -0.000000   -0.110463
      2          1           0       -0.147185    0.930214    0.257758
      3          1           0       -0.731998   -0.592574    0.257757
      4          1           0        0.879196   -0.337638    0.257728
 ---------------------------------------------------------------------
 Rotational constants (GHZ):         301.1827395         301.1776119         188.4523565
 Leave Link  202 at Mon Mar 21 20:19:50 2022, MaxMem=  8589934592 cpu:               0.1 elap:               0.0
 (Enter /home/sabyasachi/g16/l301.exe)
 General basis read from cards:  (5D, 7F)
 Centers:       2      3      4
 S 3 1.00
     Exponent=  1.3010701000D+01 Coefficients=  1.9682158000D-02
     Exponent=  1.9622572000D+00 Coefficients=  1.3796524000D-01
     Exponent=  4.4453796000D-01 Coefficients=  4.7831935000D-01
 S 1 1.00
     Exponent=  1.2194962000D-01 Coefficients=  1.0000000000D+00
 P 1 1.00
     Exponent=  8.0000000000D-01 Coefficients=  1.0000000000D+00
 P 1 1.00
     Exponent=  1.1704099050D-01 Coefficients=  1.0000000000D+00
 ****
 Centers:       1
 S 5 1.00
     Exponent=  1.7128415853D+03 Coefficients= -5.3934125305D-03
     Exponent=  2.5764812677D+02 Coefficients= -4.0221581118D-02
     Exponent=  5.8458245853D+01 Coefficients= -1.7931144990D-01
     Exponent=  1.6198367905D+01 Coefficients= -4.6376317823D-01
     Exponent=  5.0052600809D+00 Coefficients= -4.4171422662D-01
 S 1 1.00
     Exponent=  5.8731856571D-01 Coefficients=  1.0000000000D+00
 S 1 1.00
     Exponent=  1.8764592253D-01 Coefficients=  1.0000000000D+00
 S 1 1.00
     Exponent=  9.6171241529D-02 Coefficients=  1.0000000000D+00
 P 3 1.00
     Exponent=  1.3571470233D+01 Coefficients= -4.0072398852D-02
     Exponent=  2.9257372874D+00 Coefficients= -2.1807045028D-01
     Exponent=  7.9927750754D-01 Coefficients= -5.1294466049D-01
 P 1 1.00
     Exponent=  2.1954348034D-01 Coefficients=  1.0000000000D+00
 D 1 1.00
     Exponent=  1.0000000000D+00 Coefficients=  1.0000000000D+00
 D 1 1.00
     Exponent=  1.6697708112D-01 Coefficients=  1.0000000000D+00
 ****
 Ernie: Thresh=  0.10000D-02 Tol=  0.10000D-05 Strict=F.
 There are    46 symmetry adapted cartesian basis functions of A   symmetry.
 There are    44 symmetry adapted basis functions of A   symmetry.
    44 basis functions,    62 primitive gaussians,    46 cartesian basis functions
     5 alpha electrons        5 beta electrons
       nuclear repulsion energy        11.9627184057 Hartrees.
 IExCor= 1009 DFT=T Ex=PBE Corr=PBE ExCW=0 ScaHFX=  0.000000
 ScaDFX=  1.000000  1.000000  1.000000  1.000000 ScalE2=  1.000000  1.000000
 IRadAn=      5 IRanWt=     -1 IRanGd=            0 ICorTp=0 IEmpDi=  4
 NAtoms=    4 NActive=    4 NUniq=    4 SFac= 1.00D+00 NAtFMM=   60 NAOKFM=F Big=F
 Integral buffers will be    131072 words long.
 Regular integral format.
 Two-electron integral symmetry is turned on.
 Leave Link  301 at Mon Mar 21 20:19:50 2022, MaxMem=  8589934592 cpu:               0.5 elap:               0.1
 (Enter /home/sabyasachi/g16/l302.exe)
 NPDir=0 NMtPBC=     1 NCelOv=     1 NCel=       1 NClECP=     1 NCelD=      1
         NCelK=      1 NCelE2=     1 NClLst=     1 CellRange=     0.0.
 One-electron integrals computed using PRISM.
 One-electron integral symmetry used in STVInt
 NBasis=    44 RedAO= T EigKep=  1.30D-03  NBF=    44
 NBsUse=    44 1.00D-06 EigRej= -1.00D+00 NBFU=    44
 Precomputing XC quadrature grid using
 IXCGrd= 4 IRadAn=           5 IRanWt=          -1 IRanGd=           0 AccXCQ= 0.00D+00.
 Generated NRdTot=       0 NPtTot=           0 NUsed=           0 NTot=          32
 NSgBfM=    46    46    46    46    46 MxSgAt=     4 MxSgA2=     4.
 Leave Link  302 at Mon Mar 21 20:19:50 2022, MaxMem=  8589934592 cpu:               0.9 elap:               0.1
 (Enter /home/sabyasachi/g16/l303.exe)
 DipDrv:  MaxL=1.
 Leave Link  303 at Mon Mar 21 20:19:50 2022, MaxMem=  8589934592 cpu:               0.2 elap:               0.0
 (Enter /home/sabyasachi/g16/l308.exe)
 Leave Link  308 at Mon Mar 21 20:19:50 2022, MaxMem=  8589934592 cpu:               0.2 elap:               0.0
 (Enter /home/sabyasachi/g16/l401.exe)
 ExpMin= 9.62D-02 ExpMax= 1.71D+03 ExpMxC= 2.58D+02 IAcc=3 IRadAn=         5 AccDes= 0.00D+00
 Harris functional with IExCor= 1009 and IRadAn=       5 diagonalized for initial guess.
 HarFok:  IExCor= 1009 AccDes= 0.00D+00 IRadAn=         5 IDoV= 1 UseB2=F ITyADJ=14
 ICtDFT=  3500011 ScaDFX=  1.000000  1.000000  1.000000  1.000000
 FoFCou: FMM=F IPFlag=           0 FMFlag=      100000 FMFlg1=           0
         NFxFlg=           0 DoJE=T BraDBF=F KetDBF=T FulRan=T
         wScrn=  0.000000 ICntrl=       500 IOpCl=  0 I1Cent=   200000004 NGrid=           0
         NMat0=    1 NMatS0=      1 NMatT0=    0 NMatD0=    1 NMtDS0=    0 NMtDT0=    0
 Petite list used in FoFCou.
 Harris En= -56.4872510750786    
 JPrj=0 DoOrth=F DoCkMO=F.
 Leave Link  401 at Mon Mar 21 20:19:51 2022, MaxMem=  8589934592 cpu:               1.4 elap:               0.2
 (Enter /home/sabyasachi/g16/l502.exe)
 Keep J ints in memory in canonical form, NReq=7439601.
 FoFCou: FMM=F IPFlag=           0 FMFlag=           0 FMFlg1=           0
         NFxFlg=           0 DoJE=F BraDBF=F KetDBF=F FulRan=T
         wScrn=  0.000000 ICntrl=       600 IOpCl=  0 I1Cent=           0 NGrid=           0
         NMat0=    1 NMatS0=    990 NMatT0=    0 NMatD0=    1 NMtDS0=    0 NMtDT0=    0
 Symmetry not used in FoFCou.
 Two-electron integral symmetry not used.
 Closed shell SCF:
 Using DIIS extrapolation, IDIIS=  1040.
 NGot=  8589934592 LenX=  8589438733 LenY=  8589436176
 Requested convergence on RMS density matrix=1.00D-08 within 100 cycles.
 Requested convergence on MAX density matrix=1.00D-06.
 Requested convergence on             energy=1.00D-06.
 No special actions if energy rises.
 Integral accuracy reduced to 1.0D-05 until final iterations.

 Cycle   1  Pass 0  IDiag  1:
 E= -56.3762987953841    
 DIIS: error= 3.69D-02 at cycle   1 NSaved=   1.
 NSaved= 1 IEnMin= 1 EnMin= -56.3762987953841     IErMin= 1 ErrMin= 3.69D-02
 ErrMax= 3.69D-02  0.00D+00 EMaxC= 1.00D-01 BMatC= 7.82D-02 BMatP= 7.82D-02
 IDIUse=3 WtCom= 6.31D-01 WtEn= 3.69D-01
 Coeff-Com:  0.100D+01
 Coeff-En:   0.100D+01
 Coeff:      0.100D+01
 Gap=     0.097 Goal=   None    Shift=    0.000
 GapD=    0.097 DampG=0.500 DampE=0.500 DampFc=0.2500 IDamp=-1.
 Damping current iteration by 2.50D-01
 RMSDP=1.88D-02 MaxDP=3.18D-01              OVMax= 3.03D-01

 Cycle   2  Pass 0  IDiag  1:
 E= -56.4024034908584     Delta-E=       -0.026104695474 Rises=F Damp=T
 DIIS: error= 1.05D-02 at cycle   2 NSaved=   2.
 NSaved= 2 IEnMin= 2 EnMin= -56.4024034908584     IErMin= 2 ErrMin= 1.05D-02
 ErrMax= 1.05D-02  0.00D+00 EMaxC= 1.00D-01 BMatC= 5.79D-03 BMatP= 7.82D-02
 IDIUse=3 WtCom= 8.95D-01 WtEn= 1.05D-01
 Coeff-Com: -0.362D+00 0.136D+01
 Coeff-En:   0.000D+00 0.100D+01
 Coeff:     -0.324D+00 0.132D+01
 Gap=     0.213 Goal=   None    Shift=    0.000
 RMSDP=3.96D-03 MaxDP=6.03D-02 DE=-2.61D-02 OVMax= 2.08D-01

 Cycle   3  Pass 0  IDiag  1:
 E= -56.4479258575567     Delta-E=       -0.045522366698 Rises=F Damp=F
 DIIS: error= 1.09D-03 at cycle   3 NSaved=   3.
 NSaved= 3 IEnMin= 3 EnMin= -56.4479258575567     IErMin= 3 ErrMin= 1.09D-03
 ErrMax= 1.09D-03  0.00D+00 EMaxC= 1.00D-01 BMatC= 5.71D-05 BMatP= 5.79D-03
 IDIUse=3 WtCom= 9.89D-01 WtEn= 1.09D-02
 Coeff-Com:  0.534D-01-0.101D+00 0.105D+01
 Coeff-En:   0.000D+00 0.000D+00 0.100D+01
 Coeff:      0.528D-01-0.995D-01 0.105D+01
 Gap=     0.229 Goal=   None    Shift=    0.000
 RMSDP=4.09D-04 MaxDP=7.76D-03 DE=-4.55D-02 OVMax= 1.41D-03

 Cycle   4  Pass 0  IDiag  1:
 E= -56.4479621575254     Delta-E=       -0.000036299969 Rises=F Damp=F
 DIIS: error= 3.67D-04 at cycle   4 NSaved=   4.
 NSaved= 4 IEnMin= 4 EnMin= -56.4479621575254     IErMin= 4 ErrMin= 3.67D-04
 ErrMax= 3.67D-04  0.00D+00 EMaxC= 1.00D-01 BMatC= 5.30D-06 BMatP= 5.71D-05
 IDIUse=3 WtCom= 9.96D-01 WtEn= 3.67D-03
 Coeff-Com:  0.195D-01-0.281D-01 0.243D+00 0.765D+00
 Coeff-En:   0.000D+00 0.000D+00 0.000D+00 0.100D+01
 Coeff:      0.195D-01-0.280D-01 0.243D+00 0.766D+00
 Gap=     0.230 Goal=   None    Shift=    0.000
 RMSDP=9.11D-05 MaxDP=1.84D-03 DE=-3.63D-05 OVMax= 9.48D-04

 Cycle   5  Pass 0  IDiag  1:
 E= -56.4479674291864     Delta-E=       -0.000005271661 Rises=F Damp=F
 DIIS: error= 7.19D-05 at cycle   5 NSaved=   5.
 NSaved= 5 IEnMin= 5 EnMin= -56.4479674291864     IErMin= 5 ErrMin= 7.19D-05
 ErrMax= 7.19D-05  0.00D+00 EMaxC= 1.00D-01 BMatC= 1.61D-07 BMatP= 5.30D-06
 IDIUse=1 WtCom= 1.00D+00 WtEn= 0.00D+00
 Coeff-Com:  0.667D-02-0.836D-02 0.678D-01 0.235D+00 0.699D+00
 Coeff:      0.667D-02-0.836D-02 0.678D-01 0.235D+00 0.699D+00
 Gap=     0.230 Goal=   None    Shift=    0.000
 RMSDP=1.24D-05 MaxDP=2.18D-04 DE=-5.27D-06 OVMax= 1.31D-04

 Cycle   6  Pass 0  IDiag  1:
 E= -56.4479675799191     Delta-E=       -0.000000150733 Rises=F Damp=F
 DIIS: error= 1.25D-05 at cycle   6 NSaved=   6.
 NSaved= 6 IEnMin= 6 EnMin= -56.4479675799191     IErMin= 6 ErrMin= 1.25D-05
 ErrMax= 1.25D-05  0.00D+00 EMaxC= 1.00D-01 BMatC= 7.53D-09 BMatP= 1.61D-07
 IDIUse=1 WtCom= 1.00D+00 WtEn= 0.00D+00
 Coeff-Com:  0.442D-03-0.487D-03 0.356D-02-0.114D-01 0.308D-02 0.100D+01
 Coeff:      0.442D-03-0.487D-03 0.356D-02-0.114D-01 0.308D-02 0.100D+01
 Gap=     0.230 Goal=   None    Shift=    0.000
 RMSDP=4.74D-06 MaxDP=9.31D-05 DE=-1.51D-07 OVMax= 3.39D-05

 Initial convergence to 1.0D-05 achieved.  Increase integral accuracy.
 Cycle   7  Pass 1  IDiag  1:
 E= -56.4479683483586     Delta-E=       -0.000000768440 Rises=F Damp=F
 DIIS: error= 9.46D-07 at cycle   1 NSaved=   1.
 NSaved= 1 IEnMin= 1 EnMin= -56.4479683483586     IErMin= 1 ErrMin= 9.46D-07
 ErrMax= 9.46D-07  0.00D+00 EMaxC= 1.00D-01 BMatC= 4.50D-11 BMatP= 4.50D-11
 IDIUse=1 WtCom= 1.00D+00 WtEn= 0.00D+00
 Coeff-Com:  0.100D+01
 Coeff:      0.100D+01
 Gap=     0.230 Goal=   None    Shift=    0.000
 RMSDP=4.74D-06 MaxDP=9.31D-05 DE=-7.68D-07 OVMax= 5.75D-06

 Cycle   8  Pass 1  IDiag  1:
 E= -56.4479683483160     Delta-E=        0.000000000043 Rises=F Damp=F
 DIIS: error= 1.47D-06 at cycle   2 NSaved=   2.
 NSaved= 2 IEnMin= 1 EnMin= -56.4479683483586     IErMin= 1 ErrMin= 9.46D-07
 ErrMax= 1.47D-06  0.00D+00 EMaxC= 1.00D-01 BMatC= 1.12D-10 BMatP= 4.50D-11
 IDIUse=1 WtCom= 1.00D+00 WtEn= 0.00D+00
 Coeff-Com:  0.621D+00 0.379D+00
 Coeff:      0.621D+00 0.379D+00
 Gap=     0.230 Goal=   None    Shift=    0.000
 RMSDP=2.78D-07 MaxDP=5.01D-06 DE= 4.26D-11 OVMax= 3.75D-06

 Cycle   9  Pass 1  IDiag  1:
 E= -56.4479683484131     Delta-E=       -0.000000000097 Rises=F Damp=F
 DIIS: error= 1.27D-07 at cycle   3 NSaved=   3.
 NSaved= 3 IEnMin= 3 EnMin= -56.4479683484131     IErMin= 3 ErrMin= 1.27D-07
 ErrMax= 1.27D-07  0.00D+00 EMaxC= 1.00D-01 BMatC= 8.33D-13 BMatP= 4.50D-11
 IDIUse=1 WtCom= 1.00D+00 WtEn= 0.00D+00
 Coeff-Com:  0.923D-02 0.799D-01 0.911D+00
 Coeff:      0.923D-02 0.799D-01 0.911D+00
 Gap=     0.230 Goal=   None    Shift=    0.000
 RMSDP=2.68D-08 MaxDP=4.01D-07 DE=-9.71D-11 OVMax= 3.56D-07

 Cycle  10  Pass 1  IDiag  1:
 E= -56.4479683484139     Delta-E=       -0.000000000001 Rises=F Damp=F
 DIIS: error= 2.14D-08 at cycle   4 NSaved=   4.
 NSaved= 4 IEnMin= 4 EnMin= -56.4479683484139     IErMin= 4 ErrMin= 2.14D-08
 ErrMax= 2.14D-08  0.00D+00 EMaxC= 1.00D-01 BMatC= 1.87D-14 BMatP= 8.33D-13
 IDIUse=1 WtCom= 1.00D+00 WtEn= 0.00D+00
 Coeff-Com: -0.157D-02 0.225D-01 0.300D+00 0.679D+00
 Coeff:     -0.157D-02 0.225D-01 0.300D+00 0.679D+00
 Gap=     0.230 Goal=   None    Shift=    0.000
 RMSDP=3.18D-09 MaxDP=3.47D-08 DE=-8.10D-13 OVMax= 6.68D-08

 SCF Done:  E(RPBE-PBE) =  -56.4479683484     A.U. after   10 cycles
            NFock= 10  Conv=0.32D-08     -V/T= 2.0098
 KE= 5.590164378919D+01 PE=-1.554568883855D+02 EE= 3.114455784220D+01
 Leave Link  502 at Mon Mar 21 20:19:51 2022, MaxMem=  8589934592 cpu:               3.6 elap:               0.5
 (Enter /home/sabyasachi/g16/l801.exe)
 DoSCS=F DFT=T ScalE2(SS,OS)=  1.000000  1.000000
 ExpMin= 9.62D-02 ExpMax= 1.71D+03 ExpMxC= 2.58D+02 IAcc=3 IRadAn=         5 AccDes= 0.00D+00
 HarFok:  IExCor=  205 AccDes= 0.00D+00 IRadAn=         5 IDoV=-2 UseB2=F ITyADJ=14
 ICtDFT= 12500011 ScaDFX=  1.000000  1.000000  1.000000  1.000000
 Largest valence mixing into a core orbital is  5.37D-05
 Largest core mixing into a valence orbital is  1.08D-05
 Range of M.O.s used for correlation:     2    44
 NBasis=    44 NAE=     5 NBE=     5 NFC=     1 NFV=     0
 NROrb=     43 NOA=     4 NOB=     4 NVA=    39 NVB=    39

 **** Warning!!: The largest alpha MO coefficient is  0.11042431D+02

 Leave Link  801 at Mon Mar 21 20:19:51 2022, MaxMem=  8589934592 cpu:               0.4 elap:               0.1
 (Enter /home/sabyasachi/g16/l914.exe)
 RHF ground state
 Keep J ints in memory in canonical form, NReq=44823773.
 FoFCou: FMM=F IPFlag=           0 FMFlag=           0 FMFlg1=           0
         NFxFlg=           0 DoJE=F BraDBF=F KetDBF=F FulRan=T
         wScrn=  0.000000 ICntrl=       600 IOpCl=  0 I1Cent=           0 NGrid=           0
         NMat0=    1 NMatS0=    990 NMatT0=    0 NMatD0=    1 NMtDS0=    0 NMtDT0=    0
 Symmetry not used in FoFCou.
 Two-electron integral symmetry not used.
 MDV=  8589934592 DFT=T DoStab=F Mixed=F DoRPA=T DoScal=T NonHer=F
 Making orbital integer symmetry assigments:
 Orbital symmetries:
       Occupied  (A) (A) (A) (A) (A)
       Virtual   (A) (A) (A) (A) (A) (A) (A) (A) (A) (A) (A) (A)
                 (A) (A) (A) (A) (A) (A) (A) (A) (A) (A) (A) (A)
                 (A) (A) (A) (A) (A) (A) (A) (A) (A) (A) (A) (A)
                 (A) (A) (A)
   156 initial guesses have been made.
 Convergence on wavefunction:    0.001000000000000
 Davidson Disk Diagonalization:  ConvIn= 1.00D-03 SkipCon=T Conv= 1.00D-03.
 Max sub-space:   624 roots to seek:   312 dimension of matrix:          312
 *** WARNING: Number of orthogonal guesses is          156
 Iteration     1 Dimension   156 NMult     0 NNew    156
 CISAX will form   156 AO SS matrices at one time.
 NMat=   156 NSing=   156 JSym2X= 0.
 New state      9 was old state     10
 New state     10 was old state     11
 New state     11 was old state      9
 New state     13 was old state     15
 New state     15 was old state     16
 New state     16 was old state     18
 New state     17 was old state     21
 New state     18 was old state     17
 New state     19 was old state     20
 New state     20 was old state     22
 New state     21 was old state     23
 New state     22 was old state     24
 New state     23 was old state     25
 New state     24 was old state     26
 New state     25 was old state     19
 New state     26 was old state     29
 New state     27 was old state     28
 New state     28 was old state     31
 New state     29 was old state     30
 New state     30 was old state     27
 New state     31 was old state     34
 New state     32 was old state     33
 New state     33 was old state     32
 New state     34 was old state     37
 New state     35 was old state     38
 New state     36 was old state     35
 New state     37 was old state     36
 New state     38 was old state     41
 New state     41 was old state     43
 New state     43 was old state     44
 New state     44 was old state     45
 New state     45 was old state     58
 New state     49 was old state     51
 New state     50 was old state     49
 New state     51 was old state     50
 New state     58 was old state     61
 New state     59 was old state     62
 New state     60 was old state     63
 New state     61 was old state     64
 New state     62 was old state     59
 New state     63 was old state     60
 No map to state     64
 New state     65 was old state     66
 New state     66 was old state     67
 New state     67 was old state     68
 New state     68 was old state     65
 New state     73 was old state     75
 New state     75 was old state     73
 New state     77 was old state     80
 New state     78 was old state     77
 New state     79 was old state     78
 New state     80 was old state     81
 New state     81 was old state     82
 New state     82 was old state     83
 New state     83 was old state     84
 New state     84 was old state     79
 New state     87 was old state     88
 New state     88 was old state     87
 New state     89 was old state     90
 New state     90 was old state     91
 New state     91 was old state     92
 New state     92 was old state     93
 New state     93 was old state     94
 New state     94 was old state     89
 New state    104 was old state    109
 New state    105 was old state    104
 New state    106 was old state    105
 New state    107 was old state    106
 New state    108 was old state    107
 New state    109 was old state    108
 New state    110 was old state    111
 New state    111 was old state    112
 New state    112 was old state    110
 New state    118 was old state    119
 New state    119 was old state    120
 New state    120 was old state    118
 New state    124 was old state    126
 New state    126 was old state    124
 New state    132 was old state    134
 New state    133 was old state    135
 New state    134 was old state    132
 New state    135 was old state    133
 New state    139 was old state    140
 New state    140 was old state    141
 New state    141 was old state    139
 New state    152 was old state    154
 New state    153 was old state    152
 New state    154 was old state    153
 Excitation Energies [eV] at current iteration:
 Root      1 :     6.433732227746376
 Root      2 :     8.604230880240570
 Root      3 :     8.604243685620196
 Root      4 :    10.177656009475850
 Root      5 :    10.177673970605620
 Root      6 :    11.101352645656200
 Root      7 :    11.748793234456470
 Root      8 :    11.748840791073220
 Root      9 :    11.953906240285850
 Root     10 :    11.953909197403240
 Root     11 :    12.121921335459310
 Root     12 :    13.761241172664860
 Root     13 :    13.910988175890150
 Root     14 :    13.910988612103460
 Root     15 :    15.207547143281840
 Root     16 :    15.388033174170120
 Root     17 :    15.461305740480790
 Root     18 :    15.527152994985280
 Root     19 :    15.605729265642010
 Root     20 :    15.743907798229490
 Root     21 :    15.743968969945560
 Root     22 :    15.968164885211830
 Root     23 :    15.968183679072240
 Root     24 :    16.365932315412980
 Root     25 :    16.365956440967500
 Root     26 :    17.067183948001750
 Root     27 :    17.067192338812600
 Root     28 :    17.118454322227290
 Root     29 :    17.309416371616280
 Root     30 :    17.309462666014480
 Root     31 :    17.464241847249380
 Root     32 :    18.648971615639250
 Root     33 :    18.648972284778370
 Root     34 :    20.685536290882030
 Root     35 :    20.685555039237060
 Root     36 :    20.730314490981200
 Root     37 :    20.730333423191450
 Root     38 :    20.924003060198560
 Root     39 :    20.959611487468610
 Root     40 :    20.959623765189930
 Root     41 :    21.347914917172970
 Root     42 :    21.518446489362820
 Root     43 :    21.930222800204200
 Root     44 :    21.930227173255430
 Root     45 :    23.669575923315240
 Root     46 :    23.700584400461370
 Root     47 :    23.700594192986750
 Root     48 :    23.843975189969720
 Root     49 :    24.115145523503810
 Root     50 :    24.115149125394550
 Root     51 :    24.440687445893840
 Root     52 :    25.266791913075450
 Root     53 :    25.266807443077940
 Root     54 :    25.595181959970550
 Root     55 :    25.818398193690680
 Root     56 :    25.818451951413510
 Root     57 :    26.162539079202390
 Root     58 :    26.473501385900370
 Root     59 :    26.782409113839990
 Root     60 :    26.788641371911180
 Root     61 :    26.788665129560340
 Root     62 :    27.246415848835350
 Root     63 :    27.246460512871130
 Root     64 :    27.421126445956660
 Root     65 :    30.379396117061480
 Root     66 :    30.842950274240440
 Root     67 :    30.842982954990000
 Root     68 :    30.857147270692690
 Root     69 :    31.398667862626560
 Root     70 :    31.398687259039100
 Root     71 :    32.718208071161230
 Root     72 :    32.718260840157040
 Root     73 :    33.716262586005220
 Root     74 :    33.716265385885380
 Root     75 :    34.920006845331670
 Root     76 :    35.689766311205500
 Root     77 :    36.097949350919080
 Root     78 :    36.121844212020250
 Root     79 :    36.121858948512170
 Root     80 :    36.786246299926170
 Root     81 :    36.786262451061200
 Root     82 :    38.670795459329400
 Root     83 :    38.670860282131120
 Root     84 :    38.929041304451610
 Root     85 :    39.029691437586730
 Root     86 :    39.029747932834250
 Root     87 :    42.609412239424930
 Root     88 :    42.959372441814560
 Root     89 :    44.078996657518290
 Root     90 :    44.490884004050410
 Root     91 :    44.490888859536740
 Root     92 :    46.274438556016950
 Root     93 :    46.274472282074250
 Root     94 :    47.598883852179280
 Root     95 :    48.115307019254810
 Root     96 :    48.115375058283890
 Root     97 :    48.730934190110090
 Root     98 :    50.955647608012110
 Root     99 :    51.594921104495330
 Root    100 :    51.594994783924090
 Root    101 :    54.138096026500910
 Root    102 :    54.138139494487650
 Root    103 :    56.555939683027200
 Root    104 :    56.624014518216250
 Root    105 :    56.643273819321530
 Root    106 :    56.643304093507650
 Root    107 :    57.033334239639390
 Root    108 :    57.033379262997500
 Root    109 :    57.560230281097210
 Root    110 :    58.884110963243780
 Root    111 :    58.884236777079660
 Root    112 :    59.266330235227620
 Root    113 :    61.588029332672740
 Root    114 :    61.588117925112760
 Root    115 :    62.929575601202560
 Root    116 :    62.929631145596160
 Root    117 :    64.291793198994940
 Root    118 :    64.294179652912550
 Root    119 :    64.294207677564880
 Root    120 :    64.392306333715640
 Root    121 :    66.032027606273540
 Root    122 :    66.767358473844770
 Root    123 :    66.767432428363630
 Root    124 :    67.791470020656870
 Root    125 :    68.522387018898400
 Root    126 :    68.522396839252740
 Root    127 :    69.074626897834790
 Root    128 :    71.305848457845100
 Root    129 :    73.704418772826510
 Root    130 :    73.811793167238650
 Root    131 :    73.811908353637780
 Root    132 :    77.702476501928540
 Root    133 :    77.702535742718200
 Root    134 :    78.407934287551680
 Root    135 :    78.408000504085280
 Root    136 :    82.129939605086750
 Root    137 :    82.130114667781680
 Root    138 :    85.033375115557220
 Root    139 :    86.422609628015640
 Root    140 :    87.519856182471320
 Root    141 :    87.519944251182170
 Root    142 :    88.087091552599530
 Root    143 :    88.191531592431230
 Root    144 :    89.963848307457300
 Root    145 :    89.963987427970030
 Root    146 :    96.805713731987510
 Root    147 :    96.805904212838400
 Root    148 :    99.006740504991090
 Root    149 :    99.006959491396460
 Root    150 :   100.024346470924300
 Root    151 :   103.889751122077600
 Root    152 :   104.506215826502100
 Root    153 :   104.506221659079500
 Root    154 :   104.758187023523900
 Root    155 :   113.823085602405800
 Root    156 :   113.823325680137800
 Convergence achieved for final wavefunctions.
 ***********************************************************************
 Excited states from <AA,BB:AA,BB> singles matrix:
 ***********************************************************************
 
 1PDM for each excited state written to RWF  633
 Ground to excited state transition densities written to RWF  633
 Ground to excited state transition electric dipole moments (Au):
       state          X           Y           Z        Dip. S.      Osc.
         1         0.0000     -0.0000      0.7071      0.5000      0.0788
         2         0.2844     -0.0462     -0.0000      0.0830      0.0175
         3         0.0462      0.2844      0.0000      0.0830      0.0175
         4        -0.0023      0.0274      0.0000      0.0008      0.0002
         5         0.0274      0.0023     -0.0000      0.0008      0.0002
         6        -0.0000      0.0000      0.4104      0.1684      0.0458
         7        -0.0351      0.3135      0.0001      0.0995      0.0286
         8         0.3133      0.0351     -0.0000      0.0994      0.0286
         9         0.8116     -0.3422      0.0001      0.7757      0.2272
        10         0.3422      0.8115     -0.0001      0.7756      0.2272
        11        -0.0001      0.0001      0.7685      0.5906      0.1754
        12        -0.0001     -0.0001      0.0000      0.0000      0.0000
        13        -0.1252     -0.4557      0.0000      0.2233      0.0761
        14         0.4557     -0.1252     -0.0000      0.2233      0.0761
        15         0.0000     -0.0000      0.0284      0.0008      0.0003
        16        -0.0000     -0.0000     -0.0001      0.0000      0.0000
        17        -0.0000     -0.0000     -0.0001      0.0000      0.0000
        18         0.0000     -0.0001     -0.3581      0.1283      0.0488
        19        -0.0000      0.0001     -0.2435      0.0593      0.0227
        20        -0.0221      0.2586      0.0000      0.0674      0.0260
        21         0.2587      0.0221     -0.0000      0.0674      0.0260
        22         0.1492     -0.6758     -0.0000      0.4790      0.1874
        23        -0.6758     -0.1492      0.0000      0.4790      0.1874
        24        -0.1101      0.5584      0.0000      0.3240      0.1299
        25        -0.5584     -0.1101      0.0000      0.3240      0.1299
        26         0.0073     -0.1110      0.0001      0.0124      0.0052
        27         0.1109      0.0073      0.0000      0.0124      0.0052
        28         0.0001      0.0000      0.0001      0.0000      0.0000
        29         0.0579     -0.4909     -0.0000      0.2443      0.1036
        30        -0.4909     -0.0579      0.0000      0.2443      0.1036
        31        -0.0000      0.0000      0.8025      0.6440      0.2755
        32         0.1653     -0.4342      0.0000      0.2159      0.0986
        33        -0.4342     -0.1653      0.0000      0.2159      0.0986
        34        -0.0916     -0.0093     -0.0000      0.0085      0.0043
        35        -0.0093      0.0920     -0.0000      0.0085      0.0043
        36         0.0150     -0.2596     -0.0000      0.0676      0.0343
        37        -0.2597     -0.0150      0.0000      0.0677      0.0344
        38        -0.0000     -0.0001     -0.6181      0.3820      0.1958
        39         0.3242      0.0275     -0.0000      0.1058      0.0544
        40        -0.0275      0.3242     -0.0003      0.1058      0.0543
        41         0.0000      0.0000      0.0001      0.0000      0.0000
        42         0.0000      0.0000      0.3803      0.1446      0.0762
        43        -0.6155      0.0755      0.0000      0.3846      0.2066
        44         0.0755      0.6155     -0.0000      0.3846      0.2066
        45        -0.0000     -0.0001     -0.4940      0.2440      0.1415
        46        -0.2977      0.0493      0.0000      0.0911      0.0529
        47        -0.0493     -0.2977      0.0001      0.0911      0.0529
        48        -0.0000     -0.0000      0.0001      0.0000      0.0000
        49         0.1917     -0.0122      0.0000      0.0369      0.0218
        50        -0.0122     -0.1917     -0.0000      0.0369      0.0218
        51        -0.0000      0.0000     -0.3382      0.1144      0.0685
        52        -0.0064      0.0710     -0.0000      0.0051      0.0031
        53         0.0710      0.0064      0.0000      0.0051      0.0031
        54        -0.0000      0.0000     -0.1799      0.0324      0.0203
        55        -0.0022      0.0191      0.0000      0.0004      0.0002
        56         0.0191      0.0022      0.0000      0.0004      0.0002
        57         0.0000      0.0000      0.0000      0.0000      0.0000
        58         0.0000     -0.0000      0.1039      0.0108      0.0070
        59         0.0000     -0.0001      0.6139      0.3769      0.2473
        60         0.1760      0.0014     -0.0000      0.0310      0.0203
        61        -0.0014      0.1760      0.0003      0.0310      0.0203
        62         0.0489     -0.7740     -0.0000      0.6015      0.4015
        63         0.7740      0.0489     -0.0000      0.6015      0.4015
        64        -0.0000     -0.0000     -0.4305      0.1853      0.1245
        65         0.0000      0.0000     -0.0001      0.0000      0.0000
        66        -0.0247      0.0625      0.0001      0.0045      0.0034
        67        -0.0625     -0.0247      0.0000      0.0045      0.0034
        68         0.0000     -0.0000      0.2233      0.0499      0.0377
        69         0.0097     -0.0268     -0.0000      0.0008      0.0006
        70         0.0268      0.0097     -0.0000      0.0008      0.0006
        71        -0.0261      0.3960     -0.0000      0.1575      0.1263
        72         0.3960      0.0261     -0.0000      0.1575      0.1263
        73        -0.0095      0.0457     -0.0000      0.0022      0.0018
        74         0.0457      0.0095     -0.0000      0.0022      0.0018
        75         0.0000     -0.0000     -0.1460      0.0213      0.0182
        76         0.0000     -0.0000      0.1676      0.0281      0.0246
        77        -0.0000     -0.0000      0.0001      0.0000      0.0000
        78        -0.1210     -0.0098      0.0000      0.0147      0.0130
        79         0.0098     -0.1210      0.0000      0.0147      0.0130
        80         0.2147     -0.0279     -0.0000      0.0469      0.0423
        81        -0.0279     -0.2147     -0.0000      0.0469      0.0423
        82         0.0130     -0.1479     -0.0000      0.0220      0.0209
        83        -0.1479     -0.0130      0.0000      0.0220      0.0209
        84         0.0000     -0.0000      0.1149      0.0132      0.0126
        85        -0.0005      0.2240     -0.0000      0.0502      0.0480
        86         0.2240      0.0005     -0.0000      0.0502      0.0480
        87        -0.0000      0.0000     -0.0224      0.0005      0.0005
        88         0.0000      0.0000      0.2974      0.0885      0.0931
        89        -0.0000      0.0000      0.0000      0.0000      0.0000
        90        -0.1601      0.0031     -0.0000      0.0256      0.0279
        91        -0.0032     -0.1601      0.0000      0.0256      0.0279
        92        -0.0798      0.1863      0.0000      0.0411      0.0466
        93        -0.1863     -0.0798      0.0000      0.0411      0.0466
        94         0.0000     -0.0000      0.1387      0.0192      0.0224
        95         0.0010     -0.0088      0.0000      0.0001      0.0001
        96        -0.0088     -0.0010     -0.0000      0.0001      0.0001
        97        -0.0000      0.0000     -0.3347      0.1120      0.1337
        98         0.0000      0.0000     -0.0000      0.0000      0.0000
        99        -0.1936     -0.0022      0.0000      0.0375      0.0474
       100         0.0022     -0.1936      0.0000      0.0375      0.0474
       101         0.0049      0.1766      0.0000      0.0312      0.0414
       102         0.1766     -0.0049     -0.0000      0.0312      0.0414
       103        -0.0000     -0.0000     -0.0941      0.0089      0.0123
       104         0.0002      0.0001      0.0000      0.0000      0.0000
       105         0.1212      0.0219     -0.0000      0.0152      0.0210
       106         0.0219     -0.1211     -0.0000      0.0151      0.0210
       107        -0.2635     -0.0049      0.0000      0.0694      0.0970
       108         0.0049     -0.2635      0.0000      0.0695      0.0971
       109        -0.0000      0.0000     -0.4265      0.1819      0.2566
       110         0.1626     -0.0086     -0.0000      0.0265      0.0383
       111         0.0086      0.1626     -0.0000      0.0265      0.0383
       112        -0.0000      0.0000     -0.2840      0.0807      0.1171
       113        -0.0103      0.1190      0.0000      0.0143      0.0215
       114         0.1190      0.0103     -0.0000      0.0143      0.0215
       115        -0.0269      0.0568     -0.0000      0.0039      0.0061
       116        -0.0568     -0.0269      0.0000      0.0039      0.0061
       117         0.0066      0.0029      0.0001      0.0001      0.0001
       118         0.0236     -0.2122     -0.0000      0.0456      0.0718
       119         0.2121      0.0235     -0.0000      0.0455      0.0717
       120         0.0000     -0.0000      0.0280      0.0008      0.0012
       121        -0.0000     -0.0000     -0.0000      0.0000      0.0000
       122         0.0902      0.0004     -0.0000      0.0081      0.0133
       123        -0.0004      0.0902      0.0000      0.0081      0.0133
       124         0.0000      0.0000     -0.0000      0.0000      0.0000
       125        -0.0782     -0.0041     -0.0000      0.0061      0.0103
       126        -0.0041      0.0782      0.0000      0.0061      0.0103
       127         0.0000      0.0000     -0.0992      0.0098      0.0167
       128         0.0000     -0.0000      0.1132      0.0128      0.0224
       129         0.0000     -0.0000      0.2319      0.0538      0.0971
       130        -0.0539      0.0019      0.0000      0.0029      0.0053
       131        -0.0019     -0.0539     -0.0000      0.0029      0.0053
       132        -0.0113      0.0361      0.0000      0.0014      0.0027
       133         0.0361      0.0113     -0.0000      0.0014      0.0027
       134         0.0275     -0.0939      0.0000      0.0096      0.0184
       135         0.0939      0.0275     -0.0000      0.0096      0.0184
       136         0.0013      0.1248      0.0000      0.0156      0.0314
       137         0.1248     -0.0013     -0.0000      0.0156      0.0314
       138        -0.0000      0.0000     -0.1427      0.0204      0.0424
       139         0.0000      0.0000      0.0000      0.0000      0.0000
       140         0.1403      0.0084      0.0000      0.0197      0.0423
       141         0.0084     -0.1403      0.0000      0.0197      0.0423
       142        -0.0000      0.0000      0.1919      0.0368      0.0795
       143         0.0000      0.0000      0.1481      0.0219      0.0474
       144        -0.0069      0.0957      0.0000      0.0092      0.0203
       145         0.0957      0.0069     -0.0000      0.0092      0.0203
       146        -0.0000     -0.0016     -0.0000      0.0000      0.0000
       147        -0.0016      0.0000      0.0000      0.0000      0.0000
       148        -0.1537      0.0100      0.0000      0.0237      0.0576
       149        -0.0100     -0.1537     -0.0000      0.0237      0.0576
       150         0.0000     -0.0000      0.0962      0.0092      0.0227
       151         0.0000      0.0000     -0.0000      0.0000      0.0000
       152         0.1647     -0.0283      0.0000      0.0279      0.0715
       153         0.0283      0.1647     -0.0000      0.0279      0.0715
       154         0.0000     -0.0000     -0.1488      0.0221      0.0568
       155        -0.0678      0.0040      0.0000      0.0046      0.0129
       156        -0.0040     -0.0678      0.0000      0.0046      0.0129
 Ground to excited state transition velocity dipole moments (Au):
       state          X           Y           Z        Dip. S.      Osc.
         1        -0.0000      0.0000     -0.1864      0.0348      0.0980
         2        -0.0975      0.0159      0.0000      0.0098      0.0206
         3        -0.0159     -0.0975     -0.0000      0.0098      0.0206
         4        -0.0006      0.0053     -0.0000      0.0000      0.0001
         5         0.0053      0.0006      0.0000      0.0000      0.0001
         6         0.0000     -0.0000     -0.1783      0.0318      0.0519
         7         0.0167     -0.1496     -0.0000      0.0226      0.0350
         8        -0.1495     -0.0167      0.0000      0.0226      0.0349
         9        -0.3509      0.1479     -0.0000      0.1450      0.2200
        10        -0.1479     -0.3508      0.0000      0.1450      0.2200
        11         0.0000     -0.0000     -0.3568      0.1273      0.1905
        12         0.0001      0.0000     -0.0000      0.0000      0.0000
        13         0.0642      0.2337     -0.0000      0.0587      0.0766
        14        -0.2337      0.0642      0.0000      0.0587      0.0766
        15        -0.0000      0.0000     -0.0296      0.0009      0.0010
        16         0.0000      0.0000      0.0000      0.0000      0.0000
        17         0.0000      0.0000      0.0001      0.0000      0.0000
        18        -0.0000      0.0000      0.1759      0.0309      0.0361
        19         0.0000     -0.0001      0.1439      0.0207      0.0241
        20         0.0129     -0.1507     -0.0000      0.0229      0.0264
        21        -0.1508     -0.0129      0.0000      0.0229      0.0264
        22        -0.0852      0.3861      0.0000      0.1563      0.1776
        23         0.3861      0.0852     -0.0000      0.1563      0.1776
        24         0.0659     -0.3340     -0.0000      0.1159      0.1284
        25         0.3340      0.0659     -0.0000      0.1159      0.1284
        26        -0.0059      0.0891     -0.0000      0.0080      0.0085
        27        -0.0891     -0.0059     -0.0000      0.0080      0.0085
        28        -0.0001     -0.0000     -0.0000      0.0000      0.0000
        29        -0.0354      0.3002      0.0000      0.0914      0.0957
        30         0.3002      0.0354     -0.0000      0.0914      0.0957
        31        -0.0000     -0.0000     -0.5367      0.2880      0.2992
        32        -0.1107      0.2908     -0.0000      0.0968      0.0942
        33         0.2908      0.1107     -0.0000      0.0968      0.0942
        34         0.0545      0.0055      0.0000      0.0030      0.0026
        35         0.0056     -0.0548      0.0000      0.0030      0.0027
        36        -0.0119      0.2068      0.0000      0.0429      0.0376
        37         0.2069      0.0119     -0.0000      0.0430      0.0376
        38         0.0000      0.0001      0.4563      0.2082      0.1805
        39        -0.2472     -0.0209      0.0000      0.0615      0.0533
        40         0.0209     -0.2471      0.0002      0.0615      0.0532
        41        -0.0000     -0.0000     -0.0001      0.0000      0.0000
        42        -0.0000     -0.0000     -0.2893      0.0837      0.0706
        43         0.4948     -0.0607     -0.0000      0.2485      0.2056
        44        -0.0607     -0.4948      0.0000      0.2485      0.2056
        45         0.0000      0.0001      0.4173      0.1741      0.1335
        46         0.2579     -0.0427     -0.0000      0.0683      0.0523
        47         0.0427      0.2579     -0.0001      0.0683      0.0523
        48         0.0000      0.0000     -0.0001      0.0000      0.0000
        49        -0.1381      0.0088     -0.0000      0.0192      0.0144
        50         0.0088      0.1382      0.0000      0.0192      0.0144
        51         0.0000     -0.0000      0.2804      0.0786      0.0584
        52         0.0075     -0.0834      0.0000      0.0070      0.0050
        53        -0.0834     -0.0075     -0.0000      0.0070      0.0050
        54         0.0000     -0.0000      0.1544      0.0238      0.0169
        55         0.0014     -0.0125     -0.0000      0.0002      0.0001
        56        -0.0124     -0.0014     -0.0000      0.0002      0.0001
        57        -0.0000     -0.0000     -0.0000      0.0000      0.0000
        58        -0.0000      0.0000     -0.1549      0.0240      0.0165
        59        -0.0000      0.0001     -0.6090      0.3709      0.2512
        60        -0.1877     -0.0015      0.0000      0.0352      0.0239
        61         0.0015     -0.1877     -0.0003      0.0352      0.0239
        62        -0.0490      0.7765      0.0000      0.6054      0.4031
        63        -0.7765     -0.0490      0.0000      0.6054      0.4031
        64         0.0000      0.0000      0.4555      0.2075      0.1373
        65        -0.0000     -0.0000      0.0001      0.0000      0.0000
        66         0.0261     -0.0663     -0.0001      0.0051      0.0030
        67         0.0662      0.0261     -0.0000      0.0051      0.0030
        68        -0.0000      0.0000     -0.2419      0.0585      0.0344
        69         0.0047     -0.0131      0.0000      0.0002      0.0001
        70         0.0131      0.0047      0.0000      0.0002      0.0001
        71         0.0294     -0.4455      0.0000      0.1994      0.1105
        72        -0.4455     -0.0294      0.0000      0.1994      0.1105
        73         0.0137     -0.0657      0.0000      0.0045      0.0024
        74        -0.0657     -0.0137      0.0000      0.0045      0.0024
        75        -0.0000      0.0000      0.2075      0.0431      0.0224
        76        -0.0000      0.0000     -0.2432      0.0592      0.0301
        77         0.0000      0.0000     -0.0001      0.0000      0.0000
        78         0.1728      0.0140     -0.0000      0.0301      0.0151
        79        -0.0140      0.1728     -0.0000      0.0301      0.0151
        80        -0.2610      0.0339      0.0000      0.0693      0.0342
        81         0.0339      0.2610      0.0000      0.0693      0.0342
        82        -0.0212      0.2424      0.0000      0.0592      0.0278
        83         0.2424      0.0212     -0.0000      0.0592      0.0278
        84        -0.0000      0.0000     -0.1495      0.0224      0.0104
        85         0.0007     -0.3565      0.0000      0.1271      0.0591
        86        -0.3565     -0.0007      0.0000      0.1271      0.0591
        87         0.0000     -0.0000     -0.0009      0.0000      0.0000
        88        -0.0000     -0.0000     -0.5206      0.2710      0.1144
        89         0.0000     -0.0000      0.0000      0.0000      0.0000
        90         0.2964     -0.0058      0.0000      0.0879      0.0358
        91         0.0058      0.2964     -0.0000      0.0879      0.0358
        92         0.1520     -0.3546     -0.0000      0.1489      0.0584
        93         0.3546      0.1520     -0.0000      0.1489      0.0584
        94        -0.0000      0.0000     -0.2357      0.0555      0.0212
        95         0.0022     -0.0223     -0.0000      0.0005      0.0002
        96        -0.0223     -0.0022      0.0000      0.0005      0.0002
        97         0.0000     -0.0000      0.6529      0.4263      0.1587
        98        -0.0000     -0.0000      0.0000      0.0000      0.0000
        99         0.3205      0.0036     -0.0000      0.1027      0.0361
       100        -0.0036      0.3205     -0.0000      0.1027      0.0361
       101        -0.0101     -0.3675     -0.0000      0.1351      0.0453
       102        -0.3675      0.0101      0.0000      0.1351      0.0453
       103         0.0000      0.0000      0.1885      0.0355      0.0114
       104        -0.0004     -0.0002     -0.0000      0.0000      0.0000
       105        -0.2370     -0.0429      0.0000      0.0580      0.0186
       106        -0.0429      0.2369      0.0000      0.0579      0.0186
       107         0.4886      0.0091     -0.0000      0.2389      0.0760
       108        -0.0091      0.4887     -0.0000      0.2389      0.0760
       109         0.0000     -0.0000      0.7504      0.5631      0.1775
       110        -0.3368      0.0178      0.0000      0.1138      0.0350
       111        -0.0178     -0.3368      0.0000      0.1138      0.0350
       112         0.0000     -0.0000      0.5695      0.3244      0.0993
       113         0.0241     -0.2786     -0.0000      0.0782      0.0230
       114        -0.2786     -0.0241      0.0000      0.0782      0.0230
       115         0.0550     -0.1160      0.0000      0.0165      0.0048
       116         0.1160      0.0550     -0.0000      0.0165      0.0048
       117        -0.0130     -0.0057     -0.0002      0.0002      0.0001
       118        -0.0462      0.4156      0.0000      0.1749      0.0493
       119        -0.4155     -0.0460      0.0000      0.1747      0.0493
       120        -0.0001      0.0001     -0.0663      0.0044      0.0012
       121         0.0000      0.0000      0.0000      0.0000      0.0000
       122        -0.2052     -0.0009      0.0000      0.0421      0.0114
       123         0.0010     -0.2052     -0.0000      0.0421      0.0114
       124        -0.0000     -0.0000      0.0001      0.0000      0.0000
       125         0.2147      0.0112      0.0000      0.0462      0.0122
       126         0.0112     -0.2147     -0.0000      0.0462      0.0122
       127        -0.0000     -0.0000      0.2348      0.0552      0.0145
       128        -0.0000      0.0000     -0.1987      0.0395      0.0100
       129        -0.0000      0.0000     -0.5268      0.2776      0.0683
       130         0.0699     -0.0024     -0.0000      0.0049      0.0012
       131         0.0024      0.0699      0.0000      0.0049      0.0012
       132         0.0273     -0.0874     -0.0000      0.0084      0.0020
       133        -0.0874     -0.0272      0.0000      0.0084      0.0020
       134        -0.0899      0.3069     -0.0000      0.1022      0.0237
       135        -0.3069     -0.0899      0.0000      0.1022      0.0237
       136        -0.0040     -0.3723     -0.0000      0.1386      0.0306
       137        -0.3723      0.0040      0.0000      0.1386      0.0306
       138         0.0000     -0.0000      0.4120      0.1697      0.0362
       139        -0.0000     -0.0000     -0.0001      0.0000      0.0000
       140        -0.4528     -0.0271     -0.0000      0.2058      0.0427
       141        -0.0271      0.4529     -0.0001      0.2058      0.0427
       142         0.0000     -0.0000     -0.5797      0.3361      0.0692
       143         0.0000     -0.0000     -0.4447      0.1978      0.0407
       144         0.0175     -0.2424     -0.0000      0.0591      0.0119
       145        -0.2424     -0.0175      0.0000      0.0591      0.0119
       146         0.0001      0.0212      0.0000      0.0004      0.0001
       147         0.0212     -0.0001     -0.0000      0.0004      0.0001
       148         0.4718     -0.0308     -0.0000      0.2235      0.0410
       149         0.0308      0.4718      0.0000      0.2235      0.0410
       150        -0.0000      0.0000     -0.3197      0.1022      0.0185
       151        -0.0001     -0.0001      0.0001      0.0000      0.0000
       152        -0.5619      0.0965     -0.0001      0.3250      0.0564
       153        -0.0965     -0.5619      0.0001      0.3250      0.0564
       154        -0.0001      0.0001      0.5001      0.2501      0.0433
       155         0.2301     -0.0135     -0.0000      0.0531      0.0085
       156         0.0135      0.2301     -0.0000      0.0531      0.0085
 Ground to excited state transition magnetic dipole moments (Au):
       state          X           Y           Z
         1         0.0000      0.0000     -0.0000
         2         0.0149      0.0921      0.0000
         3        -0.0921      0.0149      0.0000
         4        -0.2398     -0.0219      0.0000
         5        -0.0219      0.2398      0.0000
         6         0.0000      0.0000      0.0000
         7         0.1533      0.0172     -0.0000
         8         0.0172     -0.1533     -0.0000
         9         0.0809      0.1919     -0.0000
        10        -0.1919      0.0809      0.0000
        11        -0.0000     -0.0000     -0.0001
        12         0.0000     -0.0000     -0.3072
        13         0.0780     -0.0214      0.0000
        14         0.0214      0.0780     -0.0001
        15         0.0000      0.0000      0.0000
        16        -0.0000      0.0000     -0.7571
        17        -0.0000     -0.0000     -0.2539
        18        -0.0000     -0.0000     -0.0000
        19        -0.0000     -0.0000     -0.0000
        20        -0.0309     -0.0027     -0.0000
        21        -0.0027      0.0309     -0.0000
        22        -0.1970     -0.0435      0.0000
        23        -0.0435      0.1970      0.0000
        24        -0.1394     -0.0275     -0.0000
        25         0.0275     -0.1394      0.0000
        26        -0.3281     -0.0216      0.0000
        27         0.0216     -0.3281     -0.0000
        28         0.0001     -0.0003      0.0542
        29        -0.0924     -0.0109      0.0000
        30        -0.0109      0.0924      0.0000
        31         0.0000      0.0000     -0.0000
        32         0.1258      0.0479     -0.0000
        33         0.0479     -0.1258      0.0000
        34         0.0039     -0.0388      0.0000
        35        -0.0388     -0.0039     -0.0000
        36        -0.0508     -0.0030      0.0000
        37        -0.0030      0.0507      0.0000
        38         0.0000     -0.0000     -0.0000
        39        -0.0020      0.0235     -0.0000
        40        -0.0235     -0.0020     -0.0000
        41         0.0000      0.0000      0.3373
        42        -0.0000     -0.0000      0.0000
        43        -0.0142     -0.1159      0.0000
        44        -0.1159      0.0142     -0.0000
        45         0.0000     -0.0000     -0.0001
        46        -0.0103     -0.0626     -0.0000
        47         0.0626     -0.0103     -0.0000
        48         0.0000     -0.0000      0.1718
        49         0.0027      0.0417     -0.0000
        50         0.0417     -0.0027      0.0000
        51        -0.0000     -0.0000      0.0000
        52         0.0415      0.0037     -0.0000
        53         0.0037     -0.0415     -0.0000
        54        -0.0000     -0.0000     -0.0000
        55         0.1159      0.0126     -0.0000
        56         0.0126     -0.1159     -0.0000
        57         0.0000     -0.0000      0.5959
        58        -0.0000     -0.0000     -0.0000
        59        -0.0001      0.0000     -0.0001
        60         0.0015     -0.2003     -0.0000
        61         0.2003      0.0015     -0.0000
        62        -0.1992     -0.0126      0.0000
        63         0.0126     -0.1992     -0.0000
        64        -0.0000      0.0000      0.0001
        65        -0.0000      0.0000     -0.1679
        66         0.1490      0.0590     -0.0000
        67        -0.0590      0.1491      0.0000
        68        -0.0000     -0.0000      0.0001
        69         0.1241      0.0450     -0.0000
        70        -0.0450      0.1241      0.0000
        71         0.0300      0.0021      0.0000
        72         0.0021     -0.0300      0.0000
        73         0.0048      0.0010      0.0000
        74         0.0010     -0.0048      0.0000
        75        -0.0000     -0.0000      0.0001
        76        -0.0000     -0.0000      0.0000
        77        -0.0000      0.0000     -0.2191
        78         0.0085     -0.1040      0.0000
        79         0.1040      0.0085     -0.0000
        80         0.0002      0.0011     -0.0000
        81         0.0011     -0.0002      0.0000
        82        -0.0114     -0.0010     -0.0000
        83        -0.0010      0.0114     -0.0000
        84        -0.0000     -0.0000      0.0000
        85        -0.2137     -0.0004      0.0000
        86        -0.0004      0.2137     -0.0000
        87         0.0000      0.0000     -0.0001
        88        -0.0000     -0.0000      0.0001
        89        -0.0000     -0.0000     -0.4190
        90        -0.0044     -0.2277     -0.0000
        91         0.2278     -0.0044     -0.0000
        92        -0.0961     -0.0412      0.0000
        93         0.0412     -0.0961      0.0000
        94        -0.0000     -0.0000      0.0002
        95        -0.1748     -0.0182      0.0000
        96        -0.0182      0.1748     -0.0000
        97         0.0000     -0.0000     -0.0001
        98        -0.0000      0.0000      0.2093
        99         0.0019     -0.1703      0.0000
       100         0.1703      0.0019      0.0000
       101         0.1333     -0.0037     -0.0000
       102        -0.0037     -0.1333      0.0000
       103        -0.0000      0.0000     -0.0001
       104         0.0001     -0.0002      0.3078
       105         0.0156     -0.0862     -0.0004
       106        -0.0861     -0.0156      0.0001
       107        -0.0068      0.3657      0.0001
       108        -0.3657     -0.0068      0.0000
       109         0.0000      0.0000      0.0002
       110        -0.0022     -0.0433     -0.0000
       111         0.0433     -0.0022     -0.0000
       112         0.0000      0.0000      0.0001
       113         0.3709      0.0320     -0.0000
       114         0.0320     -0.3710     -0.0000
       115         0.0226      0.0107     -0.0000
       116        -0.0107      0.0226      0.0000
       117        -0.0005      0.0011      0.5740
       118         0.0365      0.0040      0.0059
       119        -0.0040      0.0365     -0.0186
       120         0.0000      0.0000     -0.0001
       121         0.0000     -0.0000     -0.5271
       122        -0.0018      0.3052     -0.0001
       123        -0.3052     -0.0018     -0.0000
       124         0.0000     -0.0000     -0.0501
       125        -0.0032      0.0629     -0.0000
       126         0.0629      0.0032      0.0000
       127         0.0000      0.0000      0.0003
       128         0.0000     -0.0000      0.0000
       129        -0.0000     -0.0000     -0.0001
       130         0.0064      0.1692      0.0000
       131        -0.1692      0.0064      0.0000
       132         0.1001      0.0313     -0.0000
       133         0.0313     -0.1001     -0.0001
       134         0.1030      0.0302      0.0000
       135        -0.0302      0.1030     -0.0001
       136        -0.0211      0.0003      0.0000
       137         0.0003      0.0211     -0.0000
       138         0.0000      0.0000     -0.0001
       139        -0.0000      0.0000      0.2350
       140        -0.0095      0.1591     -0.0000
       141         0.1591      0.0095      0.0000
       142        -0.0000     -0.0000     -0.0003
       143        -0.0000     -0.0000     -0.0002
       144        -0.0931     -0.0069      0.0000
       145        -0.0069      0.0931      0.0000
       146         0.0101     -0.0000      0.0000
       147        -0.0000     -0.0101      0.0000
       148        -0.0033     -0.0507      0.0000
       149         0.0507     -0.0033      0.0000
       150        -0.0000     -0.0000     -0.0000
       151        -0.0000      0.0000      0.0041
       152         0.0152      0.0871     -0.0000
       153        -0.0871      0.0152      0.0000
       154         0.0000      0.0000     -0.0006
       155        -0.0020     -0.0310     -0.0000
       156         0.0310     -0.0020     -0.0000
 Ground to excited state transition velocity quadrupole moments (Au):
       state          XX          YY          ZZ          XY          XZ          YZ
         1        -0.0828     -0.0828     -0.0070      0.0000      0.0000     -0.0000
         2        -0.0461      0.0461      0.0000      0.0633     -0.2080      0.0336
         3         0.0633     -0.0633      0.0000      0.0461     -0.0336     -0.2080
         4         0.0972     -0.0972     -0.0000      0.0389     -0.0199      0.2183
         5        -0.0389      0.0389      0.0000      0.0972      0.2183      0.0199
         6        -0.0665     -0.0665     -0.6088     -0.0000     -0.0000     -0.0000
         7         0.1218     -0.1218      0.0001      0.0456      0.0203     -0.1821
         8        -0.0456      0.0456     -0.0000      0.1218     -0.1821     -0.0203
         9        -0.1723      0.1724      0.0001      0.1455     -0.1030      0.0434
        10         0.1454     -0.1455     -0.0001      0.1724     -0.0434     -0.1030
        11        -0.0202     -0.0203      0.8315     -0.0000      0.0000     -0.0000
        12         0.0001      0.0001     -0.0000     -0.0002      0.0001      0.0000
        13        -0.5239      0.5239      0.0000     -0.4773      0.0568      0.2066
        14        -0.4773      0.4773      0.0000      0.5239     -0.2066      0.0568
        15        -0.9376     -0.9376     -0.3295     -0.0000      0.0000     -0.0000
        16         0.0000      0.0000     -0.0000      0.0000      0.0000      0.0000
        17        -0.0001     -0.0001     -0.0003      0.0000      0.0000      0.0000
        18         0.4237      0.4236      0.3248      0.0000     -0.0000      0.0000
        19         0.6670      0.6671      0.5438     -0.0000      0.0000     -0.0000
        20        -0.2704      0.2703     -0.0000     -0.1099      0.0417     -0.4901
        21         0.1099     -0.1099      0.0000     -0.2703     -0.4901     -0.0417
        22        -0.1285      0.1285      0.0000     -0.0334      0.0477     -0.2160
        23         0.0334     -0.0334      0.0000     -0.1285     -0.2161     -0.0477
        24        -0.2572      0.2572     -0.0000     -0.0728      0.0542     -0.2747
        25        -0.0728      0.0728     -0.0000      0.2572      0.2747      0.0542
        26        -0.3844      0.3845     -0.0000     -0.1648      0.0163     -0.2489
        27        -0.1648      0.1648     -0.0000      0.3844      0.2490      0.0163
        28        -0.0001      0.0000     -0.0000      0.0004      0.0002      0.0001
        29        -0.2818      0.2818      0.0000     -0.1038     -0.0655      0.5560
        30         0.1039     -0.1039     -0.0000     -0.2818      0.5560      0.0655
        31         0.6572      0.6572     -0.3907      0.0000     -0.0000      0.0000
        32         0.3350     -0.3349     -0.0000      0.0361      0.2189     -0.5744
        33        -0.0361      0.0361      0.0000      0.3350     -0.5744     -0.2189
        34         0.2056     -0.2056      0.0000     -0.5315     -0.0879     -0.0090
        35         0.5304     -0.5304      0.0000      0.2052     -0.0090      0.0878
        36         0.6844     -0.6844     -0.0000      0.2999     -0.0010      0.0179
        37        -0.2996      0.2996      0.0000      0.6836      0.0178      0.0010
        38         0.2034      0.2034     -0.2754     -0.0000     -0.0000     -0.0001
        39        -0.0166      0.0167      0.0000      0.0408      0.2395      0.0205
        40         0.0409     -0.0408     -0.0001      0.0167     -0.0205      0.2395
        41         0.0000      0.0000     -0.0001      0.0000      0.0000      0.0000
        42         0.5349      0.5349      0.3744      0.0000     -0.0000      0.0000
        43         0.1249     -0.1249      0.0000     -0.1854     -0.2126      0.0261
        44         0.1853     -0.1854     -0.0000      0.1249      0.0261      0.2126
        45         0.8107      0.8108      0.5563     -0.0001      0.0000      0.0000
        46         0.1727     -0.1726      0.0000     -0.2345      0.1529     -0.0252
        47        -0.2347      0.2342     -0.0002     -0.1727      0.0253      0.1529
        48        -0.0000     -0.0000     -0.0001     -0.0000      0.0000      0.0000
        49         0.0381     -0.0381     -0.0001     -0.0642      0.5720     -0.0364
        50         0.0642     -0.0643     -0.0001      0.0381     -0.0364     -0.5720
        51        -0.4564     -0.4564     -1.1436      0.0000     -0.0000      0.0000
        52        -0.8159      0.8159      0.0000     -0.3262      0.0027     -0.0299
        53         0.3262     -0.3262     -0.0000     -0.8159     -0.0300     -0.0027
        54        -0.3785     -0.3786      0.5741      0.0000      0.0000     -0.0000
        55        -0.2950      0.2949     -0.0000     -0.1117     -0.0180      0.1642
        56         0.1117     -0.1117     -0.0000     -0.2950      0.1642      0.0180
        57        -0.0000     -0.0000      0.0001     -0.0000      0.0000      0.0000
        58        -0.0385     -0.0385      0.3636      0.0000      0.0000     -0.0000
        59        -0.8089     -0.8090      0.6549      0.0000      0.0000     -0.0003
        60         0.0269     -0.0269      0.0000     -0.0537      0.8074      0.0061
        61        -0.0541      0.0533      0.0002     -0.0269     -0.0061      0.8074
        62         0.4108     -0.4107     -0.0000      0.1774      0.0179     -0.2831
        63         0.1775     -0.1774     -0.0000     -0.4107      0.2831      0.0179
        64        -0.0973     -0.0973      0.2892      0.0000     -0.0001     -0.0000
        65        -0.0000     -0.0000     -0.0001      0.0000     -0.0000     -0.0000
        66        -0.4569      0.4566     -0.0002     -0.0431      0.0238     -0.0599
        67        -0.0432      0.0429     -0.0001      0.4567      0.0598      0.0238
        68        -0.6963     -0.6967     -0.3665     -0.0001     -0.0000     -0.0000
        69        -0.0995      0.0996      0.0000     -0.0123     -0.1045      0.2889
        70        -0.0123      0.0124      0.0000      0.0995     -0.2889     -0.1045
        71         0.6312     -0.6311      0.0000      0.2703      0.0129     -0.1955
        72        -0.2704      0.2703      0.0000      0.6311     -0.1955     -0.0129
        73         0.3768     -0.3768      0.0000      0.1019      0.0739     -0.3540
        74        -0.1020      0.1020      0.0000      0.3768     -0.3540     -0.0740
        75        -0.2361     -0.2362     -0.9927     -0.0000     -0.0000     -0.0000
        76         0.3006      0.3006     -1.1928     -0.0000     -0.0000     -0.0000
        77         0.0000      0.0000     -0.0001     -0.0000      0.0000      0.0000
        78        -0.2969      0.2969     -0.0000      0.7238      0.4768      0.0389
        79         0.7238     -0.7238     -0.0000      0.2969     -0.0389      0.4768
        80        -0.1759      0.1759      0.0000      0.2566     -0.7273      0.0944
        81        -0.2566      0.2566      0.0000     -0.1759      0.0944      0.7273
        82        -0.2782      0.2782     -0.0000     -0.1119      0.0202     -0.2293
        83         0.1119     -0.1119      0.0000     -0.2782     -0.2293     -0.0202
        84        -0.4644     -0.4644     -0.4260     -0.0000      0.0000     -0.0000
        85         0.4592     -0.4592     -0.0000      0.2328      0.0001     -0.0388
        86        -0.2328      0.2328      0.0000      0.4592     -0.0388     -0.0001
        87         0.2796      0.2797     -0.0457     -0.0000     -0.0000      0.0000
        88        -0.1550     -0.1551     -0.0495      0.0000      0.0000     -0.0000
        89         0.0001      0.0001      0.0000     -0.0000      0.0000     -0.0000
        90        -0.1829      0.1829     -0.0000      0.3427      0.7552     -0.0144
        91         0.3426     -0.3426      0.0000      0.1830      0.0144      0.7552
        92         0.1342     -0.1341      0.0000      0.0089     -0.0186      0.0433
        93         0.0089     -0.0090      0.0000     -0.1342     -0.0433     -0.0185
        94         1.4469      1.4469      0.5441      0.0000     -0.0000      0.0000
        95        -0.6587      0.6587      0.0000     -0.2534     -0.0105      0.1013
        96         0.2534     -0.2534     -0.0000     -0.6587      0.1013      0.0105
        97        -0.6304     -0.6304     -0.4366     -0.0000      0.0000     -0.0000
        98        -0.0000     -0.0000     -0.0000      0.0000     -0.0001     -0.0001
        99         0.0228     -0.0227     -0.0000     -0.0464      0.6872      0.0077
       100        -0.0464      0.0464     -0.0000     -0.0227     -0.0077      0.6872
       101        -0.1205      0.1205     -0.0000     -0.0655      0.0144      0.5190
       102         0.0655     -0.0655     -0.0000     -0.1205      0.5190     -0.0144
       103         0.5910      0.5907     -0.9661      0.0001     -0.0000      0.0000
       104        -0.0002     -0.0003      0.0000     -0.0018     -0.0001     -0.0000
       105         0.3813     -0.3812     -0.0000     -1.2679     -0.0906     -0.0162
       106         1.2679     -1.2680      0.0001      0.3813     -0.0162      0.0907
       107         0.0169     -0.0170      0.0000     -0.0350     -0.1315     -0.0025
       108        -0.0347      0.0347     -0.0000     -0.0168      0.0025     -0.1315
       109        -0.6229     -0.6229      0.4288     -0.0000      0.0000     -0.0000
       110         0.0597     -0.0597     -0.0000     -0.1033      0.3551     -0.0190
       111        -0.1033      0.1033      0.0000     -0.0597      0.0190      0.3551
       112         0.5397      0.5397      1.2661      0.0000      0.0000      0.0000
       113         0.1295     -0.1295      0.0000      0.0524     -0.0664      0.7696
       114        -0.0524      0.0524     -0.0000      0.1295      0.7697      0.0664
       115        -0.1953      0.1953     -0.0000     -0.0056     -0.1294      0.2731
       116        -0.0056      0.0056      0.0000      0.1952     -0.2731     -0.1294
       117         0.0020     -0.0009      0.0001     -0.0269     -0.0050     -0.0022
       118         0.7440     -0.7439     -0.0002      0.2800     -0.0181      0.1612
       119         0.2802     -0.2801     -0.0002     -0.7436     -0.1611     -0.0180
       120        -0.3583     -0.3588      1.1338     -0.0001     -0.0000      0.0000
       121        -0.0000     -0.0000     -0.0000      0.0001      0.0001      0.0000
       122         0.2216     -0.2216      0.0000     -0.4425     -0.5866     -0.0037
       123        -0.4425      0.4425      0.0000     -0.2216      0.0037     -0.5866
       124         0.0001      0.0001     -0.0003     -0.0000      0.0000      0.0000
       125        -0.0660      0.0660      0.0000      0.1483     -0.7839     -0.0407
       126        -0.1482      0.1483      0.0000     -0.0660     -0.0407      0.7839
       127        -0.2598     -0.2598     -0.2632     -0.0000      0.0000      0.0001
       128         0.3030      0.3030     -0.2866     -0.0000     -0.0000      0.0000
       129         0.1754      0.1754      0.0118      0.0000     -0.0000     -0.0000
       130        -0.1282      0.1282      0.0000      0.2309      0.1247     -0.0044
       131         0.2308     -0.2308     -0.0000      0.1282      0.0044      0.1247
       132         0.2201     -0.2201      0.0000      0.0373     -0.0540      0.1729
       133        -0.0373      0.0373     -0.0000      0.2201      0.1729      0.0540
       134         0.3942     -0.3942     -0.0000      0.0740     -0.0575      0.1959
       135         0.0740     -0.0740      0.0000     -0.3942     -0.1959     -0.0574
       136         0.1351     -0.1351      0.0000      0.0703      0.0050      0.4596
       137        -0.0703      0.0703     -0.0000      0.1351      0.4596     -0.0050
       138        -0.0974     -0.0975     -0.1628      0.0000     -0.0000      0.0000
       139         0.0001      0.0001      0.0000      0.0000      0.0000      0.0000
       140        -0.0862      0.0862      0.0000      0.1984      0.2379      0.0142
       141        -0.1984      0.1983      0.0001     -0.0862      0.0142     -0.2379
       142        -0.2158     -0.2158      0.6631      0.0000      0.0000      0.0000
       143        -0.1203     -0.1204      0.6097      0.0000      0.0000      0.0000
       144        -0.1724      0.1724      0.0000     -0.0725      0.0055     -0.0733
       145         0.0725     -0.0725     -0.0000     -0.1724     -0.0732     -0.0055
       146        -0.0320      0.0319      0.0000     -0.0170     -0.0001      0.0223
       147         0.0170     -0.0170      0.0000     -0.0320      0.0223      0.0001
       148        -0.1218      0.1218      0.0000      0.2054     -0.0594      0.0039
       149         0.2054     -0.2054      0.0000      0.1218     -0.0039     -0.0594
       150         0.0805      0.0805     -0.1706     -0.0000     -0.0000     -0.0000
       151        -0.0002     -0.0002     -0.0004     -0.0000      0.0001      0.0001
       152         0.0212     -0.0211      0.0001     -0.0278      0.4029     -0.0692
       153        -0.0278      0.0277     -0.0001     -0.0211      0.0692      0.4029
       154        -0.1341     -0.1341     -0.2706     -0.0000      0.0001     -0.0001
       155        -0.0593      0.0593      0.0000      0.1015     -0.2077      0.0120
       156         0.1015     -0.1015     -0.0000      0.0593     -0.0120     -0.2077
 <0|del|b> * <b|rxdel|0> + <0|del|b> * <b|delr+rdel|0>
 Rotatory Strengths (R) in cgs (10**-40 erg-esu-cm/Gauss)
       state          XX          YY          ZZ    R(velocity)    E-M Angle
         1         0.0018      0.0018     -0.0000      0.0012       90.00
         2         5.3200     -5.2951     -0.0128      0.0040       90.00
         3        -5.2950      5.3199     -0.0122      0.0043       90.00
         4        -0.0104      0.0119      0.0295      0.0103       90.00
         5         0.0118     -0.0104      0.0295      0.0103       90.00
         6        -0.0014     -0.0018      0.0000     -0.0011       90.00
         7         0.3828     -0.3940     -0.0047     -0.0053       90.00
         8        -0.3925      0.3824     -0.0032     -0.0045       90.00
         9        35.1036    -35.1068     -0.0202     -0.0078       90.00
        10       -35.1064     35.1070     -0.0019     -0.0004       90.00
        11         0.0205      0.0200     -0.0000      0.0135       90.00
        12         0.0040      0.0040     -0.0000      0.0027       90.00
        13       -12.6506     12.6346      0.0129     -0.0010       90.00
        14        12.6343    -12.6497      0.0120     -0.0011       90.00
        15        -0.0000     -0.0001     -0.0000     -0.0000       90.00
        16        -0.0205     -0.0205     -0.0000     -0.0136       90.00
        17        -0.0080     -0.0080     -0.0000     -0.0053       90.00
        18        -0.0011     -0.0021     -0.0000     -0.0010       90.00
        19        -0.0008     -0.0002      0.0000     -0.0004       90.00
        20         4.0856     -4.0927      0.0122      0.0017       90.00
        21        -4.0947      4.0859      0.0138      0.0017       90.00
        22       -21.2143     21.2057      0.0082     -0.0001       90.00
        23        21.2103    -21.2111      0.0040      0.0011       90.00
        24        16.0363    -16.0310     -0.0023      0.0010       90.00
        25       -16.0310     16.0357      0.0007      0.0018       90.00
        26        -1.9018      1.9104     -0.0022      0.0021       90.00
        27         1.9124     -1.9033     -0.0029      0.0021       90.00
        28        -0.0014     -0.0014      0.0000     -0.0010       90.00
        29         9.1069     -9.1267      0.0070     -0.0043       90.00
        30        -9.1260      9.1081      0.0059     -0.0040       90.00
        31         0.0129      0.0146      0.0000      0.0091       90.00
        32       -25.6640     25.6241      0.0296     -0.0034       90.00
        33        25.6227    -25.6657      0.0328     -0.0034       90.00
        34         0.1260     -0.1292      0.0019     -0.0004       90.00
        35        -0.1305      0.1269      0.0023     -0.0004       90.00
        36        -0.1896      0.1811     -0.0024     -0.0036       90.00
        37         0.1810     -0.1922      0.0015     -0.0032       90.00
        38        -0.0034     -0.0006      0.0000     -0.0013       90.00
        39         2.0772     -2.0986      0.0311      0.0032       90.00
        40        -2.0965      2.0754      0.0308      0.0032       90.00
        41        -0.0095     -0.0095     -0.0000     -0.0063       90.00
        42        -0.0025     -0.0019      0.0000     -0.0015       90.00
        43        -2.5743      2.5832     -0.0043      0.0015       90.00
        44         2.5840     -2.5757     -0.0036      0.0016       90.00
        45        -0.0235     -0.0023      0.0000     -0.0086       90.00
        46         3.7325     -3.7280     -0.0044      0.0000       90.00
        47        -3.7220      3.7271     -0.0042      0.0003       90.00
        48        -0.0072     -0.0072      0.0000     -0.0048       90.00
        49        -1.8666      1.8585      0.0069     -0.0004       90.00
        50         1.8590     -1.8665      0.0064     -0.0004       90.00
        51         0.0050      0.0048      0.0000      0.0033       90.00
        52        -0.0329      0.0334     -0.0009     -0.0001       90.00
        53         0.0339     -0.0343      0.0001     -0.0001       90.00
        54        -0.0001     -0.0006     -0.0000     -0.0003       90.00
        55        -0.1422      0.1468     -0.0004      0.0014       90.00
[...]
                86            87            88            89            90 
      1  -0.550137D+02 -0.548821D+02 -0.548692D+02 -0.548281D+02 -0.548130D+02
      2  -0.223984D+00  0.295241D-05 -0.738347D-05  0.689018D-05  0.160088D+00
      3   0.212047D-02  0.251592D-05  0.000000D+00  0.000000D+00  0.195646D-02
      4   0.358308D-05  0.223801D-01 -0.297449D+00 -0.307475D-05  0.102566D-05
      5   0.356476D+00 -0.398716D-05  0.126144D-04 -0.108061D-04 -0.296444D+00
      6  -0.335841D-02 -0.302279D-05  0.000000D+00 -0.129763D-05 -0.361789D-02
      7  -0.578452D-05  0.916967D-03  0.520555D+00  0.000000D+00 -0.104469D-05
      8   0.202193D-02 -0.122983D-04  0.177047D-04  0.143825D-04  0.275188D-02
      9   0.213655D+00  0.275862D-05 -0.460706D-05  0.000000D+00 -0.227772D+00
     10   0.000000D+00  0.763159D-04 -0.802064D-04  0.418952D+00  0.154600D-05
     11  -0.239663D+00  0.279610D+00 -0.154986D+00  0.574895D-04 -0.187987D+00
     12   0.239665D+00  0.279655D+00 -0.155066D+00  0.549526D-04  0.188027D+00
     13   0.165674D-05 -0.456598D-01 -0.494637D-01  0.283160D-04 -0.264156D-04
     14  -0.455668D+00  0.281174D-05 -0.389244D-05  0.434310D-05 -0.339915D+00
     15  -0.387982D-01 -0.895855D-05  0.856817D-05  0.186961D-04  0.755308D+00
     16   0.379847D-03 -0.154887D-04  0.254594D-04  0.654945D-05  0.875148D-02
                91            92            93            94            95 
      1  -0.548130D+02 -0.547474D+02 -0.547474D+02 -0.546987D+02 -0.546798D+02
      2   0.196035D-02  0.812264D-01  0.185697D+00 -0.318927D-05 -0.102541D-02
      3  -0.160086D+00  0.185696D+00 -0.812266D-01 -0.707479D-05 -0.879850D-02
      4  -0.961433D-05 -0.372321D-05 -0.421513D-05 -0.138742D+00 -0.524314D-05
      5  -0.362381D-02 -0.154604D+00 -0.353482D+00  0.526989D-05 -0.240916D-02
      6   0.296441D+00 -0.353480D+00  0.154605D+00  0.112965D-04 -0.222554D-01
      7   0.158729D-04  0.694030D-05  0.786436D-05  0.235661D+00  0.965124D-05
      8  -0.227780D+00  0.958155D-01 -0.418777D-01  0.955594D-05  0.174660D+00
      9  -0.273706D-02 -0.418758D-01 -0.958093D-01 -0.265028D-05 -0.194591D-01
     10   0.124270D-04 -0.149937D-05 -0.141150D-05 -0.217134D-03 -0.106713D-05
     11   0.339834D+00  0.134029D+00  0.109390D-01  0.144691D+01 -0.654827D+00
     12  -0.339866D+00 -0.133987D+00 -0.109502D-01  0.144686D+01  0.654848D+00
     13   0.123869D-04  0.149954D-04  0.157869D-05  0.544131D+00  0.801478D-05
     14  -0.188045D+00 -0.109426D-01  0.134012D+00 -0.111338D-04  0.263209D+00
     15   0.874688D-02 -0.188826D-01 -0.431842D-01 -0.170065D-04 -0.112185D-01
     16  -0.755285D+00 -0.431641D-01  0.188711D-01 -0.264165D-04 -0.101221D+00
                96            97            98            99           100 
      1  -0.546798D+02 -0.546571D+02 -0.545754D+02 -0.545519D+02 -0.545519D+02
      2   0.879437D-02  0.599615D-05 -0.229070D-04  0.193609D+00 -0.362458D-02
      3  -0.102515D-02  0.364027D-05  0.102171D-04 -0.362478D-02 -0.193612D+00
      4   0.195241D-05  0.334661D+00  0.291555D-04 -0.355538D-05  0.000000D+00
      5   0.222616D-01 -0.121960D-04  0.341054D-04 -0.320427D+00  0.598155D-02
      6  -0.240964D-02 -0.731252D-05 -0.152025D-04  0.598192D-02  0.320433D+00
      7  -0.429318D-05 -0.652905D+00 -0.475489D-04  0.565100D-05  0.000000D+00
      8   0.194590D-01  0.000000D+00  0.982240D-05 -0.320222D-02 -0.170244D+00
      9   0.174657D+00  0.000000D+00  0.292060D-04 -0.170247D+00  0.320322D-02
     10   0.606035D-05  0.500669D-04 -0.209306D+00 -0.371665D-04 -0.123956D-04
     11   0.263210D+00 -0.630375D+00 -0.428992D-05  0.234594D-01 -0.460698D-01
     12  -0.263210D+00 -0.630357D+00 -0.331173D-05 -0.234373D-01  0.460723D-01
     13  -0.546081D-05 -0.436585D+00 -0.345521D-05 -0.185952D-04 -0.321035D-05
     14   0.654832D+00  0.246234D-05 -0.612790D-05  0.460665D-01  0.234256D-01
     15   0.101206D+00  0.401287D-05 -0.116782D-03  0.687124D+00 -0.128639D-01
     16  -0.112392D-01  0.705637D-05  0.527266D-04 -0.128655D-01 -0.687115D+00
               101           102           103           104           105 
      1  -0.544584D+02 -0.544584D+02 -0.543696D+02 -0.543671D+02 -0.543664D+02
      2  -0.353519D-02 -0.176652D+00  0.705638D-05 -0.220455D-03 -0.121000D+00
      3   0.176655D+00 -0.353601D-02 -0.135861D-04  0.101163D-03  0.228125D-01
      4  -0.280282D-05  0.361894D-05  0.941415D-01 -0.134054D-04  0.679802D-05
      5   0.737959D-02  0.367536D+00 -0.133261D-04  0.423259D-03  0.236674D+00
      6  -0.367543D+00  0.738155D-02  0.268522D-04 -0.194798D-03 -0.446230D-01
      7   0.528757D-05 -0.713903D-05 -0.188463D+00  0.000000D+00 -0.134860D-04
      8  -0.133356D+00  0.269242D-02  0.638962D-05 -0.820648D-04 -0.162307D-01
      9  -0.269220D-02 -0.133355D+00  0.634412D-05 -0.175885D-03 -0.861130D-01
     10   0.103509D-05 -0.221727D-05  0.139260D-03 -0.307800D+00  0.422029D-03
     11  -0.119517D+00  0.673161D-01  0.591007D+00 -0.186002D-03  0.400099D+00
     12   0.119507D+00 -0.672922D-01  0.590748D+00 -0.329715D-03 -0.400074D+00
     13   0.000000D+00 -0.140096D-04 -0.966104D+00  0.395389D-04 -0.172916D-04
     14   0.672840D-01  0.119510D+00 -0.662575D-04  0.184304D-02  0.126207D+01
     15   0.105583D-01  0.519117D+00 -0.317306D-04 -0.736147D-04 -0.905051D-01
     16  -0.519128D+00  0.105533D-01 -0.173515D-04  0.413689D-04  0.168875D-01
               106           107           108           109           110 
      1  -0.543664D+02 -0.543520D+02 -0.543520D+02 -0.543327D+02 -0.542840D+02
      2  -0.228176D-01  0.263437D+00 -0.685738D-02  0.965669D-05 -0.162684D+00
      3  -0.120935D+00 -0.685438D-02 -0.263474D+00  0.110494D-05 -0.740730D-02
      4   0.341755D-05 -0.854031D-05 -0.240135D-05  0.426540D+00  0.247262D-05
      5   0.446328D-01 -0.488564D+00  0.127187D-01 -0.175267D-04  0.336942D+00
      6   0.236553D+00  0.127127D-01  0.488637D+00 -0.240282D-05  0.153373D-01
      7  -0.698593D-05  0.159919D-04  0.361528D-05 -0.750380D+00 -0.528715D-05
      8   0.860066D-01  0.950707D-02  0.365638D+00 -0.192512D-05  0.192150D-02
      9  -0.162391D-01  0.365612D+00 -0.950956D-02  0.405163D-05 -0.433548D-01
     10  -0.117815D-03 -0.621570D-04 -0.280977D-04 -0.236240D-03  0.101148D-04
     11   0.126204D+01  0.174516D-01 -0.344381D-01 -0.622894D+00  0.612484D-01
     12  -0.126213D+01 -0.174726D-01  0.344548D-01 -0.622869D+00 -0.612285D-01
     13   0.912111D-04  0.172992D-04 -0.144499D-04  0.428838D+00 -0.228317D-04
     14  -0.400100D+00  0.347564D-01  0.173327D-01  0.192546D-05  0.102392D+00
     15  -0.169241D-01 -0.131519D+00  0.346378D-02  0.116955D-04  0.355255D+00
     16  -0.905351D-01  0.346294D-02  0.131503D+00  0.163925D-05  0.163428D-01
               111           112           113           114           115 
      1  -0.542840D+02 -0.542700D+02 -0.541846D+02 -0.541846D+02 -0.541353D+02
      2  -0.740745D-02  0.700847D-05  0.111588D-01 -0.118904D+00  0.273540D-01
      3   0.162683D+00  0.000000D+00  0.118902D+00  0.111593D-01  0.565605D-01
      4   0.166258D-05  0.283992D+00 -0.162567D-05  0.230209D-05  0.583966D-05
      5   0.153374D-01 -0.142242D-04 -0.261247D-01  0.278388D+00 -0.559117D-01
      6  -0.336941D+00 -0.172177D-05 -0.278381D+00 -0.261256D-01 -0.115596D+00
      7  -0.263803D-05 -0.569534D+00  0.319121D-05 -0.499354D-05 -0.118774D-04
      8  -0.433543D-01 -0.640214D-05 -0.370691D+00 -0.347973D-01 -0.225216D-01
      9  -0.192063D-02  0.405934D-05  0.347974D-01 -0.370701D+00  0.108670D-01
     10   0.447805D-05 -0.135440D-03  0.117957D-04  0.172804D-04  0.000000D+00
     11  -0.102404D+00  0.539662D+00  0.128699D+00 -0.543210D-01 -0.195172D+00
     12   0.102383D+00  0.539668D+00 -0.128724D+00  0.543517D-01  0.195161D+00
     13   0.146865D-04  0.126608D+01  0.106551D-04 -0.285877D-04 -0.184554D-05
     14   0.612306D-01 -0.139313D-05 -0.543580D-01 -0.128713D+00  0.847684D-02
     15   0.163471D-01  0.804043D-05 -0.721215D-01  0.769152D+00 -0.131471D+00
     16  -0.355257D+00 -0.152412D-04 -0.769130D+00 -0.721176D-01 -0.272087D+00
               116           117           118           119           120 
      1  -0.541353D+02 -0.540853D+02 -0.540852D+02 -0.540852D+02 -0.540816D+02
      2   0.565547D-01 -0.661086D-02 -0.251688D-01 -0.211926D+00 -0.443614D-04
      3  -0.273516D-01  0.298064D-02 -0.212013D+00  0.250862D-01 -0.387815D-04
      4   0.000000D+00 -0.628094D-04  0.512614D-05  0.112951D-04 -0.280209D-01
      5  -0.115585D+00  0.129564D-01  0.492781D-01  0.415106D+00  0.868058D-04
      6   0.559060D-01 -0.584020D-02  0.415275D+00 -0.491160D-01  0.762013D-04
      7   0.159767D-05  0.176015D-03 -0.111520D-04 -0.256276D-04  0.663482D-01
      8   0.108620D-01  0.495167D-03 -0.364541D-01  0.429298D-02 -0.818021D-05
      9   0.225270D-01  0.112452D-02  0.430791D-02  0.364308D-01  0.111637D-04
     10  -0.302268D-04 -0.574046D+00 -0.586438D-02  0.185647D-01  0.115554D-03
     11  -0.847114D-02  0.243016D-02  0.739787D+00  0.291207D+00 -0.358335D+00
     12   0.847126D-02 -0.129255D-02 -0.739642D+00 -0.291124D+00 -0.358784D+00
     13   0.427884D-05  0.135871D-03 -0.217709D-03 -0.206809D-03  0.113375D+01
     14  -0.195141D+00  0.268857D-01 -0.291049D+00  0.739300D+00  0.788038D-04
     15  -0.272112D+00 -0.500253D-02 -0.192896D-01 -0.160985D+00 -0.198613D-04
     16   0.131459D+00  0.226392D-02 -0.161045D+00  0.192009D-01 -0.281087D-04
               121           122           123           124           125 
      1  -0.540213D+02 -0.539943D+02 -0.539943D+02 -0.539567D+02 -0.539298D+02
      2   0.175941D-04 -0.902323D-01  0.109001D-02 -0.277569D-05  0.781197D-01
      3  -0.839087D-05  0.108986D-02  0.902294D-01  0.391071D-05 -0.464798D-02
      4   0.993511D-05  0.260027D-05  0.000000D+00  0.238263D-04  0.244924D-05
      5  -0.407142D-04  0.205190D+00 -0.247906D-02  0.655637D-05 -0.214574D+00
      6   0.193925D-04 -0.247862D-02 -0.205183D+00 -0.103581D-04  0.127654D-01
      7  -0.264031D-04 -0.585342D-05  0.000000D+00 -0.743577D-04 -0.527328D-05
      8  -0.120632D-04  0.409290D-02  0.305159D+00 -0.414960D-05  0.369215D-02
      9  -0.455145D-04  0.305162D+00 -0.409278D-02 -0.369530D-05  0.628567D-01
     10   0.527102D+00  0.101677D-03  0.386785D-04  0.501161D-01  0.162621D-05
     11  -0.432628D-04  0.228142D+00 -0.439128D+00  0.536318D-04 -0.682384D-01
     12  -0.363739D-04 -0.228155D+00  0.439142D+00  0.566937D-04  0.682157D-01
     13  -0.385008D-04  0.713995D-05  0.196955D-05 -0.305065D-03  0.102356D-04
     14  -0.931325D-04  0.439134D+00  0.228170D+00  0.950601D-05 -0.147289D+00
     15   0.902329D-04 -0.586547D+00  0.804859D-02  0.768709D-05 -0.783557D+00
     16  -0.410825D-04  0.803580D-02  0.586525D+00 -0.335019D-04  0.465439D-01
               126           127           128           129           130 
      1  -0.539298D+02 -0.539095D+02 -0.538275D+02 -0.537394D+02 -0.537354D+02
      2   0.464762D-02  0.000000D+00 -0.273913D-05 -0.464916D-05  0.539088D-01
      3   0.781199D-01  0.822331D-05 -0.146864D-05 -0.114695D-05  0.152345D-02
      4  -0.154555D-04  0.992282D-01 -0.113230D+00 -0.231912D+00 -0.154211D-05
      5  -0.127646D-01  0.215514D-05  0.472679D-05  0.102439D-04 -0.698720D-01
      6  -0.214573D+00 -0.223042D-04  0.227026D-05  0.295860D-05 -0.186657D-02
      7   0.353765D-04 -0.234844D+00  0.198673D+00  0.526837D+00  0.227444D-05
      8  -0.628604D-01 -0.671948D-05  0.000000D+00  0.145063D-05 -0.512706D-02
      9   0.369040D-02  0.000000D+00  0.000000D+00  0.000000D+00  0.169286D+00
     10  -0.289331D-05 -0.343594D-03 -0.149941D-04  0.590780D-04 -0.185660D-05
     11  -0.147243D+00 -0.259828D+00  0.303028D+00  0.175375D+00 -0.131651D+00
     12   0.147305D+00 -0.259779D+00  0.303017D+00  0.175365D+00  0.131652D+00
     13   0.250074D-04 -0.263152D+00 -0.286587D+00  0.118228D-01  0.250272D-05
     14   0.681953D-01  0.103879D-04  0.000000D+00  0.000000D+00 -0.228919D+00
     15  -0.465360D-01  0.133097D-04 -0.984485D-05 -0.538029D-05  0.124758D+00
     16  -0.783572D+00 -0.722191D-04 -0.918521D-05  0.846215D-05  0.347195D-02
               131           132           133           134           135 
      1  -0.537354D+02 -0.535925D+02 -0.535925D+02 -0.535665D+02 -0.535665D+02
      2   0.152368D-02  0.115345D-01 -0.360320D-01 -0.282041D-01 -0.936507D-01
      3  -0.539089D-01  0.360298D-01  0.115300D-01 -0.936522D-01  0.282048D-01
      4   0.000000D+00  0.000000D+00  0.000000D+00 -0.140431D-05  0.143306D-05
      5  -0.186736D-02 -0.279041D-01  0.872172D-01  0.922095D-01  0.306177D+00
      6   0.698725D-01 -0.872111D-01 -0.278910D-01  0.306179D+00 -0.922112D-01
      7  -0.125617D-05  0.233121D-05  0.000000D+00  0.230764D-05 -0.510049D-05
      8   0.169287D+00 -0.998680D-01 -0.320073D-01 -0.102738D+00  0.309197D-01
      9   0.512753D-02  0.320055D-01 -0.998715D-01  0.309233D-01  0.102741D+00
     10  -0.259830D-05  0.915607D-05  0.611482D-04 -0.320873D-05  0.535439D-04
     11   0.228911D+00  0.219507D+00 -0.405567D-01  0.393069D+00  0.798965D-01
     12  -0.228911D+00 -0.219512D+00  0.405648D-01 -0.393069D+00 -0.799002D-01
     13  -0.798829D-05  0.937478D-05 -0.625716D-05 -0.400314D-05  0.363828D-05
     14  -0.131652D+00 -0.405909D-01 -0.219507D+00 -0.799063D-01  0.393059D+00
     15   0.346383D-02 -0.552830D-01  0.172450D+00 -0.589235D-01 -0.195434D+00
     16  -0.124746D+00 -0.172445D+00 -0.552820D-01 -0.195427D+00  0.589025D-01
               136           137           138           139           140 
      1  -0.534297D+02 -0.534297D+02 -0.533230D+02 -0.532720D+02 -0.532317D+02
      2  -0.416254D-03 -0.124833D+00  0.255760D-05 -0.436781D-05 -0.140190D+00
      3   0.124838D+00 -0.416525D-03  0.173834D-05  0.431517D-05  0.944383D-02
      4  -0.139982D-04  0.689664D-05  0.142677D+00 -0.234326D-04 -0.109639D-04
      5   0.122793D-02  0.372280D+00 -0.772193D-05  0.173406D-04  0.452606D+00
      6  -0.372292D+00  0.122856D-02 -0.617896D-05 -0.145918D-04 -0.304811D-01
      7   0.385522D-04 -0.193195D-04 -0.411981D+00  0.935152D-04  0.320496D-04
      8   0.210904D-01 -0.138017D-03 -0.489381D-05  0.000000D+00  0.106378D-01
      9   0.137962D-03  0.210893D-01  0.196313D-05  0.494772D-05  0.159026D+00
     10  -0.241796D-05  0.123568D-05  0.857239D-04 -0.235049D+00  0.193197D-04
     11   0.133991D+00 -0.722996D-01 -0.974404D-01  0.692614D-04 -0.891573D-01
     12  -0.133988D+00  0.723130D-01 -0.974712D-01  0.757451D-04  0.891363D-01
     13   0.296946D-04 -0.292650D-04 -0.162787D+00  0.323339D-04  0.360807D-04
     14  -0.723174D-01 -0.133995D+00 -0.228363D-05 -0.333772D-04 -0.197082D+00
     15   0.154994D-02  0.459602D+00 -0.909352D-05  0.146863D-04  0.237795D+00
     16  -0.459602D+00  0.155320D-02 -0.306925D-04 -0.860387D-05 -0.160017D-01
               141           142           143           144           145 
      1  -0.532317D+02 -0.532108D+02 -0.532070D+02 -0.531419D+02 -0.531419D+02
      2  -0.944479D-02  0.262653D-05  0.000000D+00  0.759932D-02 -0.956407D-01
      3  -0.140204D+00  0.801611D-05  0.226880D-05  0.956277D-01  0.760034D-02
      4  -0.295506D-04 -0.191889D+00 -0.148097D+00 -0.325476D-05  0.109836D-05
      5   0.304833D-01 -0.936214D-05 -0.120558D-05 -0.192562D-01  0.242303D+00
      6   0.452641D+00 -0.279039D-04 -0.969943D-05 -0.242258D+00 -0.192594D-01
      7   0.876716D-04  0.579716D+00  0.444699D+00  0.103471D-04 -0.261104D-05
      8  -0.159038D+00  0.102460D-04  0.645722D-05  0.930168D-01  0.762814D-02
      9   0.106390D-01 -0.680586D-05 -0.414430D-05 -0.762715D-02  0.930327D-01
     10  -0.392145D-05  0.342496D-03  0.170770D-03 -0.604609D-05 -0.468218D-05
     11  -0.197075D+00 -0.215750D+00 -0.120320D+00 -0.171311D+00  0.750116D-01
     12   0.197026D+00 -0.215814D+00 -0.120373D+00  0.171287D+00 -0.750127D-01
     13   0.944231D-04  0.663061D+00  0.609678D+00  0.183572D-04  0.000000D+00
     14   0.891386D-01 -0.273999D-05 -0.180194D-05  0.750322D-01  0.171275D+00
     15   0.160070D-01  0.169862D-05  0.637073D-05  0.607930D-02 -0.731878D-01
     16   0.237775D+00 -0.249662D-04 -0.470709D-05  0.732091D-01  0.607563D-02
               146           147           148           149           150 
      1  -0.528904D+02 -0.528904D+02 -0.528095D+02 -0.528095D+02 -0.527721D+02
      2  -0.149827D-05  0.155627D-02  0.153780D+00  0.888455D-02 -0.152144D-05
      3  -0.155932D-02 -0.192307D-05  0.888415D-02 -0.153776D+00  0.000000D+00
      4   0.469784D-05 -0.163620D-05 -0.194037D-05  0.000000D+00 -0.961678D-01
      5   0.116198D-04 -0.211631D-01 -0.471993D+00 -0.273052D-01  0.510969D-05
      6   0.211721D-01  0.129127D-04 -0.273036D-01  0.471980D+00  0.148607D-05
      7  -0.155632D-04  0.578893D-05  0.562441D-05  0.000000D+00  0.319709D+00
      8  -0.101053D-01 -0.429161D-04  0.292389D-02 -0.507061D-01  0.000000D+00
      9   0.431359D-04 -0.101047D-01 -0.507077D-01 -0.292377D-02  0.000000D+00
     10  -0.367277D-05 -0.839819D-05 -0.704842D-05  0.000000D+00  0.121130D-04
     11  -0.317087D-01  0.174974D-01 -0.124824D+00  0.203576D+00  0.805170D-01
     12   0.316886D-01 -0.174939D-01  0.124825D+00 -0.203580D+00  0.805253D-01
     13   0.828544D-05  0.000000D+00  0.144739D-05  0.355084D-05 -0.170647D+00
     14   0.174904D-01  0.317037D-01 -0.203575D+00 -0.124824D+00  0.000000D+00
     15  -0.273597D-03  0.222835D-01 -0.593808D-01 -0.341876D-02 -0.432346D-05
     16  -0.222912D-01 -0.273536D-03 -0.341067D-02  0.593787D-01  0.218770D-05
               151           152           153           154           155 
      1  -0.526301D+02 -0.526074D+02 -0.526074D+02 -0.525982D+02 -0.522650D+02
      2  -0.373172D-04 -0.164933D+00 -0.270568D-01 -0.367319D-04  0.678380D-01
      3   0.214261D-04 -0.270567D-01  0.164933D+00 -0.423369D-04  0.349818D-02
      4   0.359215D-04 -0.387739D-04  0.332074D-04  0.148816D+00  0.000000D+00
      5   0.126505D-03  0.562598D+00  0.922745D-01  0.125520D-03 -0.230179D+00
      6  -0.725000D-04  0.922744D-01 -0.562600D+00  0.144697D-03 -0.118102D-01
      7  -0.139459D-03  0.130115D-03 -0.111722D-03 -0.500052D+00  0.323259D-05
      8   0.108543D-04 -0.145497D-01  0.871611D-01 -0.228532D-04  0.176943D-02
      9   0.189855D-04  0.871609D-01  0.145497D-01  0.208836D-04 -0.310503D-01
     10  -0.412045D-02  0.362311D-05 -0.187365D-05  0.623307D-03  0.169940D-04
     11  -0.188612D-03  0.215888D-01 -0.274615D-01 -0.134104D+00 -0.608369D-01
     12  -0.187157D-03 -0.215080D-01  0.274074D-01 -0.134129D+00  0.608270D-01
     13  -0.372674D-03  0.609286D-04 -0.622346D-04 -0.270559D+00  0.730611D-05
     14   0.771479D-05  0.274400D-01  0.215366D-01  0.566051D-05 -0.100631D+00
     15   0.928229D-04  0.403356D+00  0.661824D-01  0.935081D-04 -0.207829D+00
     16  -0.526166D-04  0.661829D-01 -0.403364D+00  0.106427D-03 -0.104825D-01
               156 
      1  -0.522650D+02
      2   0.349845D-02
      3  -0.678374D-01
      4   0.000000D+00
      5  -0.118112D-01
      6   0.230178D+00
      7   0.138481D-05
      8  -0.310509D-01
      9  -0.176956D-02
     10   0.644387D-05
     11   0.100630D+00
     12  -0.100625D+00
     13  -0.249671D-05
     14  -0.608236D-01
     15  -0.104849D-01
     16   0.207831D+00
 Unable to Open any file for archive entry.
 1\1\GINC-HEL22\SP\RPBEPBE TD-FC\Gen\H3N1\SABYASACHI\21-Mar-2022\0\\#P 
 TD(Nstates=10000) pbepbe/Gen SCF(maxcycles=100) Int(Grid=ultrafine)\\x
 GDB7_00001_tier4.com\\0,1\N,0,0.000002,0.,0.110463\H,0,0.154111,0.9290
 92,-0.257758\H,0,0.727563,-0.598011,-0.257757\H,0,-0.881687,-0.331078,
 -0.257728\\Version=EM64L-G16RevC.01\State=1-A\HF=-56.4479683\RMSD=3.17
 6e-09\PG=C01 [X(H3N1)]\\@
 The archive entry for this job was punched.


 LIFE CAN ONLY BE UNDERSTOOD BACKWARD, BUT MUST
 BE LIVED FORWARD. -- KIRKEGAARD
 Job cpu time:       0 days  0 hours  0 minutes 30.4 seconds.
 Elapsed time:       0 days  0 hours  0 minutes  4.1 seconds.
 File lengths (MBytes):  RWF=     15 Int=      0 D2E=      0 Chk=      9 Scr=      1
 Normal termination of Gaussian 16 at Mon Mar 21 20:19:54 2022.
