 Entering Gaussian System, Link 0=g16
 Input=000008.com
 Output=000008.log
 Initial command:
 /home/sabyasachi/g16/l1.exe "/scratch/sabyasachi/PBS_7976439.helios/Gau-112098.inp" -scrdir="/scratch/sabyasachi/PBS_7976439.helios/"
 Entering Link 1 = /home/sabyasachi/g16/l1.exe PID=    112100.
  
 Copyright (c) 1988-2019, Gaussian, Inc.  All Rights Reserved.
  
 This is part of the Gaussian(R) 16 program.  It is based on
 the Gaussian(R) 09 system (copyright 2009, Gaussian, Inc.),
 the Gaussian(R) 03 system (copyright 2003, Gaussian, Inc.),
 the Gaussian(R) 98 system (copyright 1998, Gaussian, Inc.),
 the Gaussian(R) 94 system (copyright 1995, Gaussian, Inc.),
 the Gaussian 92(TM) system (copyright 1992, Gaussian, Inc.),
 the Gaussian 90(TM) system (copyright 1990, Gaussian, Inc.),
 the Gaussian 88(TM) system (copyright 1988, Gaussian, Inc.),
 the Gaussian 86(TM) system (copyright 1986, Carnegie Mellon
 University), and the Gaussian 82(TM) system (copyright 1983,
 Carnegie Mellon University). Gaussian is a federally registered
 trademark of Gaussian, Inc.
  
 This software contains proprietary and confidential information,
 including trade secrets, belonging to Gaussian, Inc.
  
 This software is provided under written license and may be
 used, copied, transmitted, or stored only in accord with that
 written license.
  
 The following legend is applicable only to US Government
 contracts under FAR:
  
                    RESTRICTED RIGHTS LEGEND
  
 Use, reproduction and disclosure by the US Government is
 subject to restrictions as set forth in subparagraphs (a)
 and (c) of the Commercial Computer Software - Restricted
 Rights clause in FAR 52.227-19.
  
 Gaussian, Inc.
 340 Quinnipiac St., Bldg. 40, Wallingford CT 06492
  
  
 ---------------------------------------------------------------
 Warning -- This program may not be used in any manner that
 competes with the business of Gaussian, Inc. or will provide
 assistance to any competitor of Gaussian, Inc.  The licensee
 of this program is prohibited from giving any competitor of
 Gaussian, Inc. access to this program.  By using this program,
 the user acknowledges that Gaussian, Inc. is engaged in the
 business of creating and licensing software in the field of
 computational chemistry and represents and warrants to the
 licensee that it is not a competitor of Gaussian, Inc. and that
 it will not use this program in any manner prohibited above.
 ---------------------------------------------------------------
  

 Cite this work as:
 Gaussian 16, Revision C.01,
 M. J. Frisch, G. W. Trucks, H. B. Schlegel, G. E. Scuseria, 
 M. A. Robb, J. R. Cheeseman, G. Scalmani, V. Barone, 
 G. A. Petersson, H. Nakatsuji, X. Li, M. Caricato, A. V. Marenich, 
 J. Bloino, B. G. Janesko, R. Gomperts, B. Mennucci, H. P. Hratchian, 
 J. V. Ortiz, A. F. Izmaylov, J. L. Sonnenberg, D. Williams-Young, 
 F. Ding, F. Lipparini, F. Egidi, J. Goings, B. Peng, A. Petrone, 
 T. Henderson, D. Ranasinghe, V. G. Zakrzewski, J. Gao, N. Rega, 
 G. Zheng, W. Liang, M. Hada, M. Ehara, K. Toyota, R. Fukuda, 
 J. Hasegawa, M. Ishida, T. Nakajima, Y. Honda, O. Kitao, H. Nakai, 
 T. Vreven, K. Throssell, J. A. Montgomery, Jr., J. E. Peralta, 
 F. Ogliaro, M. J. Bearpark, J. J. Heyd, E. N. Brothers, K. N. Kudin, 
 V. N. Staroverov, T. A. Keith, R. Kobayashi, J. Normand, 
 K. Raghavachari, A. P. Rendell, J. C. Burant, S. S. Iyengar, 
 J. Tomasi, M. Cossi, J. M. Millam, M. Klene, C. Adamo, R. Cammi, 
 J. W. Ochterski, R. L. Martin, K. Morokuma, O. Farkas, 
 J. B. Foresman, and D. J. Fox, Gaussian, Inc., Wallingford CT, 2019.
 
 ******************************************
 Gaussian 16:  EM64L-G16RevC.01  3-Jul-2019
                21-Mar-2022 
 ******************************************
 %mem=64gb
 %nproc=8
 Will use up to    8 processors via shared memory.
 ----------------------------------------------------------------------
 #P TD(Nstates=10000) pbepbe/Gen SCF(maxcycles=100) Int(Grid=ultrafine)
 ----------------------------------------------------------------------
 1/38=1,172=1/1;
 2/12=2,17=6,18=5,40=1/2;
 3/5=7,11=9,25=1,30=1,74=1009,75=-5/1,2,3,8;
 4//1;
 5/5=2,7=100,38=5/2;
 8/6=1,10=1,108=10000/1;
 9/41=10000,42=1,70=2/14;
 6/7=2,8=2,9=2,10=2/1;
 99/5=1,9=1/99;
 Leave Link    1 at Mon Mar 21 20:12:04 2022, MaxMem=  8589934592 cpu:               0.3 elap:               0.1
 (Enter /home/sabyasachi/g16/l101.exe)
 ---------------------
 xGDB7_00001_tier4.com
 ---------------------
 Symbolic Z-matrix:
 Charge =  0 Multiplicity = 1
 6                    -0.63015  0.         0. 
 9                     0.74851   0.       0. 
 1                    -0.98525   0.89968   0.50542 
 1                    -0.98522  -0.88756   0.52642 
 1                    -0.98525  -0.01213  -1.03184 
 
 ITRead=  0  0  0  0  0
 MicOpt= -1 -1 -1 -1 -1
 NAtoms=      5 NQM=        5 NQMF=       0 NMMI=      0 NMMIF=      0
                NMic=       0 NMicF=      0.
                    Isotopes and Nuclear Properties:
 (Nuclear quadrupole moments (NQMom) in fm**2, nuclear magnetic moments (NMagM)
  in nuclear magnetons)

  Atom         1           2           3           4           5
 IAtWgt=          12          19           1           1           1
 AtmWgt=  12.0000000  18.9984033   1.0078250   1.0078250   1.0078250
 NucSpn=           0           1           1           1           1
 AtZEff=  -0.0000000  -0.0000000  -0.0000000  -0.0000000  -0.0000000
 NQMom=    0.0000000   0.0000000   0.0000000   0.0000000   0.0000000
 NMagM=    0.0000000   2.6288670   2.7928460   2.7928460   2.7928460
 AtZNuc=   6.0000000   9.0000000   1.0000000   1.0000000   1.0000000
 Leave Link  101 at Mon Mar 21 20:12:04 2022, MaxMem=  8589934592 cpu:               0.7 elap:               0.1
 (Enter /home/sabyasachi/g16/l202.exe)
                          Input orientation:                          
 ---------------------------------------------------------------------
 Center     Atomic      Atomic             Coordinates (Angstroms)
 Number     Number       Type             X           Y           Z
 ---------------------------------------------------------------------
      1          6           0       -0.630149   -0.000001    0.000003
      2          9           0        0.748512    0.000002   -0.000001
      3          1           0       -0.985250    0.899676    0.505416
      4          1           0       -0.985222   -0.887557    0.526417
      5          1           0       -0.985245   -0.012128   -1.031840
 ---------------------------------------------------------------------
                    Distance matrix (angstroms):
                    1          2          3          4          5
     1  C    0.000000
     2  F    1.378661   0.000000
     3  H    1.091310   2.017620   0.000000
     4  H    1.091304   2.017600   1.787356   0.000000
     5  H    1.091302   2.017611   1.787328   1.787328   0.000000
 Stoichiometry    CH3F
 Framework group  C1[X(CH3F)]
 Deg. of freedom     9
 Full point group                 C1      NOp   1
 Largest Abelian subgroup         C1      NOp   1
 Largest concise Abelian subgroup C1      NOp   1
                         Standard orientation:                         
 ---------------------------------------------------------------------
 Center     Atomic      Atomic             Coordinates (Angstroms)
 Number     Number       Type             X           Y           Z
 ---------------------------------------------------------------------
      1          6           0        0.630149   -0.000001   -0.000003
      2          9           0       -0.748512    0.000002    0.000001
      3          1           0        0.985250    0.897475   -0.509314
      4          1           0        0.985222   -0.889832   -0.522562
      5          1           0        0.985245   -0.007652    1.031883
 ---------------------------------------------------------------------
 Rotational constants (GHZ):         156.9708152          25.8428001          25.8427103
 Leave Link  202 at Mon Mar 21 20:12:04 2022, MaxMem=  8589934592 cpu:               0.1 elap:               0.0
 (Enter /home/sabyasachi/g16/l301.exe)
 General basis read from cards:  (5D, 7F)
 Centers:       3      4      5
 S 3 1.00
     Exponent=  1.3010701000D+01 Coefficients=  1.9682158000D-02
     Exponent=  1.9622572000D+00 Coefficients=  1.3796524000D-01
     Exponent=  4.4453796000D-01 Coefficients=  4.7831935000D-01
 S 1 1.00
     Exponent=  1.2194962000D-01 Coefficients=  1.0000000000D+00
 P 1 1.00
     Exponent=  8.0000000000D-01 Coefficients=  1.0000000000D+00
 P 1 1.00
     Exponent=  1.1704099050D-01 Coefficients=  1.0000000000D+00
 ****
 Centers:       1
 S 5 1.00
     Exponent=  1.2384016938D+03 Coefficients=  5.4568832082D-03
     Exponent=  1.8629004992D+02 Coefficients=  4.0638409211D-02
     Exponent=  4.2251176346D+01 Coefficients=  1.8025593888D-01
     Exponent=  1.1676557932D+01 Coefficients=  4.6315121755D-01
     Exponent=  3.5930506482D+00 Coefficients=  4.4087173314D-01
 S 1 1.00
     Exponent=  4.0245147363D-01 Coefficients=  1.0000000000D+00
 S 1 1.00
     Exponent=  1.3090182668D-01 Coefficients=  1.0000000000D+00
 S 1 1.00
     Exponent=  6.7053540256D-02 Coefficients=  1.0000000000D+00
 P 3 1.00
     Exponent=  9.4680970621D+00 Coefficients=  3.8387871728D-02
     Exponent=  2.0103545142D+00 Coefficients=  2.1117025112D-01
     Exponent=  5.4771004707D-01 Coefficients=  5.1328172114D-01
 P 1 1.00
     Exponent=  1.5268613795D-01 Coefficients=  1.0000000000D+00
 D 1 1.00
     Exponent=  8.0000000000D-01 Coefficients=  1.0000000000D+00
 D 1 1.00
     Exponent=  1.1713185140D-01 Coefficients=  1.0000000000D+00
 ****
 Centers:       2
 S 5 1.00
     Exponent=  2.8948325990D+03 Coefficients= -5.3408255515D-03
     Exponent=  4.3541939120D+02 Coefficients= -3.9904258866D-02
     Exponent=  9.8843328866D+01 Coefficients= -1.7912768038D-01
     Exponent=  2.7485198001D+01 Coefficients= -4.6758090825D-01
     Exponent=  8.5405498171D+00 Coefficients= -4.4653131020D-01
 S 1 1.00
     Exponent=  1.0654578038D+00 Coefficients=  1.0000000000D+00
 S 1 1.00
     Exponent=  3.3247346748D-01 Coefficients=  1.0000000000D+00
 S 1 1.00
     Exponent=  9.8097752264D-02 Coefficients=  1.0000000000D+00
 P 3 1.00
     Exponent=  2.2696633924D+01 Coefficients= -4.5212874436D-02
     Exponent=  4.9872339257D+00 Coefficients= -2.3754317067D-01
     Exponent=  1.3491613954D+00 Coefficients= -5.1287353587D-01
 P 1 1.00
     Exponent=  3.4829881977D-01 Coefficients=  1.0000000000D+00
 P 1 1.00
     Exponent=  8.3372148304D-02 Coefficients=  1.0000000000D+00
 D 1 1.00
     Exponent=  1.4000000000D+00 Coefficients=  1.0000000000D+00
 D 1 1.00
     Exponent=  2.2301361948D-01 Coefficients=  1.0000000000D+00
 ****
 Ernie: Thresh=  0.10000D-02 Tol=  0.10000D-05 Strict=F.
 There are    71 symmetry adapted cartesian basis functions of A   symmetry.
 There are    67 symmetry adapted basis functions of A   symmetry.
    67 basis functions,    97 primitive gaussians,    71 cartesian basis functions
     9 alpha electrons        9 beta electrons
       nuclear repulsion energy        37.4250480537 Hartrees.
 IExCor= 1009 DFT=T Ex=PBE Corr=PBE ExCW=0 ScaHFX=  0.000000
 ScaDFX=  1.000000  1.000000  1.000000  1.000000 ScalE2=  1.000000  1.000000
 IRadAn=      5 IRanWt=     -1 IRanGd=            0 ICorTp=0 IEmpDi=  4
 NAtoms=    5 NActive=    5 NUniq=    5 SFac= 1.00D+00 NAtFMM=   60 NAOKFM=F Big=F
 Integral buffers will be    131072 words long.
 Regular integral format.
 Two-electron integral symmetry is turned on.
 Leave Link  301 at Mon Mar 21 20:12:04 2022, MaxMem=  8589934592 cpu:               0.6 elap:               0.1
 (Enter /home/sabyasachi/g16/l302.exe)
 NPDir=0 NMtPBC=     1 NCelOv=     1 NCel=       1 NClECP=     1 NCelD=      1
         NCelK=      1 NCelE2=     1 NClLst=     1 CellRange=     0.0.
 One-electron integrals computed using PRISM.
 One-electron integral symmetry used in STVInt
 NBasis=    67 RedAO= T EigKep=  6.61D-04  NBF=    67
 NBsUse=    67 1.00D-06 EigRej= -1.00D+00 NBFU=    67
 Precomputing XC quadrature grid using
 IXCGrd= 4 IRadAn=           5 IRanWt=          -1 IRanGd=           0 AccXCQ= 0.00D+00.
 Generated NRdTot=       0 NPtTot=           0 NUsed=           0 NTot=          32
 NSgBfM=    71    71    71    71    71 MxSgAt=     5 MxSgA2=     5.
 Leave Link  302 at Mon Mar 21 20:12:04 2022, MaxMem=  8589934592 cpu:               0.9 elap:               0.1
 (Enter /home/sabyasachi/g16/l303.exe)
 DipDrv:  MaxL=1.
 Leave Link  303 at Mon Mar 21 20:12:04 2022, MaxMem=  8589934592 cpu:               0.2 elap:               0.1
 (Enter /home/sabyasachi/g16/l308.exe)
 Leave Link  308 at Mon Mar 21 20:12:04 2022, MaxMem=  8589934592 cpu:               0.2 elap:               0.0
 (Enter /home/sabyasachi/g16/l401.exe)
 ExpMin= 6.71D-02 ExpMax= 2.89D+03 ExpMxC= 4.35D+02 IAcc=3 IRadAn=         5 AccDes= 0.00D+00
 Harris functional with IExCor= 1009 and IRadAn=       5 diagonalized for initial guess.
 HarFok:  IExCor= 1009 AccDes= 0.00D+00 IRadAn=         5 IDoV= 1 UseB2=F ITyADJ=14
 ICtDFT=  3500011 ScaDFX=  1.000000  1.000000  1.000000  1.000000
 FoFCou: FMM=F IPFlag=           0 FMFlag=      100000 FMFlg1=           0
         NFxFlg=           0 DoJE=T BraDBF=F KetDBF=T FulRan=T
         wScrn=  0.000000 ICntrl=       500 IOpCl=  0 I1Cent=   200000004 NGrid=           0
         NMat0=    1 NMatS0=      1 NMatT0=    0 NMatD0=    1 NMtDS0=    0 NMtDT0=    0
 Petite list used in FoFCou.
 Harris En= -139.515084539243    
 JPrj=0 DoOrth=F DoCkMO=F.
 Leave Link  401 at Mon Mar 21 20:12:05 2022, MaxMem=  8589934592 cpu:               1.8 elap:               0.2
 (Enter /home/sabyasachi/g16/l502.exe)
 Keep J ints in memory in canonical form, NReq=9744729.
 FoFCou: FMM=F IPFlag=           0 FMFlag=           0 FMFlg1=           0
         NFxFlg=           0 DoJE=F BraDBF=F KetDBF=F FulRan=T
         wScrn=  0.000000 ICntrl=       600 IOpCl=  0 I1Cent=           0 NGrid=           0
         NMat0=    1 NMatS0=   2278 NMatT0=    0 NMatD0=    1 NMtDS0=    0 NMtDT0=    0
 Symmetry not used in FoFCou.
 Two-electron integral symmetry not used.
 Closed shell SCF:
 Using DIIS extrapolation, IDIIS=  1040.
 NGot=  8589934592 LenX=  8587327203 LenY=  8587321721
 Requested convergence on RMS density matrix=1.00D-08 within 100 cycles.
 Requested convergence on MAX density matrix=1.00D-06.
 Requested convergence on             energy=1.00D-06.
 No special actions if energy rises.
 Integral accuracy reduced to 1.0D-05 until final iterations.

 Cycle   1  Pass 0  IDiag  1:
 E= -139.466212220372    
 DIIS: error= 1.69D-02 at cycle   1 NSaved=   1.
 NSaved= 1 IEnMin= 1 EnMin= -139.466212220372     IErMin= 1 ErrMin= 1.69D-02
 ErrMax= 1.69D-02  0.00D+00 EMaxC= 1.00D-01 BMatC= 2.17D-02 BMatP= 2.17D-02
 IDIUse=3 WtCom= 8.31D-01 WtEn= 1.69D-01
 Coeff-Com:  0.100D+01
 Coeff-En:   0.100D+01
 Coeff:      0.100D+01
 Gap=     0.295 Goal=   None    Shift=    0.000
 GapD=    0.295 DampG=1.000 DampE=0.500 DampFc=0.5000 IDamp=-1.
 Damping current iteration by 5.00D-01
 RMSDP=4.41D-03 MaxDP=8.85D-02              OVMax= 9.47D-02

 Cycle   2  Pass 0  IDiag  1:
 E= -139.476086250723     Delta-E=       -0.009874030350 Rises=F Damp=T
 DIIS: error= 4.34D-03 at cycle   2 NSaved=   2.
 NSaved= 2 IEnMin= 2 EnMin= -139.476086250723     IErMin= 2 ErrMin= 4.34D-03
 ErrMax= 4.34D-03  0.00D+00 EMaxC= 1.00D-01 BMatC= 1.94D-03 BMatP= 2.17D-02
 IDIUse=3 WtCom= 9.57D-01 WtEn= 4.34D-02
 Coeff-Com:  0.142D+00 0.858D+00
 Coeff-En:   0.193D+00 0.807D+00
 Coeff:      0.144D+00 0.856D+00
 Gap=     0.307 Goal=   None    Shift=    0.000
 RMSDP=8.87D-04 MaxDP=1.35D-02 DE=-9.87D-03 OVMax= 5.45D-02

 Cycle   3  Pass 0  IDiag  1:
 E= -139.490354816882     Delta-E=       -0.014268566159 Rises=F Damp=F
 DIIS: error= 2.37D-03 at cycle   3 NSaved=   3.
 NSaved= 3 IEnMin= 3 EnMin= -139.490354816882     IErMin= 3 ErrMin= 2.37D-03
 ErrMax= 2.37D-03  0.00D+00 EMaxC= 1.00D-01 BMatC= 5.06D-04 BMatP= 1.94D-03
 IDIUse=3 WtCom= 9.76D-01 WtEn= 2.37D-02
 Coeff-Com:  0.293D-01 0.325D+00 0.646D+00
 Coeff-En:   0.000D+00 0.000D+00 0.100D+01
 Coeff:      0.286D-01 0.317D+00 0.654D+00
 Gap=     0.303 Goal=   None    Shift=    0.000
 RMSDP=3.34D-04 MaxDP=5.73D-03 DE=-1.43D-02 OVMax= 9.33D-03

 Cycle   4  Pass 0  IDiag  1:
 E= -139.490565024045     Delta-E=       -0.000210207163 Rises=F Damp=F
 DIIS: error= 1.69D-03 at cycle   4 NSaved=   4.
 NSaved= 4 IEnMin= 4 EnMin= -139.490565024045     IErMin= 4 ErrMin= 1.69D-03
 ErrMax= 1.69D-03  0.00D+00 EMaxC= 1.00D-01 BMatC= 2.30D-04 BMatP= 5.06D-04
 IDIUse=3 WtCom= 9.83D-01 WtEn= 1.69D-02
 Coeff-Com:  0.154D-01 0.153D+00 0.433D+00 0.399D+00
 Coeff-En:   0.000D+00 0.000D+00 0.299D+00 0.701D+00
 Coeff:      0.151D-01 0.150D+00 0.430D+00 0.404D+00
 Gap=     0.305 Goal=   None    Shift=    0.000
 RMSDP=1.55D-04 MaxDP=3.27D-03 DE=-2.10D-04 OVMax= 4.32D-03

 Cycle   5  Pass 0  IDiag  1:
 E= -139.490718434416     Delta-E=       -0.000153410371 Rises=F Damp=F
 DIIS: error= 2.43D-04 at cycle   5 NSaved=   5.
 NSaved= 5 IEnMin= 5 EnMin= -139.490718434416     IErMin= 5 ErrMin= 2.43D-04
 ErrMax= 2.43D-04  0.00D+00 EMaxC= 1.00D-01 BMatC= 4.23D-06 BMatP= 2.30D-04
 IDIUse=3 WtCom= 9.98D-01 WtEn= 2.43D-03
 Coeff-Com:  0.379D-02 0.142D-01 0.103D+00 0.158D+00 0.721D+00
 Coeff-En:   0.000D+00 0.000D+00 0.000D+00 0.000D+00 0.100D+01
 Coeff:      0.378D-02 0.142D-01 0.102D+00 0.158D+00 0.722D+00
 Gap=     0.305 Goal=   None    Shift=    0.000
 RMSDP=2.78D-05 MaxDP=4.66D-04 DE=-1.53D-04 OVMax= 5.15D-04

 Cycle   6  Pass 0  IDiag  1:
 E= -139.490721917221     Delta-E=       -0.000003482805 Rises=F Damp=F
 DIIS: error= 1.01D-05 at cycle   6 NSaved=   6.
 NSaved= 6 IEnMin= 6 EnMin= -139.490721917221     IErMin= 6 ErrMin= 1.01D-05
 ErrMax= 1.01D-05  0.00D+00 EMaxC= 1.00D-01 BMatC= 5.44D-09 BMatP= 4.23D-06
 IDIUse=1 WtCom= 1.00D+00 WtEn= 0.00D+00
 Coeff-Com:  0.542D-03 0.165D-02 0.158D-01 0.263D-01 0.138D+00 0.817D+00
 Coeff:      0.542D-03 0.165D-02 0.158D-01 0.263D-01 0.138D+00 0.817D+00
 Gap=     0.305 Goal=   None    Shift=    0.000
 RMSDP=1.62D-06 MaxDP=1.67D-05 DE=-3.48D-06 OVMax= 2.92D-05

 Initial convergence to 1.0D-05 achieved.  Increase integral accuracy.
 Cycle   7  Pass 1  IDiag  1:
 E= -139.490720400021     Delta-E=        0.000001517201 Rises=F Damp=F
 DIIS: error= 1.33D-06 at cycle   1 NSaved=   1.
 NSaved= 1 IEnMin= 1 EnMin= -139.490720400021     IErMin= 1 ErrMin= 1.33D-06
 ErrMax= 1.33D-06  0.00D+00 EMaxC= 1.00D-01 BMatC= 2.32D-10 BMatP= 2.32D-10
 IDIUse=1 WtCom= 1.00D+00 WtEn= 0.00D+00
 Coeff-Com:  0.100D+01
 Coeff:      0.100D+01
 Gap=     0.305 Goal=   None    Shift=    0.000
 RMSDP=1.62D-06 MaxDP=1.67D-05 DE= 1.52D-06 OVMax= 7.74D-06

 Cycle   8  Pass 1  IDiag  1:
 E= -139.490720400195     Delta-E=       -0.000000000174 Rises=F Damp=F
 DIIS: error= 1.28D-06 at cycle   2 NSaved=   2.
 NSaved= 2 IEnMin= 2 EnMin= -139.490720400195     IErMin= 2 ErrMin= 1.28D-06
 ErrMax= 1.28D-06  0.00D+00 EMaxC= 1.00D-01 BMatC= 1.50D-10 BMatP= 2.32D-10
 IDIUse=1 WtCom= 1.00D+00 WtEn= 0.00D+00
 Coeff-Com:  0.428D+00 0.572D+00
 Coeff:      0.428D+00 0.572D+00
 Gap=     0.305 Goal=   None    Shift=    0.000
 RMSDP=2.16D-07 MaxDP=3.70D-06 DE=-1.74D-10 OVMax= 5.33D-06

 Cycle   9  Pass 1  IDiag  1:
 E= -139.490720400266     Delta-E=       -0.000000000072 Rises=F Damp=F
 DIIS: error= 9.70D-07 at cycle   3 NSaved=   3.
 NSaved= 3 IEnMin= 3 EnMin= -139.490720400266     IErMin= 3 ErrMin= 9.70D-07
 ErrMax= 9.70D-07  0.00D+00 EMaxC= 1.00D-01 BMatC= 7.42D-11 BMatP= 1.50D-10
 IDIUse=1 WtCom= 1.00D+00 WtEn= 0.00D+00
 Coeff-Com:  0.954D-01 0.398D+00 0.507D+00
 Coeff:      0.954D-01 0.398D+00 0.507D+00
 Gap=     0.305 Goal=   None    Shift=    0.000
 RMSDP=7.86D-08 MaxDP=1.71D-06 DE=-7.17D-11 OVMax= 1.90D-06

 Cycle  10  Pass 1  IDiag  1:
 E= -139.490720400313     Delta-E=       -0.000000000047 Rises=F Damp=F
 DIIS: error= 1.54D-07 at cycle   4 NSaved=   4.
 NSaved= 4 IEnMin= 4 EnMin= -139.490720400313     IErMin= 4 ErrMin= 1.54D-07
 ErrMax= 1.54D-07  0.00D+00 EMaxC= 1.00D-01 BMatC= 1.37D-12 BMatP= 7.42D-11
 IDIUse=1 WtCom= 1.00D+00 WtEn= 0.00D+00
 Coeff-Com:  0.143D-01 0.147D+00 0.212D+00 0.626D+00
 Coeff:      0.143D-01 0.147D+00 0.212D+00 0.626D+00
 Gap=     0.305 Goal=   None    Shift=    0.000
 RMSDP=2.24D-08 MaxDP=5.19D-07 DE=-4.69D-11 OVMax= 4.24D-07

 Cycle  11  Pass 1  IDiag  1:
 E= -139.490720400314     Delta-E=       -0.000000000001 Rises=F Damp=F
 DIIS: error= 6.04D-08 at cycle   5 NSaved=   5.
 NSaved= 5 IEnMin= 5 EnMin= -139.490720400314     IErMin= 5 ErrMin= 6.04D-08
 ErrMax= 6.04D-08  0.00D+00 EMaxC= 1.00D-01 BMatC= 2.44D-13 BMatP= 1.37D-12
 IDIUse=1 WtCom= 1.00D+00 WtEn= 0.00D+00
 Coeff-Com: -0.113D-02 0.460D-01 0.682D-01 0.348D+00 0.539D+00
 Coeff:     -0.113D-02 0.460D-01 0.682D-01 0.348D+00 0.539D+00
 Gap=     0.305 Goal=   None    Shift=    0.000
 RMSDP=6.31D-09 MaxDP=1.59D-07 DE=-9.95D-13 OVMax= 1.52D-07

 SCF Done:  E(RPBE-PBE) =  -139.490720400     A.U. after   11 cycles
            NFock= 11  Conv=0.63D-08     -V/T= 2.0077
 KE= 1.384204384066D+02 PE=-4.045747129016D+02 EE= 8.923850604099D+01
 Leave Link  502 at Mon Mar 21 20:12:06 2022, MaxMem=  8589934592 cpu:               7.8 elap:               1.0
 (Enter /home/sabyasachi/g16/l801.exe)
 DoSCS=F DFT=T ScalE2(SS,OS)=  1.000000  1.000000
 ExpMin= 6.71D-02 ExpMax= 2.89D+03 ExpMxC= 4.35D+02 IAcc=3 IRadAn=         5 AccDes= 0.00D+00
 HarFok:  IExCor=  205 AccDes= 0.00D+00 IRadAn=         5 IDoV=-2 UseB2=F ITyADJ=14
 ICtDFT= 12500011 ScaDFX=  1.000000  1.000000  1.000000  1.000000
 Largest valence mixing into a core orbital is  6.75D-05
 Largest core mixing into a valence orbital is  1.39D-05
 Range of M.O.s used for correlation:     3    67
 NBasis=    67 NAE=     9 NBE=     9 NFC=     2 NFV=     0
 NROrb=     65 NOA=     7 NOB=     7 NVA=    58 NVB=    58

 **** Warning!!: The largest alpha MO coefficient is  0.22084557D+02

 Leave Link  801 at Mon Mar 21 20:12:06 2022, MaxMem=  8589934592 cpu:               0.4 elap:               0.1
 (Enter /home/sabyasachi/g16/l914.exe)
 RHF ground state
 Keep J ints in memory in canonical form, NReq=194285701.
 FoFCou: FMM=F IPFlag=           0 FMFlag=           0 FMFlg1=           0
         NFxFlg=           0 DoJE=F BraDBF=F KetDBF=F FulRan=T
         wScrn=  0.000000 ICntrl=       600 IOpCl=  0 I1Cent=           0 NGrid=           0
         NMat0=    1 NMatS0=   2278 NMatT0=    0 NMatD0=    1 NMtDS0=    0 NMtDT0=    0
 Symmetry not used in FoFCou.
 Two-electron integral symmetry not used.
 MDV=  8589934592 DFT=T DoStab=F Mixed=F DoRPA=T DoScal=T NonHer=F
 Making orbital integer symmetry assigments:
 Orbital symmetries:
       Occupied  (A) (A) (A) (A) (A) (A) (A) (A) (A)
       Virtual   (A) (A) (A) (A) (A) (A) (A) (A) (A) (A) (A) (A)
                 (A) (A) (A) (A) (A) (A) (A) (A) (A) (A) (A) (A)
                 (A) (A) (A) (A) (A) (A) (A) (A) (A) (A) (A) (A)
                 (A) (A) (A) (A) (A) (A) (A) (A) (A) (A) (A) (A)
                 (A) (A) (A) (A) (A) (A) (A) (A) (A) (A)
   406 initial guesses have been made.
 Convergence on wavefunction:    0.001000000000000
 Davidson Disk Diagonalization:  ConvIn= 1.00D-03 SkipCon=T Conv= 1.00D-03.
 Max sub-space:  1624 roots to seek:   812 dimension of matrix:          812
 *** WARNING: Number of orthogonal guesses is          406
 Iteration     1 Dimension   406 NMult     0 NNew    406
 CISAX will form   406 AO SS matrices at one time.
 NMat=   406 NSing=   406 JSym2X= 0.
 New state      7 was old state      8
 New state      8 was old state      7
 New state      9 was old state     12
 New state     10 was old state      9
 New state     11 was old state     10
 New state     12 was old state     11
 New state     17 was old state     18
 New state     18 was old state     19
 New state     19 was old state     21
 New state     20 was old state     17
 New state     21 was old state     20
 New state     26 was old state     27
 New state     27 was old state     28
 New state     28 was old state     29
 New state     29 was old state     30
 New state     30 was old state     31
 New state     31 was old state     32
 New state     32 was old state     26
 New state     35 was old state     38
 New state     36 was old state     35
 New state     37 was old state     36
 New state     38 was old state     40
 New state     39 was old state     42
 New state     40 was old state     43
 New state     41 was old state     44
 New state     42 was old state     45
 New state     43 was old state     41
 New state     44 was old state     47
 New state     45 was old state     46
 New state     46 was old state     39
 New state     47 was old state     48
 New state     48 was old state     66
 New state     49 was old state     51
 New state     51 was old state     52
 New state     52 was old state     53
 New state     53 was old state     49
 New state     58 was old state     60
 New state     59 was old state     58
 New state     60 was old state     59
 New state     66 was old state     69
 New state     69 was old state     71
 New state     71 was old state     72
 New state     72 was old state     74
 New state     73 was old state     75
 New state     74 was old state     73
 New state     75 was old state     79
 New state     76 was old state     78
 New state     77 was old state     80
 New state     78 was old state     76
 New state     79 was old state     77
 New state     80 was old state     81
 New state     81 was old state    103
 New state     82 was old state     84
 New state     83 was old state     85
 New state     84 was old state     82
 New state     85 was old state     83
 New state     89 was old state     92
 New state     90 was old state     93
 New state     91 was old state     95
 New state     92 was old state     90
 New state     93 was old state     91
 New state     94 was old state     89
 New state     95 was old state     98
 New state     96 was old state     99
 New state     97 was old state    100
 New state     98 was old state    101
 New state     99 was old state    102
 New state    100 was old state    104
 New state    101 was old state     96
 New state    102 was old state     94
 New state    103 was old state     97
 New state    104 was old state    105
 New state    105 was old state    106
 New state    106 was old state    107
 New state    107 was old state    108
 New state    108 was old state    110
 New state    110 was old state    111
 New state    111 was old state    112
 New state    112 was old state    113
 New state    113 was old state    114
 New state    114 was old state    115
 New state    115 was old state    116
 New state    116 was old state    117
 New state    117 was old state    118
 New state    118 was old state    120
 New state    120 was old state    131
 New state    122 was old state    124
 New state    124 was old state    125
 New state    125 was old state    126
 New state    126 was old state    127
 New state    127 was old state    128
 New state    128 was old state    129
 New state    129 was old state    130
 New state    130 was old state    122
 New state    131 was old state    133
 New state    132 was old state    136
 New state    133 was old state    132
 New state    134 was old state    135
 New state    135 was old state    134
 New state    136 was old state    137
 New state    137 was old state    138
 New state    138 was old state    149
 New state    139 was old state    142
 New state    140 was old state    139
 New state    141 was old state    140
 New state    142 was old state    141
 New state    149 was old state    151
 New state    151 was old state    153
 New state    153 was old state    154
 New state    154 was old state    157
 New state    155 was old state    158
 New state    156 was old state    162
 New state    157 was old state    159
 New state    158 was old state    160
 New state    159 was old state    156
 New state    160 was old state    155
 New state    162 was old state    163
 New state    163 was old state    165
 New state    165 was old state    166
 New state    166 was old state    167
 New state    167 was old state    170
 New state    168 was old state    171
 New state    169 was old state    168
 New state    170 was old state    169
 New state    171 was old state    174
 New state    172 was old state    175
 New state    174 was old state    172
 New state    175 was old state    176
 New state    176 was old state    177
 New state    177 was old state    178
 New state    178 was old state    191
 New state    179 was old state    180
 New state    180 was old state    179
 New state    181 was old state    182
 New state    182 was old state    187
 New state    183 was old state    186
 New state    184 was old state    185
 New state    185 was old state    183
 New state    186 was old state    184
 New state    187 was old state    188
 New state    188 was old state    181
 New state    191 was old state    193
 New state    192 was old state    196
 New state    193 was old state    197
 New state    194 was old state    192
 New state    195 was old state    200
 New state    196 was old state    198
 New state    197 was old state    199
 New state    198 was old state    202
 New state    199 was old state    203
 New state    200 was old state    201
 New state    201 was old state    194
 New state    202 was old state    195
 New state    203 was old state    208
 New state    204 was old state    206
 New state    205 was old state    209
 New state    206 was old state    204
 New state    207 was old state    205
 New state    208 was old state    207
 New state    209 was old state    210
 New state    210 was old state    211
 New state    211 was old state    212
 New state    212 was old state    213
 New state    213 was old state    214
 New state    214 was old state    215
 New state    215 was old state    216
 New state    216 was old state    217
 New state    217 was old state    218
 New state    218 was old state    219
 New state    219 was old state    220
 New state    220 was old state    221
 New state    221 was old state    222
 New state    222 was old state    224
 New state    224 was old state    227
 New state    227 was old state    228
 No map to state    228
 New state    237 was old state    238
 New state    238 was old state    240
 New state    240 was old state    237
 New state    243 was old state    244
 New state    244 was old state    246
 New state    246 was old state    248
 New state    248 was old state    251
 New state    250 was old state    252
 New state    251 was old state    250
 New state    252 was old state    253
 New state    253 was old state    254
 New state    254 was old state    255
 New state    255 was old state    258
 New state    258 was old state    261
 New state    261 was old state    264
 New state    264 was old state    265
 New state    265 was old state    266
 New state    266 was old state    267
 New state    267 was old state    268
 New state    268 was old state    271
 New state    271 was old state    277
 New state    277 was old state    278
 New state    278 was old state    280
 New state    279 was old state    281
 New state    280 was old state    279
 New state    281 was old state    282
 New state    282 was old state    283
 New state    283 was old state    295
 New state    288 was old state    289
 New state    289 was old state    290
 New state    290 was old state    288
 New state    295 was old state    296
 New state    296 was old state    297
 New state    297 was old state    298
 New state    298 was old state    299
 New state    299 was old state    300
 New state    300 was old state    305
 New state    305 was old state    307
 New state    307 was old state    308
 New state    308 was old state    309
 New state    309 was old state    310
 New state    310 was old state    311
 New state    311 was old state    312
 New state    312 was old state    313
 New state    313 was old state    314
 New state    314 was old state    315
 New state    315 was old state    331
 New state    321 was old state    324
 New state    322 was old state    325
 New state    323 was old state    326
 New state    324 was old state    323
 New state    325 was old state    322
 New state    326 was old state    321
 New state    327 was old state    328
 New state    328 was old state    327
 New state    331 was old state    332
 New state    332 was old state    335
 New state    335 was old state    337
 New state    337 was old state    338
 New state    338 was old state    339
 New state    339 was old state    357
 New state    342 was old state    343
 New state    343 was old state    344
 New state    344 was old state    342
 New state    349 was old state    350
 New state    350 was old state    351
 New state    351 was old state    349
 New state    354 was old state    355
 New state    355 was old state    354
 New state    357 was old state    358
 New state    358 was old state    359
 New state    359 was old state    362
 New state    362 was old state    363
 New state    363 was old state    364
 No map to state    364
 New state    373 was old state    374
 New state    374 was old state    373
 New state    376 was old state    380
 New state    377 was old state    379
 New state    378 was old state    381
 New state    379 was old state    382
 New state    380 was old state    376
 New state    381 was old state    383
 New state    382 was old state    388
 New state    383 was old state    389
 New state    384 was old state    386
 New state    385 was old state    384
 New state    386 was old state    385
 New state    388 was old state    390
 New state    389 was old state    391
 New state    390 was old state    394
 New state    391 was old state    395
 New state    394 was old state    396
 New state    395 was old state    397
 New state    396 was old state    398
 New state    397 was old state    399
 New state    398 was old state    378
 New state    399 was old state    377
 New state    401 was old state    403
 New state    402 was old state    401
 New state    403 was old state    402
 Excitation Energies [eV] at current iteration:
 Root      1 :     8.347390101087150
 Root      2 :     8.347431101020257
 Root      3 :     9.149558762517415
 Root      4 :     9.149599580551367
 Root      5 :    10.267747242574830
 Root      6 :    10.296830524439010
 Root      7 :    10.296832341725370
 Root      8 :    10.509196584354640
 Root      9 :    11.521209474156430
 Root     10 :    11.555883214634390
 Root     11 :    11.555942698007620
 Root     12 :    11.722082019221260
 Root     13 :    11.795722186328780
 Root     14 :    11.795729582375100
 Root     15 :    12.075540653928190
 Root     16 :    12.075614461136910
 Root     17 :    12.443765292362140
 Root     18 :    12.445533955273100
 Root     19 :    12.445535253753440
 Root     20 :    12.473797831453700
 Root     21 :    12.827758103547170
 Root     22 :    12.889711809989640
 Root     23 :    12.889789834455170
 Root     24 :    13.812707407203590
 Root     25 :    13.910361610002440
 Root     26 :    13.990850312751870
 Root     27 :    13.990853548322550
 Root     28 :    14.167152788280490
 Root     29 :    14.167192492729390
 Root     30 :    14.337647630558780
 Root     31 :    14.337667015746550
 Root     32 :    14.742838596360290
 Root     33 :    15.055668572971280
 Root     34 :    15.055701291288160
 Root     35 :    15.185805736755330
 Root     36 :    15.216994655654680
 Root     37 :    15.217081935314110
 Root     38 :    15.299726983661520
 Root     39 :    15.625320787606080
 Root     40 :    15.625373325076330
 Root     41 :    15.680220634207540
 Root     42 :    15.680242283196820
 Root     43 :    15.847250604714330
 Root     44 :    15.871698834513770
 Root     45 :    15.908977777218820
 Root     46 :    15.908980679087560
 Root     47 :    16.088974831061520
 Root     48 :    16.097805280496520
 Root     49 :    16.146249494548780
 Root     50 :    16.146256654882930
 Root     51 :    16.299659643239490
 Root     52 :    16.299699396609580
 Root     53 :    16.364442296063910
 Root     54 :    16.498789137964610
 Root     55 :    16.498832001705900
 Root     56 :    16.947798783287180
 Root     57 :    16.947839471752410
 Root     58 :    17.120826768933880
 Root     59 :    17.291886490256210
 Root     60 :    17.291888493326650
 Root     61 :    17.328719481059070
 Root     62 :    17.686558128867080
 Root     63 :    17.824131192938030
 Root     64 :    17.824203405572610
 Root     65 :    18.440896235357200
 Root     66 :    18.587083378212960
 Root     67 :    18.630713964409920
 Root     68 :    18.630737640101320
 Root     69 :    18.637578244859940
 Root     70 :    18.774963456572430
 Root     71 :    18.775015255532600
 Root     72 :    18.999248215248600
 Root     73 :    18.999287718241620
 Root     74 :    19.067794662163230
 Root     75 :    19.494549507566130
 Root     76 :    19.494558350308570
 Root     77 :    19.513450295346970
 Root     78 :    19.581690094570290
 Root     79 :    19.581700845133270
 Root     80 :    19.607605921297600
 Root     81 :    19.791312398179660
 Root     82 :    19.911451239499690
 Root     83 :    19.911492374778430
 Root     84 :    19.937806640427260
 Root     85 :    19.937827095998910
 Root     86 :    20.076145722912070
 Root     87 :    20.076211765808160
 Root     88 :    20.406412478804540
 Root     89 :    20.584295784964550
 Root     90 :    20.584358822546140
 Root     91 :    20.758472467869500
 Root     92 :    20.809438193548360
 Root     93 :    20.809469337162030
 Root     94 :    20.846115651011000
 Root     95 :    21.010228094755420
 Root     96 :    21.058449257568720
 Root     97 :    21.058475318820310
 Root     98 :    21.148913147412240
 Root     99 :    21.236265745970880
 Root    100 :    21.236284177738370
 Root    101 :    21.396555429356070
 Root    102 :    21.396568394064810
 Root    103 :    21.409564491813000
 Root    104 :    21.550890193509910
 Root    105 :    21.550940920625430
 Root    106 :    22.227643779405320
 Root    107 :    22.350952080641600
 Root    108 :    22.350961584141880
 Root    109 :    22.464519277644450
 Root    110 :    22.609076685114440
 Root    111 :    22.609135332324540
 Root    112 :    22.686895962774830
 Root    113 :    22.686949661402910
 Root    114 :    22.957258555900390
 Root    115 :    23.084671326814850
 Root    116 :    23.545513247922030
 Root    117 :    23.545585328475620
 Root    118 :    23.724788595391470
 Root    119 :    24.389784121309570
 Root    120 :    24.413421793851540
 Root    121 :    24.795829578570220
 Root    122 :    24.865748557766840
 Root    123 :    24.865760435549170
 Root    124 :    24.967102152320470
 Root    125 :    24.967119502467200
 Root    126 :    25.139309925292950
 Root    127 :    25.139334724463160
 Root    128 :    25.268645936529370
 Root    129 :    25.268672622724140
 Root    130 :    25.486641012467860
 Root    131 :    25.818870608500290
 Root    132 :    26.019286678372810
 Root    133 :    26.075367231632320
 Root    134 :    26.349065277591010
 Root    135 :    26.349100295881850
 Root    136 :    26.482215253238470
 Root    137 :    26.482251844934470
 Root    138 :    26.590802141035630
 Root    139 :    27.686786198772100
 Root    140 :    27.753736406649710
 Root    141 :    27.753783737656300
 Root    142 :    27.965384586465730
 Root    143 :    27.965404345203120
 Root    144 :    28.001998112460060
 Root    145 :    28.028791831801530
 Root    146 :    28.845509371554690
 Root    147 :    28.845578509356710
 Root    148 :    29.092162704582410
 Root    149 :    29.470681173604320
 Root    150 :    29.557849157063720
 Root    151 :    29.694649180317890
 Root    152 :    29.694652505865030
 Root    153 :    29.706928750233880
 Root    154 :    29.952052499013030
 Root    155 :    29.952147016057940
 Root    156 :    30.046793556988430
 Root    157 :    30.371284554971070
 Root    158 :    30.371312443305730
 Root    159 :    30.516956620968450
 Root    160 :    30.516960216234590
 Root    161 :    30.973370080073820
 Root    162 :    31.333101089597140
 Root    163 :    31.410703806180940
 Root    164 :    31.410708316026620
 Root    165 :    31.630983516734060
 Root    166 :    31.631003538976420
 Root    167 :    31.779311249785170
 Root    168 :    31.828206269747820
 Root    169 :    31.846978938690060
 Root    170 :    31.847003428068820
 Root    171 :    32.052146970566040
 Root    172 :    32.052172998988380
 Root    173 :    32.431952452480740
 Root    174 :    32.431985634175130
 Root    175 :    32.868914343818370
 Root    176 :    32.988406103544120
 Root    177 :    32.988437793952920
 Root    178 :    33.040153459925070
 Root    179 :    33.136505501671310
 Root    180 :    33.136507938186210
 Root    181 :    33.194102815901300
 Root    182 :    33.899660003649720
 Root    183 :    33.952289858746540
 Root    184 :    33.952308467445830
 Root    185 :    33.988821558990180
 Root    186 :    33.988845459366210
 Root    187 :    34.178091494033130
 Root    188 :    34.798373438757910
 Root    189 :    35.294767909850810
 Root    190 :    35.294834871246050
 Root    191 :    35.462674394757960
 Root    192 :    35.596575628336270
 Root    193 :    35.596658575737640
 Root    194 :    35.746145025624560
 Root    195 :    35.869706627572320
 Root    196 :    35.897100862171890
 Root    197 :    35.897250094117770
 Root    198 :    36.186488989176950
 Root    199 :    36.186517461570140
 Root    200 :    36.325057946894130
 Root    201 :    36.527958935670780
 Root    202 :    36.527990244474860
 Root    203 :    36.760405861545940
 Root    204 :    36.760407838278940
 Root    205 :    36.837332295759100
 Root    206 :    36.870010795585970
 Root    207 :    36.870021980143680
 Root    208 :    37.130289126395130
 Root    209 :    37.222060758231150
 Root    210 :    37.222084589021790
 Root    211 :    37.313717155861670
 Root    212 :    37.313762252869850
 Root    213 :    37.790423364126840
 Root    214 :    38.331294087294860
 Root    215 :    38.546293970591340
 Root    216 :    38.546336683390790
 Root    217 :    38.602838261464750
 Root    218 :    39.914052025655000
 Root    219 :    39.914120312972730
 Root    220 :    40.035598479635480
 Root    221 :    40.035655502395090
 Root    222 :    40.287330554632430
 Root    223 :    40.510764836053570
 Root    224 :    41.077621882729840
 Root    225 :    41.216686038856860
 Root    226 :    41.216826037405660
 Root    227 :    41.389322924563700
 Root    228 :    41.536628443715670
 Root    229 :    42.454305125775700
 Root    230 :    42.454353803684600
 Root    231 :    42.713157055439690
 Root    232 :    42.713182280948670
 Root    233 :    46.106565801012810
 Root    234 :    47.103900150979440
 Root    235 :    47.322765113441560
 Root    236 :    47.322849446528330
 Root    237 :    47.536717489604890
 Root    238 :    47.691064140227780
 Root    239 :    47.691065887586250
 Root    240 :    48.507637109277070
 Root    241 :    49.260474105036830
 Root    242 :    49.260481090735290
 Root    243 :    50.890847197750350
 Root    244 :    50.919333168379700
 Root    245 :    50.919401348727900
 Root    246 :    51.085962391422100
 Root    247 :    51.086003523431880
 Root    248 :    51.191610620405060
 Root    249 :    51.202867064700750
 Root    250 :    51.415441074345400
 Root    251 :    51.415448127104540
 Root    252 :    51.549151134422000
 Root    253 :    51.966038107801450
 Root    254 :    51.966176744107640
 Root    255 :    53.234897593973480
 Root    256 :    53.340543349875230
 Root    257 :    53.340681291765930
 Root    258 :    53.754086810004830
 Root    259 :    54.104048055462960
 Root    260 :    54.104099742886160
 Root    261 :    54.518160221186240
 Root    262 :    54.518199513504070
 Root    263 :    54.541298275735890
 Root    264 :    54.568092200523480
 Root    265 :    54.568128163298110
 Root    266 :    54.801347505377400
 Root    267 :    54.801381310183440
 Root    268 :    54.973396118263000
 Root    269 :    55.021739310061570
 Root    270 :    55.021821472631160
 Root    271 :    55.781190747458570
 Root    272 :    57.126974206040220
 Root    273 :    57.127110759822490
 Root    274 :    57.584087996349420
 Root    275 :    57.584161147801780
 Root    276 :    57.692960224608820
 Root    277 :    57.915262424622720
 Root    278 :    58.008767670970640
 Root    279 :    58.008822704127490
 Root    280 :    58.070933446304960
 Root    281 :    59.003044328856150
 Root    282 :    59.003065700272600
 Root    283 :    59.932009090404310
 Root    284 :    60.080105131296640
 Root    285 :    60.080213525556230
 Root    286 :    60.126583049978930
 Root    287 :    61.590844274201360
 Root    288 :    61.668303284712790
 Root    289 :    61.668384611661170
 Root    290 :    61.763224604725610
 Root    291 :    62.092840310347740
 Root    292 :    62.093049741057170
 Root    293 :    62.641851807957040
 Root    294 :    62.641942153631500
 Root    295 :    62.981515185053820
 Root    296 :    63.473917363517100
 Root    297 :    63.483088905144210
 Root    298 :    63.490398143631370
 Root    299 :    63.490402433909540
 Root    300 :    66.396754548495350
 Root    301 :    66.745173252586940
 Root    302 :    66.745214907150820
 Root    303 :    67.058328846957880
 Root    304 :    67.058419095348090
 Root    305 :    67.111736408456180
 Root    306 :    67.196105073418310
 Root    307 :    67.196322489761170
 Root    308 :    67.636985279666110
 Root    309 :    67.637194923336590
 Root    310 :    67.891444380777370
 Root    311 :    68.251211671408190
 Root    312 :    68.251269642875830
 Root    313 :    68.993757627286440
 Root    314 :    68.993890108027000
 Root    315 :    68.997955328726060
 Root    316 :    70.456174464846410
 Root    317 :    70.456248481616340
 Root    318 :    71.520824638046340
 Root    319 :    71.770881972772730
 Root    320 :    71.770949137100160
 Root    321 :    72.259968131699590
 Root    322 :    72.499018833473640
 Root    323 :    72.499098357310370
 Root    324 :    72.559770856890860
 Root    325 :    72.724001156610680
 Root    326 :    72.724109148982760
 Root    327 :    73.534413442009250
 Root    328 :    73.743530388494250
 Root    329 :    73.743536147728010
 Root    330 :    73.879844690446570
 Root    331 :    75.830752584755880
 Root    332 :    77.108860461507330
 Root    333 :    77.149641545351500
 Root    334 :    77.385774461828860
 Root    335 :    77.466692888525530
 Root    336 :    77.466767078096820
 Root    337 :    77.936114019163820
 Root    338 :    77.936502302405840
 Root    339 :    78.534608043808990
 Root    340 :    79.346755392002850
 Root    341 :    79.347098170836820
 Root    342 :    80.743739632910220
 Root    343 :    80.743784457929000
 Root    344 :    80.747337187850160
 Root    345 :    82.707247314182080
 Root    346 :    82.707713156092590
 Root    347 :    84.388346422166320
 Root    348 :    84.388419954926800
 Root    349 :    84.999124480725970
 Root    350 :    84.999364001783230
 Root    351 :    85.050701661739850
 Root    352 :    87.472419907065740
 Root    353 :    87.480281321689570
 Root    354 :    87.480290641542890
 Root    355 :    87.623011675131850
 Root    356 :    88.667550327488070
 Root    357 :    90.017202160336200
 Root    358 :    91.010207459547430
 Root    359 :    91.291626781317040
 Root    360 :    91.291643715278680
 Root    361 :    91.317490923966300
 Root    362 :    91.474515101023260
 Root    363 :    91.475015362376890
 Root    364 :    91.689274964722860
 Root    365 :    95.184900429414740
 Root    366 :    95.185370009666540
 Root    367 :    96.480903012173530
 Root    368 :    96.481405252973620
 Root    369 :    97.560476504837450
 Root    370 :    97.564872811864720
 Root    371 :    99.224139798199200
 Root    372 :    99.224140934682590
 Root    373 :   100.070796150581000
 Root    374 :   100.070796799031800
 Root    375 :   100.101146731951500
 Root    376 :   101.177692894574300
 Root    377 :   101.184976367581600
 Root    378 :   101.627228285987200
 Root    379 :   101.627244186471200
 Root    380 :   101.967344883687900
 Root    381 :   102.432894749291000
 Root    382 :   102.643236624204800
 Root    383 :   102.643282197982000
 Root    384 :   103.665006906076900
 Root    385 :   103.665009237428000
 Root    386 :   103.741861200425900
 Root    387 :   106.721762983315400
 Root    388 :   106.738864344359500
 Root    389 :   106.738882121290200
 Root    390 :   107.300890397174500
 Root    391 :   107.300942052162600
 Root    392 :   108.896740503340100
 Root    393 :   108.897252557578100
 Root    394 :   109.477209306030500
 Root    395 :   109.477283848849600
 Root    396 :   112.092087845597400
 Root    397 :   112.092178671745200
 Root    398 :   115.030735981310400
 Root    399 :   115.030776360566600
 Root    400 :   116.820449631608900
 Root    401 :   120.322236983428300
 Root    402 :   120.559442891395200
 Root    403 :   120.559456183343600
 Root    404 :   123.047782171821100
 Root    405 :   123.047881172634400
 Root    406 :   132.749645758020800
 Convergence achieved for final wavefunctions.
 ***********************************************************************
 Excited states from <AA,BB:AA,BB> singles matrix:
 ***********************************************************************
 
 1PDM for each excited state written to RWF  633
 Ground to excited state transition densities written to RWF  633
 Ground to excited state transition electric dipole moments (Au):
       state          X           Y           Z        Dip. S.      Osc.
         1        -0.0000     -0.0018     -0.3063      0.0938      0.0192
         2        -0.0000     -0.3063      0.0018      0.0938      0.0192
         3         0.0000      0.0003     -0.2336      0.0545      0.0122
         4        -0.0000     -0.2336     -0.0003      0.0545      0.0122
         5        -0.0000     -0.0004     -0.0000      0.0000      0.0000
         6         0.0000      0.0437      0.3349      0.1141      0.0288
         7        -0.0000     -0.3349      0.0437      0.1141      0.0288
         8         0.6272     -0.0000     -0.0001      0.3934      0.1013
         9        -0.0003      0.0002     -0.0000      0.0000      0.0000
        10        -0.0000      0.0052     -0.1530      0.0234      0.0066
        11         0.0000     -0.1530     -0.0052      0.0234      0.0066
        12         0.1259      0.0000     -0.0003      0.0158      0.0046
        13        -0.0000     -0.3461     -0.0635      0.1238      0.0358
        14         0.0000      0.0635     -0.3461      0.1238      0.0358
        15        -0.0000      0.1486     -0.7156      0.5341      0.1580
        16        -0.0000     -0.7156     -0.1486      0.5341      0.1580
        17        -0.0000     -0.0005     -0.0000      0.0000      0.0000
        18        -0.0000     -0.0026     -0.0118      0.0001      0.0000
        19        -0.0000     -0.0117      0.0027      0.0001      0.0000
        20        -0.0684     -0.0000     -0.0000      0.0047      0.0014
        21        -0.0495      0.0001      0.0001      0.0025      0.0008
        22         0.0002     -0.0460      0.1790      0.0341      0.0108
        23         0.0001      0.1789      0.0461      0.0341      0.0108
        24        -1.0764     -0.0000     -0.0000      1.1587      0.3921
        25         0.0001     -0.0003      0.0001      0.0000      0.0000
        26         0.0000     -0.0008     -0.3586      0.1286      0.0441
        27        -0.0000     -0.3587      0.0008      0.1286      0.0441
        28        -0.0000     -0.0034      0.0927      0.0086      0.0030
        29         0.0000      0.0927      0.0034      0.0086      0.0030
        30        -0.0000      0.3546     -0.0583      0.1292      0.0454
        31        -0.0000      0.0583      0.3546      0.1292      0.0454
        32         0.1757      0.0000      0.0000      0.0309      0.0111
        33         0.0001      0.0060      0.2090      0.0437      0.0161
        34         0.0000      0.2089     -0.0060      0.0437      0.0161
        35         0.0001      0.0000      0.0000      0.0000      0.0000
        36         0.0001      0.0046     -0.0262      0.0007      0.0003
        37         0.0000     -0.0262     -0.0046      0.0007      0.0003
        38        -0.1565      0.0000      0.0001      0.0245      0.0092
        39        -0.0000     -0.0425      0.3852      0.1502      0.0575
        40         0.0001     -0.3851     -0.0424      0.1501      0.0575
        41        -0.0000     -0.6300     -0.2002      0.4370      0.1679
        42        -0.0000     -0.2001      0.6299      0.4368      0.1678
        43        -0.1512     -0.0001     -0.0000      0.0229      0.0089
        44         0.0000      0.0003      0.0001      0.0000      0.0000
        45        -0.0001      0.0397     -0.4916      0.2432      0.0948
        46         0.0001      0.4916      0.0397      0.2433      0.0948
        47        -0.0000      0.0006     -0.0002      0.0000      0.0000
        48        -0.9017      0.0000     -0.0000      0.8131      0.3207
        49        -0.0001      0.5203     -0.0485      0.2730      0.1080
        50        -0.0001      0.0485      0.5203      0.2731      0.1080
        51         0.0000      0.0001     -0.0102      0.0001      0.0000
        52        -0.0000     -0.0102     -0.0001      0.0001      0.0000
        53         0.4531      0.0000     -0.0000      0.2053      0.0823
        54        -0.0000      0.1965     -0.0006      0.0386      0.0156
        55         0.0000      0.0006      0.1964      0.0386      0.0156
        56        -0.0000     -0.1474     -0.0034      0.0217      0.0090
        57        -0.0000     -0.0034      0.1474      0.0217      0.0090
        58        -0.0001     -0.0000     -0.0000      0.0000      0.0000
        59        -0.0003      0.0877     -0.1851      0.0419      0.0178
        60         0.0002      0.1851      0.0877      0.0419      0.0178
        61         0.1825     -0.0000     -0.0002      0.0333      0.0141
        62        -0.2296     -0.0000      0.0000      0.0527      0.0228
        63         0.0000      0.0094     -0.0403      0.0017      0.0007
        64         0.0000     -0.0403     -0.0094      0.0017      0.0007
        65        -0.3140     -0.0000     -0.0000      0.0986      0.0445
        66         0.0001     -0.0002      0.0001      0.0000      0.0000
        67        -0.0003      0.0425     -0.2129      0.0471      0.0215
        68         0.0008     -0.2131     -0.0426      0.0472      0.0215
        69        -0.4702     -0.0004      0.0000      0.2211      0.1010
        70        -0.0000     -0.0589      0.3525      0.1277      0.0588
        71        -0.0000      0.3525      0.0589      0.1277      0.0588
        72        -0.0000     -0.0135      0.2731      0.0748      0.0348
        73         0.0000      0.2730      0.0136      0.0747      0.0348
        74         0.0306      0.0000      0.0000      0.0009      0.0004
        75        -0.0000      0.0325     -0.0897      0.0091      0.0043
        76         0.0001      0.0898      0.0325      0.0091      0.0044
        77         0.0001     -0.0003      0.0001      0.0000      0.0000
        78        -0.0001      0.1506     -0.0504      0.0252      0.0121
        79        -0.0001      0.0504      0.1506      0.0252      0.0121
        80        -0.0326      0.0000      0.0000      0.0011      0.0005
        81        -0.4860     -0.0000     -0.0000      0.2362      0.1145
        82        -0.0000      0.0017     -0.0237      0.0006      0.0003
        83        -0.0001     -0.0238     -0.0016      0.0006      0.0003
        84        -0.0000     -0.2370      0.0991      0.0660      0.0322
        85        -0.0000     -0.0991     -0.2370      0.0660      0.0322
        86        -0.0000     -0.0843      0.4535      0.2128      0.1046
        87         0.0000      0.4535      0.0842      0.2128      0.1046
        88         0.2401     -0.0000     -0.0000      0.0576      0.0288
        89         0.0000     -0.0562     -0.0140      0.0034      0.0017
        90         0.0000     -0.0140      0.0562      0.0034      0.0017
        91        -0.0003     -0.0000      0.0000      0.0000      0.0000
        92        -0.0002     -0.0012      0.0292      0.0009      0.0004
        93         0.0001     -0.0292     -0.0012      0.0009      0.0004
        94         0.2745     -0.0000     -0.0000      0.0754      0.0385
        95        -0.0001     -0.0000     -0.0000      0.0000      0.0000
        96        -0.0000     -0.0811      0.2654      0.0770      0.0397
        97         0.0000     -0.2655     -0.0811      0.0771      0.0398
        98        -0.0001     -0.0001     -0.0000      0.0000      0.0000
        99         0.0000      0.0196     -0.0672      0.0049      0.0026
       100         0.0000      0.0672      0.0196      0.0049      0.0026
       101         0.0001      0.5440      0.1693      0.3246      0.1702
       102        -0.0000      0.1693     -0.5440      0.3246      0.1702
       103         0.0332     -0.0002     -0.0007      0.0011      0.0006
       104         0.0000      0.1394      0.0005      0.0194      0.0103
       105         0.0000     -0.0005      0.1394      0.0194      0.0103
       106         0.0001      0.0001     -0.0001      0.0000      0.0000
       107         0.0001      0.0169      0.2254      0.0511      0.0280
       108         0.0000     -0.2254      0.0169      0.0511      0.0280
       109        -0.7256      0.0000      0.0001      0.5265      0.2898
       110        -0.0001     -0.0038      0.0157      0.0003      0.0001
       111        -0.0000      0.0158      0.0038      0.0003      0.0001
       112        -0.0000      0.0856      0.0447      0.0093      0.0052
       113         0.0000      0.0448     -0.0856      0.0093      0.0052
       114         0.5986      0.0000      0.0001      0.3583      0.2015
       115        -0.1941      0.0000      0.0000      0.0377      0.0213
       116         0.0000      0.0095     -0.0412      0.0018      0.0010
       117         0.0000     -0.0412     -0.0095      0.0018      0.0010
       118         0.1137     -0.0000      0.0001      0.0129      0.0075
       119        -0.3791      0.0000     -0.0000      0.1437      0.0859
       120         0.0406     -0.0000      0.0000      0.0016      0.0010
       121        -0.0001     -0.0001      0.0000      0.0000      0.0000
       122        -0.0000     -0.1542     -0.0022      0.0238      0.0145
       123         0.0000      0.0022     -0.1542      0.0238      0.0145
       124        -0.0000      0.0766     -0.0552      0.0089      0.0055
       125        -0.0000      0.0552      0.0766      0.0089      0.0055
       126        -0.0000     -0.0072      0.2190      0.0480      0.0296
       127        -0.0000      0.2190      0.0072      0.0480      0.0296
       128         0.0000     -0.1255      0.0964      0.0250      0.0155
       129         0.0000     -0.0964     -0.1255      0.0250      0.0155
       130        -0.1680      0.0000     -0.0000      0.0282      0.0176
       131         0.0001     -0.0000      0.0000      0.0000      0.0000
       132         0.0000      0.0000     -0.0000      0.0000      0.0000
       133         0.4659      0.0000      0.0000      0.2171      0.1387
       134        -0.0000     -0.0011      0.5756      0.3314      0.2139
       135         0.0000     -0.5757     -0.0011      0.3314      0.2139
       136        -0.0001      0.0169     -0.0935      0.0090      0.0059
       137        -0.0000      0.0935      0.0169      0.0090      0.0059
       138        -0.3219      0.0000      0.0000      0.1036      0.0675
       139         0.0000     -0.0000      0.0000      0.0000      0.0000
       140        -0.0000      0.2428      0.1338      0.0769      0.0523
       141         0.0000      0.1338     -0.2428      0.0769      0.0523
       142        -0.0005      0.0070      0.4723      0.2231      0.1529
       143        -0.0000     -0.4724      0.0070      0.2232      0.1529
       144        -0.5437      0.0000     -0.0004      0.2956      0.2028
       145        -0.1972      0.0000     -0.0002      0.0389      0.0267
       146         0.0000      0.0862     -0.3383      0.1218      0.0861
       147         0.0000     -0.3383     -0.0861      0.1218      0.0861
       148         0.0062      0.0000     -0.0000      0.0000      0.0000
       149         0.0001      0.0000     -0.0000      0.0000      0.0000
       150        -0.2868      0.0000     -0.0000      0.0822      0.0596
       151        -0.0001     -0.0562     -0.1275      0.0194      0.0141
       152         0.0000      0.1275     -0.0562      0.0194      0.0141
       153         0.0162      0.0001      0.0000      0.0003      0.0002
       154        -0.0000     -0.0527      0.1962      0.0413      0.0303
       155        -0.0000     -0.1962     -0.0527      0.0413      0.0303
       156         0.0912     -0.0000      0.0000      0.0083      0.0061
       157         0.0000     -0.0836      0.0631      0.0110      0.0082
       158         0.0000     -0.0631     -0.0836      0.0110      0.0082
       159        -0.0000     -0.3473      0.1733      0.1506      0.1126
       160         0.0001     -0.1733     -0.3473      0.1506      0.1126
       161         0.0989      0.0000     -0.0000      0.0098      0.0074
       162        -0.0001      0.0000     -0.0000      0.0000      0.0000
       163        -0.0000      0.0045     -0.0149      0.0002      0.0002
       164        -0.0000     -0.0149     -0.0045      0.0002      0.0002
       165        -0.0000      0.0836     -0.0170      0.0073      0.0056
       166         0.0000      0.0170      0.0836      0.0073      0.0056
       167         0.0759     -0.0000      0.0001      0.0058      0.0045
       168         0.0001      0.0001      0.0003      0.0000      0.0000
       169         0.0000      0.0763     -0.2888      0.0892      0.0696
       170        -0.0000     -0.2889     -0.0763      0.0893      0.0696
       171        -0.0000      0.1563      0.2923      0.1099      0.0863
       172        -0.0000      0.2923     -0.1564      0.1099      0.0863
       173        -0.0000     -0.0772      0.3006      0.0963      0.0765
       174         0.0000     -0.3006     -0.0772      0.0963      0.0765
       175        -0.1339      0.0000      0.0000      0.0179      0.0144
       176         0.0001     -0.0019     -0.0308      0.0009      0.0008
       177        -0.0000      0.0308     -0.0019      0.0009      0.0008
       178        -0.1820     -0.0000     -0.0001      0.0331      0.0268
       179         0.0001      0.0049     -0.0230      0.0006      0.0004
       180         0.0000     -0.0230     -0.0049      0.0006      0.0004
       181         0.0000      0.0000      0.0000      0.0000      0.0000
       182        -0.1869     -0.0000     -0.0000      0.0349      0.0290
       183         0.0000     -0.0576      0.0757      0.0090      0.0075
       184         0.0000      0.0755      0.0576      0.0090      0.0075
       185        -0.0000      0.1146     -0.1017      0.0235      0.0196
       186        -0.0000     -0.1018     -0.1146      0.0235      0.0196
       187        -0.2268      0.0000      0.0000      0.0514      0.0431
       188         0.5654     -0.0000      0.0000      0.3197      0.2725
       189        -0.0000      0.0256     -0.0687      0.0054      0.0046
       190         0.0000      0.0687      0.0256      0.0054      0.0046
       191        -0.0000      0.0000      0.0001      0.0000      0.0000
       192         0.0000      0.0214     -0.0665      0.0049      0.0043
       193        -0.0000     -0.0665     -0.0213      0.0049      0.0043
       194        -0.0938      0.0000     -0.0001      0.0088      0.0077
       195         0.1510     -0.0001     -0.0001      0.0228      0.0200
       196        -0.0000      0.0604      0.2609      0.0717      0.0631
       197         0.0000      0.2609     -0.0604      0.0717      0.0631
       198        -0.0000     -0.0553     -0.2311      0.0565      0.0501
       199        -0.0000     -0.2311      0.0553      0.0565      0.0501
       200        -0.1263     -0.0000     -0.0000      0.0160      0.0142
       201         0.0000      0.3238      0.0473      0.1071      0.0958
       202        -0.0000     -0.0473      0.3239      0.1071      0.0959
       203         0.0000      0.0854      0.0621      0.0111      0.0100
       204        -0.0000      0.0621     -0.0854      0.0111      0.0100
       205         0.0001     -0.0001     -0.0000      0.0000      0.0000
       206        -0.0000      0.0002      0.0187      0.0004      0.0003
       207        -0.0000      0.0187     -0.0002      0.0004      0.0003
       208        -0.0381     -0.0000     -0.0000      0.0014      0.0013
       209        -0.0000      0.0540     -0.0343      0.0041      0.0037
       210        -0.0000      0.0342      0.0540      0.0041      0.0037
       211         0.0000      0.2005      0.0248      0.0408      0.0373
       212         0.0000      0.0248     -0.2004      0.0408      0.0373
       213        -0.0149      0.0000     -0.0000      0.0002      0.0002
       214         0.0001     -0.0000      0.0000      0.0000      0.0000
       215         0.0000     -0.0029      0.0123      0.0002      0.0002
       216        -0.0000     -0.0123     -0.0029      0.0002      0.0002
       217        -0.0749      0.0000      0.0000      0.0056      0.0053
       218         0.0000      0.0122     -0.0510      0.0028      0.0027
       219        -0.0000     -0.0510     -0.0122      0.0028      0.0027
       220         0.0000      0.0389      0.0202      0.0019      0.0019
       221        -0.0000      0.0202     -0.0389      0.0019      0.0019
       222         0.0310     -0.0000     -0.0000      0.0010      0.0009
       223        -0.0129      0.0000      0.0000      0.0002      0.0002
       224        -0.1259     -0.0000      0.0000      0.0159      0.0160
       225         0.0000     -0.0011     -0.0030      0.0000      0.0000
       226         0.0000     -0.0030      0.0011      0.0000      0.0000
       227        -0.1184     -0.0000     -0.0000      0.0140      0.0142
       228        -0.0661     -0.0000      0.0000      0.0044      0.0044
       229        -0.0000     -0.3706     -0.0188      0.1377      0.1432
       230        -0.0000     -0.0188      0.3706      0.1377      0.1432
       231         0.0000      0.0390     -0.0239      0.0021      0.0022
       232         0.0000      0.0239      0.0390      0.0021      0.0022
       233        -0.0961      0.0000     -0.0000      0.0092      0.0104
       234        -0.0597      0.0000      0.0000      0.0036      0.0041
       235         0.0000     -0.0041      0.0107      0.0001      0.0002
       236         0.0000     -0.0108     -0.0041      0.0001      0.0002
       237         0.0000     -0.0000      0.0000      0.0000      0.0000
       238        -0.0000     -0.0305      0.1694      0.0296      0.0346
       239        -0.0000      0.1694      0.0305      0.0296      0.0346
       240         0.3496      0.0000      0.0000      0.1222      0.1453
       241         0.0000     -0.0068     -0.0440      0.0020      0.0024
       242         0.0000     -0.0440      0.0068      0.0020      0.0024
       243        -0.0000      0.0001      0.0001      0.0000      0.0000
       244        -0.0000     -0.0390     -0.0024      0.0015      0.0019
       245         0.0000     -0.0024      0.0390      0.0015      0.0019
       246         0.0001     -0.0091      0.0609      0.0038      0.0047
       247        -0.0000     -0.0609     -0.0091      0.0038      0.0047
       248        -0.0002     -0.0000      0.0000      0.0000      0.0000
       249         0.0221      0.0000      0.0000      0.0005      0.0006
       250         0.0001      0.0895     -0.1105      0.0202      0.0255
       251        -0.0001      0.1105      0.0895      0.0202      0.0255
       252         0.3049      0.0000      0.0000      0.0930      0.1174
       253        -0.0000      0.0661     -0.2714      0.0780      0.0993
       254         0.0000      0.2714      0.0661      0.0780      0.0993
       255        -0.3348      0.0001      0.0000      0.1121      0.1462
       256         0.0000      0.0196      0.0579      0.0037      0.0049
       257         0.0001      0.0579     -0.0196      0.0037      0.0049
       258         0.0069     -0.0000     -0.0000      0.0000      0.0001
       259        -0.0000     -0.0054     -0.1748      0.0306      0.0405
       260        -0.0000     -0.1748      0.0054      0.0306      0.0405
       261         0.0000     -0.0549     -0.0017      0.0030      0.0040
       262        -0.0000      0.0017     -0.0549      0.0030      0.0040
       263         0.0000     -0.0001     -0.0001      0.0000      0.0000
       264        -0.0000     -0.0789     -0.0082      0.0063      0.0084
       265         0.0000     -0.0082      0.0789      0.0063      0.0084
       266        -0.0000     -0.1588     -0.0272      0.0259      0.0348
       267        -0.0001     -0.0271      0.1588      0.0259      0.0348
       268         0.0000      0.0002     -0.0000      0.0000      0.0000
       269        -0.0000     -0.0652      0.0611      0.0080      0.0108
       270        -0.0000      0.0611      0.0652      0.0080      0.0108
       271        -0.1916      0.0000     -0.0000      0.0367      0.0502
       272         0.0000      0.0176     -0.0823      0.0071      0.0099
       273        -0.0000      0.0823      0.0176      0.0071      0.0099
       274         0.0000     -0.0206      0.0832      0.0073      0.0104
       275         0.0000      0.0832      0.0206      0.0073      0.0104
       276         0.0127     -0.0000      0.0000      0.0002      0.0002
       277        -0.0000     -0.0001     -0.0002      0.0000      0.0000
       278         0.0001     -0.0152     -0.0858      0.0076      0.0108
       279         0.0003      0.0858     -0.0152      0.0076      0.0108
       280        -0.1532      0.0002     -0.0001      0.0235      0.0334
       281         0.0000     -0.0050      0.0052      0.0001      0.0001
       282         0.0000      0.0053      0.0050      0.0001      0.0001
       283         0.2192      0.0000     -0.0000      0.0480      0.0705
       284         0.0000     -0.0890      0.0982      0.0176      0.0259
       285        -0.0000      0.0982      0.0890      0.0176      0.0259
       286         0.0000     -0.0002      0.0000      0.0000      0.0000
       287        -0.0000     -0.0001     -0.0001      0.0000      0.0000
       288        -0.0000      0.0281     -0.0535      0.0037      0.0055
       289         0.0000      0.0535      0.0281      0.0037      0.0055
       290         0.0317      0.0001      0.0000      0.0010      0.0015
       291        -0.0000      0.0486     -0.0288      0.0032      0.0049
       292        -0.0000     -0.0288     -0.0486      0.0032      0.0048
       293         0.0000      0.0908     -0.0656      0.0125      0.0193
       294        -0.0000     -0.0656     -0.0908      0.0125      0.0193
       295         0.0757     -0.0000      0.0000      0.0057      0.0088
       296         0.0321     -0.0001      0.0002      0.0010      0.0016
       297        -0.0000     -0.0003     -0.0004      0.0000      0.0000
       298        -0.0001     -0.0399      0.0159      0.0018      0.0029
       299         0.0001     -0.0159     -0.0399      0.0018      0.0029
       300         0.1020     -0.0000     -0.0000      0.0104      0.0169
       301        -0.0000      0.0356     -0.1022      0.0117      0.0191
       302         0.0000     -0.1022     -0.0356      0.0117      0.0191
       303        -0.0000      0.0198     -0.0128      0.0006      0.0009
       304        -0.0000     -0.0128     -0.0198      0.0006      0.0009
       305         0.0000      0.0000      0.0000      0.0000      0.0000
       306         0.0000     -0.0605      0.0354      0.0049      0.0081
       307        -0.0000      0.0354      0.0605      0.0049      0.0081
       308        -0.0000     -0.0552     -0.1293      0.0198      0.0328
       309         0.0000     -0.1293      0.0552      0.0198      0.0328
       310         0.0480      0.0000     -0.0000      0.0023      0.0038
       311        -0.0000      0.0022      0.1088      0.0118      0.0198
       312         0.0000      0.1088     -0.0022      0.0118      0.0198
       313        -0.0002     -0.0345      0.1146      0.0143      0.0242
       314         0.0000     -0.1146     -0.0345      0.0143      0.0242
       315        -0.0534      0.0001     -0.0007      0.0029      0.0048
       316        -0.0000     -0.0297      0.1613      0.0269      0.0464
       317        -0.0000      0.1613      0.0297      0.0269      0.0464
       318         0.0332      0.0000      0.0000      0.0011      0.0019
       319         0.0000      0.0116     -0.0461      0.0023      0.0040
       320         0.0000     -0.0461     -0.0116      0.0023      0.0040
       321         0.0000     -0.0001      0.0000      0.0000      0.0000
       322        -0.0000     -0.0180     -0.1796      0.0326      0.0578
       323         0.0000     -0.1796      0.0181      0.0326      0.0579
       324         0.0114     -0.0000     -0.0000      0.0001      0.0002
       325        -0.0000      0.0383      0.1618      0.0276      0.0492
       326         0.0000      0.1617     -0.0383      0.0276      0.0492
       327         0.0001      0.0000     -0.0000      0.0000      0.0000
       328         0.0003     -0.0064     -0.0171      0.0003      0.0006
       329        -0.0001     -0.0171      0.0064      0.0003      0.0006
       330        -0.1362     -0.0000     -0.0000      0.0186      0.0336
       331        -0.1280      0.0000      0.0000      0.0164      0.0304
       332        -0.0000      0.0000     -0.0000      0.0000      0.0000
       333         0.1883      0.0000     -0.0000      0.0355      0.0670
       334         0.0252     -0.0000     -0.0001      0.0006      0.0012
       335        -0.0001     -0.0002     -0.0045      0.0000      0.0000
       336         0.0000     -0.0045      0.0002      0.0000      0.0000
       337         0.0000     -0.0068      0.1463      0.0214      0.0409
       338         0.0000     -0.1463     -0.0068      0.0214      0.0409
       339        -0.1291      0.0000      0.0000      0.0167      0.0321
       340        -0.0000     -0.1102      0.0677      0.0167      0.0325
       341        -0.0000      0.0678      0.1102      0.0167      0.0325
       342         0.0001      0.0024     -0.0431      0.0019      0.0037
       343        -0.0002     -0.0431     -0.0024      0.0019      0.0037
       344         0.1192     -0.0001      0.0000      0.0142      0.0281
       345         0.0000      0.0012     -0.0568      0.0032      0.0065
       346        -0.0000      0.0568      0.0012      0.0032      0.0065
       347         0.0000      0.0102     -0.0533      0.0029      0.0061
       348         0.0000     -0.0533     -0.0102      0.0029      0.0061
       349         0.0000     -0.0314     -0.0780      0.0071      0.0147
       350        -0.0000     -0.0780      0.0314      0.0071      0.0147
       351         0.0232     -0.0000      0.0000      0.0005      0.0011
       352        -0.0000     -0.0008     -0.0002      0.0000      0.0000
       353         0.0001      0.0102     -0.0243      0.0007      0.0015
       354         0.0000     -0.0243     -0.0102      0.0007      0.0015
       355         0.0891     -0.0000      0.0001      0.0079      0.0170
       356         0.0078     -0.0000     -0.0000      0.0001      0.0001
       357         0.0401      0.0000     -0.0000      0.0016      0.0036
       358         0.0000     -0.0001     -0.0001      0.0000      0.0000
       359        -0.0005     -0.1180      0.0634      0.0180      0.0401
       360         0.0003     -0.0634     -0.1181      0.0180      0.0402
       361         0.0791     -0.0004      0.0009      0.0063      0.0140
       362        -0.0000      0.0645     -0.0078      0.0042      0.0095
       363         0.0000      0.0078      0.0644      0.0042      0.0094
       364        -0.0324     -0.0000      0.0000      0.0010      0.0024
       365         0.0000      0.0000     -0.0011      0.0000      0.0000
       366         0.0000      0.0011      0.0000      0.0000      0.0000
       367        -0.0000     -0.0827      0.0109      0.0070      0.0165
       368         0.0000     -0.0109     -0.0827      0.0070      0.0165
       369        -0.0001      0.0000      0.0000      0.0000      0.0000
       370         0.0064      0.0000      0.0000      0.0000      0.0001
       371        -0.0000      0.0046      0.1802      0.0325      0.0790
       372         0.0000     -0.1802      0.0046      0.0325      0.0790
       373         0.0000     -0.0071      0.0080      0.0001      0.0003
       374         0.0000      0.0080      0.0071      0.0001      0.0003
       375         0.0001      0.0000     -0.0000      0.0000      0.0000
       376        -0.0001     -0.0000      0.0000      0.0000      0.0000
       377        -0.0076      0.0000      0.0000      0.0001      0.0001
       378        -0.0000     -0.0045      0.0005      0.0000      0.0001
       379         0.0000      0.0005      0.0045      0.0000      0.0001
       380        -0.0958      0.0000     -0.0000      0.0092      0.0229
       381         0.0937     -0.0000     -0.0000      0.0088      0.0221
       382         0.0000      0.0689     -0.1512      0.0276      0.0694
       383        -0.0000      0.1512      0.0689      0.0276      0.0694
       384        -0.0000     -0.0013     -0.0002      0.0000      0.0000
       385        -0.0000      0.0002     -0.0013      0.0000      0.0000
       386         0.0001      0.0000     -0.0000      0.0000      0.0000
       387         0.3332     -0.0000      0.0000      0.1110      0.2903
       388        -0.0000      0.0210     -0.0017      0.0004      0.0012
       389         0.0000     -0.0017     -0.0210      0.0004      0.0012
       390        -0.0000     -0.1135      0.2783      0.0903      0.2374
       391         0.0000     -0.2783     -0.1135      0.0903      0.2374
       392        -0.0000     -0.0591      0.0073      0.0035      0.0095
       393         0.0000     -0.0073     -0.0591      0.0035      0.0095
       394         0.0000      0.0295     -0.0726      0.0061      0.0165
       395        -0.0000      0.0726      0.0295      0.0061      0.0165
       396        -0.0000      0.0690     -0.3212      0.1079      0.2963
       397        -0.0000     -0.3212     -0.0690      0.1079      0.2963
       398        -0.0000     -0.1285      0.3192      0.1184      0.3336
       399        -0.0000      0.3192      0.1285      0.1184      0.3336
       400         0.3504      0.0000     -0.0000      0.1228      0.3515
       401        -0.2057     -0.0000      0.0000      0.0423      0.1247
       402        -0.0000      0.0001      0.0000      0.0000      0.0000
       403         0.0000      0.0000     -0.0001      0.0000      0.0000
       404         0.0000      0.0336     -0.0693      0.0059      0.0179
       405        -0.0000      0.0693      0.0336      0.0059      0.0179
       406        -0.0359     -0.0000      0.0000      0.0013      0.0042
 Ground to excited state transition velocity dipole moments (Au):
       state          X           Y           Z        Dip. S.      Osc.
[...]
      1  -0.136644D+03 -0.136627D+03 -0.136627D+03 -0.136605D+03 -0.136575D+03
      2  -0.288520D-05 -0.392522D-05  0.000000D+00  0.129100D+00  0.216197D-04
      3  -0.451467D-02 -0.741120D-02 -0.146229D+00  0.475342D-05 -0.110477D+00
      4  -0.137091D-03 -0.146247D+00  0.741310D-02 -0.765248D-05 -0.672710D-01
      5   0.140235D-04  0.341520D-04 -0.539309D-05 -0.386493D+00 -0.591849D-04
      6   0.206741D-01  0.193338D-01  0.381951D+00 -0.142993D-04  0.323327D+00
      7   0.828633D-03  0.381995D+00 -0.193390D-01  0.239803D-04  0.196875D+00
      8  -0.110234D-03  0.153522D-04 -0.467723D-04 -0.347063D-03 -0.117280D-04
      9   0.573903D-02 -0.245461D-01  0.137161D-02  0.168758D-04 -0.229656D+00
     10  -0.933852D-01  0.139757D-02  0.244470D-01 -0.713044D-05  0.378218D+00
     11   0.173502D-05  0.144432D-03 -0.243986D-04 -0.253786D+01 -0.206761D-03
     12  -0.860754D-02  0.265258D+00 -0.410577D-02 -0.100473D+01  0.134823D-01
     13   0.857986D-02 -0.265084D+00  0.409055D-02 -0.100478D+01 -0.135543D-01
     14  -0.304022D+00  0.267626D-02  0.544791D-01  0.506159D-04  0.296957D+00
     15  -0.174916D-01  0.543470D-01 -0.268581D-02  0.269204D-04  0.180579D+00
     16  -0.100433D+00  0.413806D-02  0.265125D+00  0.640884D-05  0.206914D-01
               341           342           343           344           345 
      1  -0.136575D+03 -0.136523D+03 -0.136523D+03 -0.136523D+03 -0.136451D+03
      2   0.103253D-04 -0.105617D-03  0.187585D-03 -0.119207D+00  0.000000D+00
      3   0.672738D-01  0.258113D-02 -0.430556D-01 -0.524045D-04  0.147274D-02
      4  -0.110469D+00  0.430564D-01  0.258092D-02 -0.267389D-04  0.567653D-01
      5  -0.179957D-04  0.315733D-03 -0.561352D-03  0.351674D+00  0.000000D+00
      6  -0.196887D+00 -0.677062D-02  0.113488D+00  0.143512D-03 -0.383813D-02
      7   0.323303D+00 -0.113485D+00 -0.676939D-02  0.696699D-04 -0.146835D+00
      8   0.143974D-04 -0.202338D-05  0.237397D-05 -0.164301D-04 -0.326785D-04
      9  -0.378203D+00 -0.325802D-01 -0.196985D-02  0.572209D-04  0.132484D+00
     10  -0.229676D+00  0.203542D-02 -0.326014D-01 -0.105582D-03 -0.277540D-02
     11  -0.380344D-04  0.100462D-02 -0.179600D-02  0.103189D+01  0.330852D-04
     12   0.206646D-01 -0.107819D+00 -0.224705D-02 -0.106135D+00  0.208950D+00
     13  -0.207094D-01  0.107521D+00  0.283890D-02 -0.106311D+00 -0.208878D+00
     14  -0.180615D+00  0.123559D-01 -0.205022D+00 -0.384727D-03  0.208097D-03
     15   0.296934D+00  0.205022D+00  0.123171D-01 -0.221378D-03 -0.444935D-02
     16  -0.135092D-01 -0.254588D-02  0.107687D+00  0.175622D-03 -0.260217D-02
               346           347           348           349           350 
      1  -0.136451D+03 -0.136390D+03 -0.136390D+03 -0.136367D+03 -0.136367D+03
      2   0.574753D-05 -0.167410D-05 -0.203975D-05 -0.790075D-05  0.403212D-05
      3   0.567641D-01  0.104270D-01 -0.532783D-01 -0.310189D-01 -0.781228D-01
      4  -0.147380D-02  0.532710D-01  0.104244D-01  0.781221D-01 -0.310208D-01
      5  -0.174187D-04  0.206211D-05  0.558787D-05  0.341983D-04 -0.171846D-04
      6  -0.146831D+00 -0.190308D-01  0.975092D-01  0.115947D+00  0.292129D+00
      7   0.384191D-02 -0.974874D-01 -0.190271D-01 -0.292127D+00  0.115952D+00
      8   0.268354D-04 -0.157813D-05  0.497425D-05  0.290808D-05  0.204599D-05
      9  -0.278142D-02 -0.118796D-01 -0.220221D-02  0.455151D+00 -0.179752D+00
     10  -0.132475D+00  0.222670D-02 -0.118879D-01  0.179749D+00  0.455158D+00
     11   0.324509D-05  0.631862D-04  0.718582D-04 -0.287115D-03  0.118183D-03
     12   0.260995D-02  0.864089D-01  0.141964D-01 -0.395431D-01  0.173964D-01
     13  -0.260324D-02 -0.864079D-01 -0.142152D-01  0.397375D-01 -0.174707D-01
     14  -0.443785D-02  0.203967D-01 -0.103296D+00  0.260652D+00  0.660494D+00
     15  -0.207155D-03  0.103288D+00  0.203631D-01 -0.660485D+00  0.260652D+00
     16   0.208922D+00  0.142053D-01 -0.864040D-01  0.174340D-01  0.396370D-01
               351           352           353           354           355 
      1  -0.136365D+03 -0.136276D+03 -0.136276D+03 -0.136276D+03 -0.136271D+03
      2  -0.232190D-01  0.332969D-04 -0.140016D-03 -0.101117D-04 -0.890636D-01
      3  -0.725698D-05 -0.832222D-03  0.103348D-01 -0.242427D-01 -0.501195D-05
      4  -0.380133D-04  0.234922D-03  0.242577D-01  0.103373D-01 -0.735138D-04
      5   0.914984D-01 -0.719366D-04  0.334933D-03  0.232305D-04  0.216088D+00
      6   0.201467D-04  0.276780D-02 -0.340391D-01  0.799556D-01  0.193485D-04
      7   0.150896D-03 -0.772524D-03 -0.800055D-01 -0.340454D-01  0.228039D-03
      8  -0.102294D-04  0.731331D-02  0.327366D-04 -0.258851D-03 -0.234985D-03
      9  -0.255451D-03 -0.419437D-02 -0.412000D+00 -0.175985D+00  0.595707D-03
     10   0.195911D-04 -0.156512D-01  0.176014D+00 -0.411725D+00 -0.243583D-03
     11  -0.669097D+00 -0.104636D-02 -0.804657D-03 -0.493522D-04 -0.528401D+00
     12   0.163244D+00  0.641008D-03 -0.503541D-01 -0.192798D-01  0.797746D-02
     13   0.163222D+00  0.147253D-02  0.503719D-01  0.191973D-01  0.782333D-02
     14   0.131165D-04 -0.785850D-02  0.860571D-01 -0.200875D+00 -0.120818D-03
     15   0.365620D-03  0.206439D-02  0.200991D+00  0.860596D-01 -0.253623D-03
     16  -0.150129D-04  0.180811D-02 -0.192278D-01  0.503235D-01  0.169963D-04
               356           357           358           359           360 
      1  -0.136232D+03 -0.136183D+03 -0.136146D+03 -0.136136D+03 -0.136136D+03
      2  -0.781343D-02 -0.401382D-01 -0.350967D-04  0.497188D-03 -0.347116D-03
      3  -0.262197D-05  0.423432D-05 -0.147120D-03 -0.118306D+00 -0.629077D-01
      4   0.464708D-05  0.823752D-05  0.550263D-04 -0.628788D-01  0.118341D+00
      5   0.626467D-01  0.117898D+00  0.127065D-03 -0.169052D-02  0.119554D-02
      6   0.794070D-05 -0.117721D-04  0.394488D-03  0.319320D+00  0.169828D+00
      7  -0.153716D-04 -0.246201D-04 -0.164575D-03  0.169735D+00 -0.319421D+00
      8  -0.580642D-05 -0.133967D-03  0.999345D-02 -0.537641D-05 -0.117163D-04
      9  -0.267324D-04 -0.729838D-04 -0.127646D-04  0.119808D+00 -0.225285D+00
     10   0.184307D-04  0.220901D-04 -0.268668D-03 -0.225257D+00 -0.119798D+00
     11   0.118311D+00 -0.534956D+00 -0.916385D-03  0.255971D-03 -0.577797D-03
     12  -0.416083D+00  0.104231D+00  0.875187D-04  0.528909D-01 -0.881174D-01
     13  -0.416067D+00  0.104272D+00  0.647480D-04 -0.473118D-01  0.837567D-01
     14   0.190678D-04  0.134409D-05 -0.214986D-03 -0.128837D+00 -0.692399D-01
     15  -0.380006D-05  0.404324D-04 -0.434452D-05 -0.692473D-01  0.128939D+00
     16  -0.263160D-05  0.326670D-05  0.789444D-04  0.859849D-01  0.500588D-01
               361           362           363           364           365 
      1  -0.136135D+03 -0.136129D+03 -0.136129D+03 -0.136121D+03 -0.135993D+03
      2  -0.790631D-01  0.797500D-05 -0.279460D-04  0.323838D-01 -0.183001D-05
      3  -0.409828D-03  0.645271D-01  0.750747D-02 -0.571646D-05  0.181313D-04
      4  -0.947891D-03  0.752853D-02 -0.644805D-01 -0.386116D-04  0.112128D-02
      5   0.274183D+00 -0.257682D-04  0.103385D-03 -0.168774D+00  0.278679D-05
      6   0.110000D-02 -0.172691D+00 -0.201066D-01  0.921308D-05  0.134033D-02
      7   0.257007D-02 -0.201613D-01  0.172565D+00  0.107742D-03  0.393960D-01
      8  -0.667344D-03  0.948853D-05  0.733457D-05 -0.229091D-03 -0.113622D-04
      9   0.167349D-02 -0.152068D-01  0.128155D+00  0.541666D-04 -0.243237D+00
     10  -0.853335D-03  0.128239D+00  0.151704D-01 -0.295572D-04  0.811899D-02
     11  -0.561957D-01  0.221454D-05  0.202390D-04 -0.890182D+00  0.263804D-04
     12  -0.499961D+00  0.148673D-01 -0.100958D+00  0.931206D+00 -0.289516D-01
     13  -0.501393D+00 -0.148036D-01  0.100491D+00  0.931179D+00  0.289884D-01
     14  -0.504906D-03  0.352426D+00  0.415615D-01 -0.219291D-04  0.146373D-01
     15  -0.816833D-03  0.415820D-01 -0.352375D+00 -0.459337D-04  0.441088D+00
     16   0.285142D-03  0.100691D+00  0.148522D-01 -0.990668D-05  0.103835D-04
               366           367           368           369           370 
      1  -0.135993D+03 -0.135945D+03 -0.135945D+03 -0.135905D+03 -0.135905D+03
      2  -0.672877D-05  0.669490D-05 -0.838187D-05  0.845569D-04 -0.642564D-02
      3   0.111734D-02 -0.827671D-01 -0.105580D-01  0.457724D-05  0.000000D+00
      4  -0.185739D-04 -0.105574D-01  0.827637D-01  0.000000D+00 -0.215144D-05
      5   0.246152D-04 -0.231893D-04  0.303925D-04 -0.265609D-03  0.894290D-02
      6   0.394062D-01  0.220069D+00  0.280336D-01 -0.149581D-04  0.000000D+00
      7  -0.133997D-02  0.280308D-01 -0.220061D+00  0.135272D-05  0.745037D-05
      8   0.136156D-04  0.641858D-05  0.129587D-04  0.332129D-02 -0.159668D-03
      9   0.812507D-02  0.456974D-01 -0.362786D+00 -0.422885D-05 -0.434704D-05
     10   0.243223D+00 -0.362790D+00 -0.457023D-01 -0.187538D-04 -0.213449D-05
     11  -0.405559D-05  0.122486D-04 -0.137295D-05 -0.912816D-05 -0.121989D+00
     12  -0.581624D-04 -0.197603D-01  0.121914D+00 -0.102063D-02  0.163550D-01
     13  -0.339578D-04  0.198321D-01 -0.121994D+00 -0.102204D-02  0.163570D-01
     14   0.441076D+00 -0.253002D+00 -0.317381D-01 -0.175365D-04  0.000000D+00
     15  -0.146517D-01 -0.317229D-01  0.252997D+00  0.196019D-05  0.590153D-05
     16  -0.289759D-01 -0.121955D+00 -0.197973D-01  0.267144D-05  0.139208D-05
               371           372           373           374           375 
      1  -0.135844D+03 -0.135844D+03 -0.135813D+03 -0.135813D+03 -0.135812D+03
      2   0.437298D-05 -0.286519D-05 -0.150249D-05 -0.597450D-05 -0.519285D-04
      3   0.384651D-02 -0.180258D+00 -0.708747D-02  0.801435D-02  0.000000D+00
      4  -0.180258D+00 -0.384620D-02 -0.801129D-02 -0.709174D-02  0.108974D-05
      5  -0.104403D-04  0.111129D-04  0.455853D-05  0.203209D-04  0.174768D-03
      6  -0.130265D-01  0.611530D+00  0.298930D-01 -0.337596D-01 -0.527387D-05
      7   0.611531D+00  0.130256D-01  0.337543D-01  0.299132D-01 -0.174932D-04
      8   0.980865D-05 -0.544017D-05  0.155746D-04  0.907328D-05  0.121602D-01
      9  -0.623798D+00 -0.131133D-01 -0.381007D-01 -0.339585D-01  0.147785D-04
     10  -0.131247D-01  0.623751D+00  0.338935D-01 -0.380903D-01 -0.516081D-04
     11   0.421290D-04 -0.260775D-04  0.169394D-04  0.874747D-04  0.435462D-03
     12   0.434760D-02 -0.259724D-03  0.435499D-01  0.361265D-01 -0.550393D-04
     13  -0.436759D-02  0.216958D-03 -0.435555D-01 -0.361283D-01  0.841543D-04
     14  -0.112504D-01  0.532777D+00 -0.627759D-01  0.706366D-01  0.730092D-04
     15   0.532764D+00  0.112490D-01 -0.706223D-01 -0.627247D-01  0.172663D-03
     16   0.228028D-03  0.430114D-02  0.360874D-01 -0.435825D-01 -0.305783D-04
               376           377           378           379           380 
      1  -0.135773D+03 -0.135772D+03 -0.135756D+03 -0.135756D+03 -0.135743D+03
      2   0.689137D-04  0.759895D-02  0.000000D+00  0.000000D+00  0.958156D-01
      3  -0.114522D-04  0.205992D-05 -0.450220D-02  0.455802D-03  0.394162D-05
      4   0.000000D+00 -0.595033D-05 -0.444074D-03 -0.450721D-02  0.000000D+00
      5  -0.241866D-03 -0.195310D-01 -0.142722D-05  0.000000D+00 -0.312452D+00
      6   0.381781D-04 -0.695379D-05  0.115515D-01 -0.117272D-02 -0.147105D-04
      7   0.375623D-05  0.202345D-04  0.113553D-02  0.115680D-01 -0.746809D-05
      8   0.255352D-02  0.249444D-03  0.321782D-05 -0.201078D-05 -0.637571D-04
      9   0.933976D-05 -0.345208D-04  0.709686D-04  0.113346D-02  0.216113D-04
     10  -0.495889D-04  0.217493D-04 -0.114742D-02  0.199863D-04  0.307371D-04
     11  -0.861037D-04  0.881993D-01 -0.289071D-05 -0.102849D-04 -0.155679D+01
     12  -0.333779D-03  0.829377D-02 -0.108935D-01 -0.777160D-01  0.161349D-01
     13  -0.291077D-03  0.828451D-02  0.108880D-01  0.777125D-01  0.161652D-01
     14   0.663807D-04 -0.100359D-04 -0.452952D-01  0.475829D-02 -0.671940D-04
     15   0.924416D-05  0.258626D-04 -0.480533D-02 -0.452862D-01 -0.472023D-04
     16  -0.106303D-03  0.374129D-04 -0.777078D-01  0.108916D-01  0.188227D-04
               381           382           383           384           385 
      1  -0.135726D+03 -0.135719D+03 -0.135719D+03 -0.135681D+03 -0.135681D+03
      2  -0.937422D-01 -0.313033D-05  0.537309D-05  0.109031D-04  0.100342D-04
      3  -0.419840D-05  0.695253D-01  0.150932D+00 -0.127313D-02  0.232729D-03
      4   0.172087D-05  0.150927D+00 -0.695274D-01  0.235859D-03  0.126636D-02
      5   0.316336D+00  0.569786D-05 -0.177025D-04 -0.368320D-04 -0.342202D-04
      6   0.146862D-04 -0.223642D+00 -0.485537D+00 -0.255355D-02  0.203438D-04
      7  -0.105353D-04 -0.485520D+00  0.223649D+00  0.114841D-04  0.257121D-02
      8   0.349671D-04 -0.221730D-05  0.845625D-05  0.429443D-05  0.653500D-05
      9   0.516284D-04  0.585798D+00 -0.270238D+00 -0.109261D-02 -0.852099D-02
     10  -0.138316D-04 -0.270272D+00 -0.585873D+00 -0.855782D-02  0.108302D-02
     11   0.106226D+01  0.400108D-04 -0.299168D-04 -0.119558D-03 -0.120439D-03
     12  -0.132888D+00  0.142248D-01 -0.579874D-02  0.268847D-02  0.293083D-01
     13  -0.132905D+00 -0.141445D-01  0.580867D-02 -0.268574D-02 -0.292998D-01
     14   0.396259D-04 -0.184296D+00 -0.399372D+00  0.106785D+00 -0.132890D-01
     15  -0.617795D-04 -0.399353D+00  0.184322D+00 -0.132441D-01 -0.106907D+00
     16   0.211688D-05  0.575035D-02  0.141251D-01 -0.292992D-01  0.269233D-02
               386           387           388           389           390 
      1  -0.135678D+03 -0.135569D+03 -0.135568D+03 -0.135568D+03 -0.135547D+03
      2  -0.102471D-03 -0.333233D+00  0.838863D-05 -0.436726D-05  0.670521D-05
      3   0.231286D-04 -0.815033D-05  0.210463D-01 -0.165755D-02 -0.114672D+00
      4   0.291266D-05 -0.224581D-04  0.165533D-02  0.210451D-01 -0.277760D+00
      5   0.386469D-03  0.117001D+01 -0.313610D-04  0.164723D-04 -0.243640D-04
      6  -0.763983D-04  0.229368D-04 -0.667367D-01  0.524992D-02  0.396681D+00
      7  -0.116948D-04  0.735501D-04 -0.524258D-02 -0.667320D-01  0.960882D+00
      8   0.128748D-01 -0.586465D-04 -0.606231D-05  0.321646D-05  0.790239D-05
      9   0.485105D-05 -0.544508D-04 -0.246396D-03 -0.111527D-02 -0.145479D+01
     10  -0.939521D-04 -0.742956D-04  0.109748D-02 -0.237270D-03  0.601159D+00
     11  -0.144270D-02  0.342323D+01 -0.101800D-03  0.379101D-04 -0.435764D-04
     12  -0.584282D-03  0.749691D-01  0.261685D-01  0.227380D+00  0.128106D-01
     13  -0.559044D-03  0.749421D-01 -0.261663D-01 -0.227388D+00 -0.128186D-01
     14  -0.904009D-04 -0.534468D-04 -0.113957D-01  0.823466D-03  0.620608D+00
     15   0.391932D-04  0.428213D-04 -0.817648D-03 -0.113792D-01  0.150081D+01
     16   0.000000D+00 -0.240566D-05  0.227381D+00 -0.261691D-01  0.491866D-02
               391           392           393           394           395 
      1  -0.135547D+03 -0.135489D+03 -0.135489D+03 -0.135468D+03 -0.135468D+03
      2  -0.881527D-05  0.000000D+00 -0.232920D-05  0.000000D+00  0.261888D-05
      3  -0.277759D+00 -0.591518D-01 -0.701601D-02  0.298234D-01  0.725039D-01
      4   0.114672D+00 -0.701868D-02  0.591422D-01  0.725106D-01 -0.298189D-01
      5   0.324164D-04 -0.208176D-05  0.868396D-05  0.225726D-05 -0.978352D-05
      6   0.960878D+00  0.192877D+00  0.227834D-01 -0.987561D-01 -0.239983D+00
      7  -0.396682D+00  0.227919D-01 -0.192845D+00 -0.240007D+00  0.987396D-01
      8   0.465298D-05  0.144736D-05  0.156266D-05  0.000000D+00 -0.779078D-05
      9   0.601136D+00  0.483017D-02 -0.438774D-01  0.383105D+00 -0.156720D+00
     10   0.145481D+01 -0.438335D-01 -0.484198D-02 -0.156760D+00 -0.383077D+00
     11   0.435397D-04  0.948174D-05  0.523541D-05 -0.107878D-04 -0.112151D-04
     12  -0.488629D-02 -0.289395D-01  0.186947D+00 -0.291472D-01  0.107048D-01
     13   0.488397D-02  0.289531D-01 -0.186965D+00  0.291458D-01 -0.107078D-01
     14   0.150080D+01 -0.905822D-01 -0.107245D-01 -0.236936D+00 -0.576274D+00
     15  -0.620609D+00 -0.107206D-01  0.906249D-01 -0.576307D+00  0.236900D+00
     16   0.128398D-01 -0.186944D+00 -0.289479D-01 -0.107189D-01 -0.291533D-01
               396           397           398           399           400 
      1  -0.135371D+03 -0.135371D+03 -0.135263D+03 -0.135263D+03 -0.135198D+03
      2   0.432359D-05  0.339523D-05  0.147563D-04  0.133473D-04 -0.350439D+00
      3   0.703735D-01 -0.320864D+00 -0.129849D+00  0.318618D+00  0.184528D-05
      4   0.320862D+00  0.703747D-01 -0.318620D+00 -0.129850D+00  0.556458D-05
      5  -0.159722D-04 -0.129902D-04 -0.594021D-04 -0.532312D-04  0.135792D+01
      6  -0.253027D+00  0.115358D+01  0.486958D+00 -0.119489D+01 -0.762740D-05
      7  -0.115357D+01 -0.253032D+00  0.119490D+01  0.486962D+00 -0.195806D-04
      8  -0.839092D-05  0.347873D-05  0.947680D-05 -0.104762D-04  0.000000D+00
      9   0.137701D+01  0.301357D+00 -0.174241D+01 -0.710872D+00 -0.247203D-04
     10  -0.301370D+00  0.137704D+01  0.710883D+00 -0.174241D+01 -0.283849D-04
     11  -0.579474D-04 -0.716855D-04 -0.113462D-03 -0.817907D-04  0.303371D+01
     12   0.485992D-01  0.863973D-02  0.333785D-01  0.122429D-01 -0.109286D-01
     13  -0.486255D-01 -0.863733D-02 -0.333138D-01 -0.122317D-01 -0.109223D-01
     14  -0.335782D+00  0.153288D+01  0.839742D+00 -0.205850D+01  0.194297D-04
     15  -0.153287D+01 -0.335787D+00  0.205852D+01  0.839749D+00  0.464099D-04
     16   0.861860D-02 -0.485931D-01  0.122614D-01 -0.333536D-01 -0.112376D-05
               401           402           403           404           405 
      1  -0.135069D+03 -0.135060D+03 -0.135060D+03 -0.134969D+03 -0.134969D+03
      2   0.205676D+00  0.000000D+00  0.000000D+00 -0.238101D-05  0.000000D+00
      3  -0.469838D-05  0.519823D-04  0.474499D-04  0.339387D-01  0.691238D-01
      4  -0.804149D-05 -0.465171D-04  0.522053D-04  0.691238D-01 -0.339393D-01
      5  -0.926769D+00 -0.175325D-05  0.142207D-05  0.107124D-04 -0.355940D-05
      6   0.168837D-04  0.209661D-02 -0.285848D-03 -0.130997D+00 -0.267092D+00
      7   0.284508D-04  0.282163D-03  0.209579D-02 -0.267092D+00  0.131000D+00
      8  -0.103092D-04  0.182707D-04 -0.293513D-05  0.000000D+00 -0.168055D-05
      9   0.256858D-04 -0.201261D-02 -0.360399D-01  0.360641D+00 -0.177971D+00
     10   0.114329D-04  0.360385D-01 -0.201931D-02 -0.177975D+00 -0.360641D+00
     11  -0.387119D+01  0.221927D-05  0.433932D-05  0.569782D-05 -0.840823D-05
     12   0.157648D+00 -0.655460D-01 -0.745372D+00 -0.258830D-01  0.120137D-01
     13   0.157635D+00  0.655361D-01  0.745377D+00  0.258577D-01 -0.120108D-01
     14  -0.361281D-04  0.179443D-01 -0.124206D-02  0.701996D-01  0.141384D+00
     15  -0.373772D-04  0.124562D-02  0.179466D-01  0.141385D+00 -0.701991D-01
     16   0.141447D-05 -0.745378D+00  0.655406D-01 -0.120083D-01 -0.258763D-01
               406 
      1  -0.134612D+03
      2   0.359489D-01
      3  -0.209142D-05
      4  -0.622874D-05
      5  -0.234417D+00
      6   0.762766D-05
      7   0.257057D-04
      8  -0.517566D-05
      9   0.414899D-05
     10  -0.423609D-05
     11  -0.195854D+00
     12  -0.207629D+00
     13  -0.207646D+00
     14  -0.127090D-04
     15   0.000000D+00
     16   0.188320D-05
 Unable to Open any file for archive entry.
 1\1\GINC-HEL23\SP\RPBEPBE TD-FC\Gen\C1H3F1\SABYASACHI\21-Mar-2022\0\\#
 P TD(Nstates=10000) pbepbe/Gen SCF(maxcycles=100) Int(Grid=ultrafine)\
 \xGDB7_00001_tier4.com\\0,1\C,0,-0.630149,-0.000001,0.000003\F,0,0.748
 512,0.000002,-0.000001\H,0,-0.98525,0.899676,0.505416\H,0,-0.985222,-0
 .887557,0.526417\H,0,-0.985245,-0.012128,-1.03184\\Version=EM64L-G16Re
 vC.01\State=1-A\HF=-139.4907204\RMSD=6.311e-09\PG=C01 [X(C1H3F1)]\\@
 The archive entry for this job was punched.


 BOOKS ARE LIGHTHOUSES ERECTED IN THE GREAT SEA OF TIME.
     -- E.P.WHIPPLE
 Job cpu time:       0 days  0 hours  2 minutes 42.4 seconds.
 Elapsed time:       0 days  0 hours  0 minutes 20.6 seconds.
 File lengths (MBytes):  RWF=     85 Int=      0 D2E=      0 Chk=     46 Scr=      1
 Normal termination of Gaussian 16 at Mon Mar 21 20:12:24 2022.
