 Entering Gaussian System, Link 0=g16
 Input=000025.com
 Output=000025.log
 Initial command:
 /home/sabyasachi/g16/l1.exe "/scratch/sabyasachi/PBS_7976456.helios/Gau-146619.inp" -scrdir="/scratch/sabyasachi/PBS_7976456.helios/"
 Entering Link 1 = /home/sabyasachi/g16/l1.exe PID=    146620.
  
 Copyright (c) 1988-2019, Gaussian, Inc.  All Rights Reserved.
  
 This is part of the Gaussian(R) 16 program.  It is based on
 the Gaussian(R) 09 system (copyright 2009, Gaussian, Inc.),
 the Gaussian(R) 03 system (copyright 2003, Gaussian, Inc.),
 the Gaussian(R) 98 system (copyright 1998, Gaussian, Inc.),
 the Gaussian(R) 94 system (copyright 1995, Gaussian, Inc.),
 the Gaussian 92(TM) system (copyright 1992, Gaussian, Inc.),
 the Gaussian 90(TM) system (copyright 1990, Gaussian, Inc.),
 the Gaussian 88(TM) system (copyright 1988, Gaussian, Inc.),
 the Gaussian 86(TM) system (copyright 1986, Carnegie Mellon
 University), and the Gaussian 82(TM) system (copyright 1983,
 Carnegie Mellon University). Gaussian is a federally registered
 trademark of Gaussian, Inc.
  
 This software contains proprietary and confidential information,
 including trade secrets, belonging to Gaussian, Inc.
  
 This software is provided under written license and may be
 used, copied, transmitted, or stored only in accord with that
 written license.
  
 The following legend is applicable only to US Government
 contracts under FAR:
  
                    RESTRICTED RIGHTS LEGEND
  
 Use, reproduction and disclosure by the US Government is
 subject to restrictions as set forth in subparagraphs (a)
 and (c) of the Commercial Computer Software - Restricted
 Rights clause in FAR 52.227-19.
  
 Gaussian, Inc.
 340 Quinnipiac St., Bldg. 40, Wallingford CT 06492
  
  
 ---------------------------------------------------------------
 Warning -- This program may not be used in any manner that
 competes with the business of Gaussian, Inc. or will provide
 assistance to any competitor of Gaussian, Inc.  The licensee
 of this program is prohibited from giving any competitor of
 Gaussian, Inc. access to this program.  By using this program,
 the user acknowledges that Gaussian, Inc. is engaged in the
 business of creating and licensing software in the field of
 computational chemistry and represents and warrants to the
 licensee that it is not a competitor of Gaussian, Inc. and that
 it will not use this program in any manner prohibited above.
 ---------------------------------------------------------------
  

 Cite this work as:
 Gaussian 16, Revision C.01,
 M. J. Frisch, G. W. Trucks, H. B. Schlegel, G. E. Scuseria, 
 M. A. Robb, J. R. Cheeseman, G. Scalmani, V. Barone, 
 G. A. Petersson, H. Nakatsuji, X. Li, M. Caricato, A. V. Marenich, 
 J. Bloino, B. G. Janesko, R. Gomperts, B. Mennucci, H. P. Hratchian, 
 J. V. Ortiz, A. F. Izmaylov, J. L. Sonnenberg, D. Williams-Young, 
 F. Ding, F. Lipparini, F. Egidi, J. Goings, B. Peng, A. Petrone, 
 T. Henderson, D. Ranasinghe, V. G. Zakrzewski, J. Gao, N. Rega, 
 G. Zheng, W. Liang, M. Hada, M. Ehara, K. Toyota, R. Fukuda, 
 J. Hasegawa, M. Ishida, T. Nakajima, Y. Honda, O. Kitao, H. Nakai, 
 T. Vreven, K. Throssell, J. A. Montgomery, Jr., J. E. Peralta, 
 F. Ogliaro, M. J. Bearpark, J. J. Heyd, E. N. Brothers, K. N. Kudin, 
 V. N. Staroverov, T. A. Keith, R. Kobayashi, J. Normand, 
 K. Raghavachari, A. P. Rendell, J. C. Burant, S. S. Iyengar, 
 J. Tomasi, M. Cossi, J. M. Millam, M. Klene, C. Adamo, R. Cammi, 
 J. W. Ochterski, R. L. Martin, K. Morokuma, O. Farkas, 
 J. B. Foresman, and D. J. Fox, Gaussian, Inc., Wallingford CT, 2019.
 
 ******************************************
 Gaussian 16:  EM64L-G16RevC.01  3-Jul-2019
                21-Mar-2022 
 ******************************************
 %mem=64gb
 %nproc=8
 Will use up to    8 processors via shared memory.
 ----------------------------------------------------------------------
 #P TD(Nstates=10000) pbepbe/Gen SCF(maxcycles=100) Int(Grid=ultrafine)
 ----------------------------------------------------------------------
 1/38=1,172=1/1;
 2/12=2,17=6,18=5,40=1/2;
 3/5=7,11=9,25=1,30=1,74=1009,75=-5/1,2,3,8;
 4//1;
 5/5=2,7=100,38=5/2;
 8/6=1,10=1,108=10000/1;
 9/41=10000,42=1,70=2/14;
 6/7=2,8=2,9=2,10=2/1;
 99/5=1,9=1/99;
 Leave Link    1 at Mon Mar 21 20:09:22 2022, MaxMem=  8589934592 cpu:               0.4 elap:               0.1
 (Enter /home/sabyasachi/g16/l101.exe)
 ---------------------
 xGDB7_00001_tier4.com
 ---------------------
 Symbolic Z-matrix:
 Charge =  0 Multiplicity = 1
 7                    -1.07847  -0.1569    0. 
 6                     0.16196   0.38494   0. 
 8                     1.18917  -0.24546  0. 
 1                    -1.89843   0.41943  0. 
 1                    -1.17812  -1.15707  -0.00001 
 1                     0.14071   1.48995  -0.00001 
 
 ITRead=  0  0  0  0  0  0
 MicOpt= -1 -1 -1 -1 -1 -1
 NAtoms=      6 NQM=        6 NQMF=       0 NMMI=      0 NMMIF=      0
                NMic=       0 NMicF=      0.
                    Isotopes and Nuclear Properties:
 (Nuclear quadrupole moments (NQMom) in fm**2, nuclear magnetic moments (NMagM)
  in nuclear magnetons)

  Atom         1           2           3           4           5           6
 IAtWgt=          14          12          16           1           1           1
 AtmWgt=  14.0030740  12.0000000  15.9949146   1.0078250   1.0078250   1.0078250
 NucSpn=           2           0           0           1           1           1
 AtZEff=  -0.0000000  -0.0000000  -0.0000000  -0.0000000  -0.0000000  -0.0000000
 NQMom=    2.0440000   0.0000000   0.0000000   0.0000000   0.0000000   0.0000000
 NMagM=    0.4037610   0.0000000   0.0000000   2.7928460   2.7928460   2.7928460
 AtZNuc=   7.0000000   6.0000000   8.0000000   1.0000000   1.0000000   1.0000000
 Leave Link  101 at Mon Mar 21 20:09:22 2022, MaxMem=  8589934592 cpu:               0.6 elap:               0.1
 (Enter /home/sabyasachi/g16/l202.exe)
                          Input orientation:                          
 ---------------------------------------------------------------------
 Center     Atomic      Atomic             Coordinates (Angstroms)
 Number     Number       Type             X           Y           Z
 ---------------------------------------------------------------------
      1          7           0       -1.078471   -0.156900    0.000001
      2          6           0        0.161963    0.384944    0.000002
      3          8           0        1.189170   -0.245458   -0.000001
      4          1           0       -1.898427    0.419427   -0.000004
      5          1           0       -1.178124   -1.157073   -0.000005
      6          1           0        0.140706    1.489948   -0.000007
 ---------------------------------------------------------------------
                    Distance matrix (angstroms):
                    1          2          3          4          5
     1  N    0.000000
     2  C    1.353614   0.000000
     3  O    2.269370   1.205222   0.000000
     4  H    1.002238   2.060679   3.158374   0.000000
     5  H    1.005125   2.042951   2.536754   1.733260   0.000000
     6  H    2.049024   1.105208   2.027538   2.303059   2.957369
                    6
     6  H    0.000000
 Stoichiometry    CH3NO
 Framework group  C1[X(CH3NO)]
 Deg. of freedom    12
 Full point group                 C1      NOp   1
 Largest Abelian subgroup         C1      NOp   1
 Largest concise Abelian subgroup C1      NOp   1
                         Standard orientation:                         
 ---------------------------------------------------------------------
 Center     Atomic      Atomic             Coordinates (Angstroms)
 Number     Number       Type             X           Y           Z
 ---------------------------------------------------------------------
      1          7           0        1.078471   -0.156900   -0.000001
      2          6           0       -0.161963    0.384944   -0.000002
      3          8           0       -1.189170   -0.245458    0.000001
      4          1           0        1.898427    0.419427    0.000004
      5          1           0        1.178124   -1.157073    0.000005
      6          1           0       -0.140706    1.489948    0.000007
 ---------------------------------------------------------------------
 Rotational constants (GHZ):          74.0566602          11.4602930           9.9244769
 Leave Link  202 at Mon Mar 21 20:09:22 2022, MaxMem=  8589934592 cpu:               0.1 elap:               0.0
 (Enter /home/sabyasachi/g16/l301.exe)
 General basis read from cards:  (5D, 7F)
 Centers:       4      5      6
 S 3 1.00
     Exponent=  1.3010701000D+01 Coefficients=  1.9682158000D-02
     Exponent=  1.9622572000D+00 Coefficients=  1.3796524000D-01
     Exponent=  4.4453796000D-01 Coefficients=  4.7831935000D-01
 S 1 1.00
     Exponent=  1.2194962000D-01 Coefficients=  1.0000000000D+00
 P 1 1.00
     Exponent=  8.0000000000D-01 Coefficients=  1.0000000000D+00
 P 1 1.00
     Exponent=  1.1704099050D-01 Coefficients=  1.0000000000D+00
 ****
 Centers:       2
 S 5 1.00
     Exponent=  1.2384016938D+03 Coefficients=  5.4568832082D-03
     Exponent=  1.8629004992D+02 Coefficients=  4.0638409211D-02
     Exponent=  4.2251176346D+01 Coefficients=  1.8025593888D-01
     Exponent=  1.1676557932D+01 Coefficients=  4.6315121755D-01
     Exponent=  3.5930506482D+00 Coefficients=  4.4087173314D-01
 S 1 1.00
     Exponent=  4.0245147363D-01 Coefficients=  1.0000000000D+00
 S 1 1.00
     Exponent=  1.3090182668D-01 Coefficients=  1.0000000000D+00
 S 1 1.00
     Exponent=  6.7053540256D-02 Coefficients=  1.0000000000D+00
 P 3 1.00
     Exponent=  9.4680970621D+00 Coefficients=  3.8387871728D-02
     Exponent=  2.0103545142D+00 Coefficients=  2.1117025112D-01
     Exponent=  5.4771004707D-01 Coefficients=  5.1328172114D-01
 P 1 1.00
     Exponent=  1.5268613795D-01 Coefficients=  1.0000000000D+00
 D 1 1.00
     Exponent=  8.0000000000D-01 Coefficients=  1.0000000000D+00
 D 1 1.00
     Exponent=  1.1713185140D-01 Coefficients=  1.0000000000D+00
 ****
 Centers:       1
 S 5 1.00
     Exponent=  1.7128415853D+03 Coefficients= -5.3934125305D-03
     Exponent=  2.5764812677D+02 Coefficients= -4.0221581118D-02
     Exponent=  5.8458245853D+01 Coefficients= -1.7931144990D-01
     Exponent=  1.6198367905D+01 Coefficients= -4.6376317823D-01
     Exponent=  5.0052600809D+00 Coefficients= -4.4171422662D-01
 S 1 1.00
     Exponent=  5.8731856571D-01 Coefficients=  1.0000000000D+00
 S 1 1.00
     Exponent=  1.8764592253D-01 Coefficients=  1.0000000000D+00
 S 1 1.00
     Exponent=  9.6171241529D-02 Coefficients=  1.0000000000D+00
 P 3 1.00
     Exponent=  1.3571470233D+01 Coefficients= -4.0072398852D-02
     Exponent=  2.9257372874D+00 Coefficients= -2.1807045028D-01
     Exponent=  7.9927750754D-01 Coefficients= -5.1294466049D-01
 P 1 1.00
     Exponent=  2.1954348034D-01 Coefficients=  1.0000000000D+00
 D 1 1.00
     Exponent=  1.0000000000D+00 Coefficients=  1.0000000000D+00
 D 1 1.00
     Exponent=  1.6697708112D-01 Coefficients=  1.0000000000D+00
 ****
 Centers:       3
 S 5 1.00
     Exponent=  2.2661767785D+03 Coefficients= -5.3431809926D-03
     Exponent=  3.4087010191D+02 Coefficients= -3.9890039230D-02
     Exponent=  7.7363135167D+01 Coefficients= -1.7853911985D-01
     Exponent=  2.1479644940D+01 Coefficients= -4.6427684959D-01
     Exponent=  6.6589433124D+00 Coefficients= -4.4309745172D-01
 S 1 1.00
     Exponent=  8.0975975668D-01 Coefficients=  1.0000000000D+00
 S 1 1.00
     Exponent=  2.5530772234D-01 Coefficients=  1.0000000000D+00
 S 1 1.00
     Exponent=  7.6572453250D-02 Coefficients=  1.0000000000D+00
 P 3 1.00
     Exponent=  1.7721504317D+01 Coefficients=  4.3394573193D-02
     Exponent=  3.8635505440D+00 Coefficients=  2.3094120765D-01
     Exponent=  1.0480920883D+00 Coefficients=  5.1375311064D-01
 P 1 1.00
     Exponent=  2.7641544411D-01 Coefficients=  1.0000000000D+00
 P 1 1.00
     Exponent=  6.9002276350D-02 Coefficients=  1.0000000000D+00
 D 1 1.00
     Exponent=  1.2000000000D+00 Coefficients=  1.0000000000D+00
 D 1 1.00
     Exponent=  1.7992024323D-01 Coefficients=  1.0000000000D+00
 ****
 Ernie: Thresh=  0.10000D-02 Tol=  0.10000D-05 Strict=F.
 There are    93 symmetry adapted cartesian basis functions of A   symmetry.
 There are    87 symmetry adapted basis functions of A   symmetry.
    87 basis functions,   129 primitive gaussians,    93 cartesian basis functions
    12 alpha electrons       12 beta electrons
       nuclear repulsion energy        71.5209938297 Hartrees.
 IExCor= 1009 DFT=T Ex=PBE Corr=PBE ExCW=0 ScaHFX=  0.000000
 ScaDFX=  1.000000  1.000000  1.000000  1.000000 ScalE2=  1.000000  1.000000
 IRadAn=      5 IRanWt=     -1 IRanGd=            0 ICorTp=0 IEmpDi=  4
 NAtoms=    6 NActive=    6 NUniq=    6 SFac= 1.00D+00 NAtFMM=   60 NAOKFM=F Big=F
 Integral buffers will be    131072 words long.
 Regular integral format.
 Two-electron integral symmetry is turned on.
 Leave Link  301 at Mon Mar 21 20:09:22 2022, MaxMem=  8589934592 cpu:               0.6 elap:               0.1
 (Enter /home/sabyasachi/g16/l302.exe)
 NPDir=0 NMtPBC=     1 NCelOv=     1 NCel=       1 NClECP=     1 NCelD=      1
         NCelK=      1 NCelE2=     1 NClLst=     1 CellRange=     0.0.
 One-electron integrals computed using PRISM.
 One-electron integral symmetry used in STVInt
 NBasis=    87 RedAO= T EigKep=  2.36D-04  NBF=    87
 NBsUse=    87 1.00D-06 EigRej= -1.00D+00 NBFU=    87
 Precomputing XC quadrature grid using
 IXCGrd= 4 IRadAn=           5 IRanWt=          -1 IRanGd=           0 AccXCQ= 0.00D+00.
 Generated NRdTot=       0 NPtTot=           0 NUsed=           0 NTot=          32
 NSgBfM=    93    93    93    93    93 MxSgAt=     6 MxSgA2=     6.
 Leave Link  302 at Mon Mar 21 20:09:22 2022, MaxMem=  8589934592 cpu:               0.9 elap:               0.1
 (Enter /home/sabyasachi/g16/l303.exe)
 DipDrv:  MaxL=1.
 Leave Link  303 at Mon Mar 21 20:09:22 2022, MaxMem=  8589934592 cpu:               0.2 elap:               0.0
 (Enter /home/sabyasachi/g16/l308.exe)
 Leave Link  308 at Mon Mar 21 20:09:22 2022, MaxMem=  8589934592 cpu:               0.2 elap:               0.0
 (Enter /home/sabyasachi/g16/l401.exe)
 ExpMin= 6.71D-02 ExpMax= 2.27D+03 ExpMxC= 3.41D+02 IAcc=3 IRadAn=         5 AccDes= 0.00D+00
 Harris functional with IExCor= 1009 and IRadAn=       5 diagonalized for initial guess.
 HarFok:  IExCor= 1009 AccDes= 0.00D+00 IRadAn=         5 IDoV= 1 UseB2=F ITyADJ=14
 ICtDFT=  3500011 ScaDFX=  1.000000  1.000000  1.000000  1.000000
 FoFCou: FMM=F IPFlag=           0 FMFlag=      100000 FMFlg1=           0
         NFxFlg=           0 DoJE=T BraDBF=F KetDBF=T FulRan=T
         wScrn=  0.000000 ICntrl=       500 IOpCl=  0 I1Cent=   200000004 NGrid=           0
         NMat0=    1 NMatS0=      1 NMatT0=    0 NMatD0=    1 NMtDS0=    0 NMtDT0=    0
 Petite list used in FoFCou.
 Harris En= -169.636375986232    
 JPrj=0 DoOrth=F DoCkMO=F.
 Leave Link  401 at Mon Mar 21 20:09:23 2022, MaxMem=  8589934592 cpu:               2.3 elap:               0.3
 (Enter /home/sabyasachi/g16/l502.exe)
 Keep J ints in memory in canonical form, NReq=14676030.
 FoFCou: FMM=F IPFlag=           0 FMFlag=           0 FMFlg1=           0
         NFxFlg=           0 DoJE=F BraDBF=F KetDBF=F FulRan=T
         wScrn=  0.000000 ICntrl=       600 IOpCl=  0 I1Cent=           0 NGrid=           0
         NMat0=    1 NMatS0=   3828 NMatT0=    0 NMatD0=    1 NMtDS0=    0 NMtDT0=    0
 Symmetry not used in FoFCou.
 Two-electron integral symmetry not used.
 Closed shell SCF:
 Using DIIS extrapolation, IDIIS=  1040.
 NGot=  8589934592 LenX=  8582586684 LenY=  8582577594
 Requested convergence on RMS density matrix=1.00D-08 within 100 cycles.
 Requested convergence on MAX density matrix=1.00D-06.
 Requested convergence on             energy=1.00D-06.
 No special actions if energy rises.
 Integral accuracy reduced to 1.0D-05 until final iterations.

 Cycle   1  Pass 0  IDiag  1:
 E= -169.507877948499    
 DIIS: error= 3.09D-02 at cycle   1 NSaved=   1.
 NSaved= 1 IEnMin= 1 EnMin= -169.507877948499     IErMin= 1 ErrMin= 3.09D-02
 ErrMax= 3.09D-02  0.00D+00 EMaxC= 1.00D-01 BMatC= 9.95D-02 BMatP= 9.95D-02
 IDIUse=3 WtCom= 6.91D-01 WtEn= 3.09D-01
 Coeff-Com:  0.100D+01
 Coeff-En:   0.100D+01
 Coeff:      0.100D+01
 Gap=     0.186 Goal=   None    Shift=    0.000
 GapD=    0.186 DampG=1.000 DampE=0.500 DampFc=0.5000 IDamp=-1.
 Damping current iteration by 5.00D-01
 RMSDP=2.75D-02 MaxDP=1.24D+00              OVMax= 4.33D-01

 Cycle   2  Pass 0  IDiag  1:
 E= -169.421981038895     Delta-E=        0.085896909604 Rises=F Damp=T
 DIIS: error= 2.55D-02 at cycle   2 NSaved=   2.
 NSaved= 2 IEnMin= 1 EnMin= -169.507877948499     IErMin= 2 ErrMin= 2.55D-02
 ErrMax= 2.55D-02  0.00D+00 EMaxC= 1.00D-01 BMatC= 9.17D-02 BMatP= 9.95D-02
 IDIUse=3 WtCom= 7.45D-01 WtEn= 2.55D-01
 Coeff-Com:  0.489D+00 0.511D+00
 Coeff-En:   0.683D+00 0.317D+00
 Coeff:      0.538D+00 0.462D+00
 Gap=     0.180 Goal=   None    Shift=    0.000
 RMSDP=1.17D-02 MaxDP=5.45D-01 DE= 8.59D-02 OVMax= 3.49D-01

 Cycle   3  Pass 0  IDiag  1:
 E= -169.570812365814     Delta-E=       -0.148831326919 Rises=F Damp=F
 DIIS: error= 1.55D-02 at cycle   3 NSaved=   3.
 NSaved= 3 IEnMin= 3 EnMin= -169.570812365814     IErMin= 3 ErrMin= 1.55D-02
 ErrMax= 1.55D-02  0.00D+00 EMaxC= 1.00D-01 BMatC= 2.86D-02 BMatP= 9.17D-02
 IDIUse=3 WtCom= 8.45D-01 WtEn= 1.55D-01
 Coeff-Com:  0.309D+00 0.335D+00 0.356D+00
 Coeff-En:   0.108D+00 0.000D+00 0.892D+00
 Coeff:      0.278D+00 0.283D+00 0.439D+00
 Gap=     0.191 Goal=   None    Shift=    0.000
 RMSDP=2.04D-03 MaxDP=6.54D-02 DE=-1.49D-01 OVMax= 1.03D-01

 Cycle   4  Pass 0  IDiag  1:
 E= -169.591582115209     Delta-E=       -0.020769749395 Rises=F Damp=F
 DIIS: error= 7.78D-03 at cycle   4 NSaved=   4.
 NSaved= 4 IEnMin= 4 EnMin= -169.591582115209     IErMin= 4 ErrMin= 7.78D-03
 ErrMax= 7.78D-03  0.00D+00 EMaxC= 1.00D-01 BMatC= 5.63D-03 BMatP= 2.86D-02
 IDIUse=3 WtCom= 9.22D-01 WtEn= 7.78D-02
 Coeff-Com:  0.848D-01 0.628D-01 0.301D+00 0.551D+00
 Coeff-En:   0.000D+00 0.000D+00 0.212D+00 0.788D+00
 Coeff:      0.782D-01 0.580D-01 0.294D+00 0.570D+00
 Gap=     0.194 Goal=   None    Shift=    0.000
 RMSDP=7.46D-04 MaxDP=2.13D-02 DE=-2.08D-02 OVMax= 3.71D-02

 Cycle   5  Pass 0  IDiag  1:
 E= -169.596317795849     Delta-E=       -0.004735680640 Rises=F Damp=F
 DIIS: error= 9.59D-04 at cycle   5 NSaved=   5.
 NSaved= 5 IEnMin= 5 EnMin= -169.596317795849     IErMin= 5 ErrMin= 9.59D-04
 ErrMax= 9.59D-04  0.00D+00 EMaxC= 1.00D-01 BMatC= 1.40D-04 BMatP= 5.63D-03
 IDIUse=3 WtCom= 9.90D-01 WtEn= 9.59D-03
 Coeff-Com:  0.134D-01 0.326D-02 0.117D+00 0.298D+00 0.569D+00
 Coeff-En:   0.000D+00 0.000D+00 0.000D+00 0.000D+00 0.100D+01
 Coeff:      0.133D-01 0.323D-02 0.115D+00 0.295D+00 0.573D+00
 Gap=     0.194 Goal=   None    Shift=    0.000
 RMSDP=1.68D-04 MaxDP=3.71D-03 DE=-4.74D-03 OVMax= 5.32D-03

 Cycle   6  Pass 0  IDiag  1:
 E= -169.596448809480     Delta-E=       -0.000131013631 Rises=F Damp=F
 DIIS: error= 2.65D-04 at cycle   6 NSaved=   6.
 NSaved= 6 IEnMin= 6 EnMin= -169.596448809480     IErMin= 6 ErrMin= 2.65D-04
 ErrMax= 2.65D-04  0.00D+00 EMaxC= 1.00D-01 BMatC= 1.08D-05 BMatP= 1.40D-04
 IDIUse=3 WtCom= 9.97D-01 WtEn= 2.65D-03
 Coeff-Com:  0.255D-02-0.217D-02 0.327D-01 0.873D-01 0.278D+00 0.602D+00
 Coeff-En:   0.000D+00 0.000D+00 0.000D+00 0.000D+00 0.234D-01 0.977D+00
 Coeff:      0.255D-02-0.216D-02 0.326D-01 0.870D-01 0.277D+00 0.603D+00
 Gap=     0.194 Goal=   None    Shift=    0.000
 RMSDP=4.06D-05 MaxDP=7.90D-04 DE=-1.31D-04 OVMax= 1.24D-03

 Cycle   7  Pass 0  IDiag  1:
 E= -169.596459822184     Delta-E=       -0.000011012704 Rises=F Damp=F
 DIIS: error= 4.18D-05 at cycle   7 NSaved=   7.
 NSaved= 7 IEnMin= 7 EnMin= -169.596459822184     IErMin= 7 ErrMin= 4.18D-05
 ErrMax= 4.18D-05  0.00D+00 EMaxC= 1.00D-01 BMatC= 2.82D-07 BMatP= 1.08D-05
 IDIUse=1 WtCom= 1.00D+00 WtEn= 0.00D+00
 Coeff-Com:  0.906D-03-0.985D-03 0.617D-02 0.154D-01 0.708D-01 0.193D+00
 Coeff-Com:  0.715D+00
 Coeff:      0.906D-03-0.985D-03 0.617D-02 0.154D-01 0.708D-01 0.193D+00
 Coeff:      0.715D+00
 Gap=     0.194 Goal=   None    Shift=    0.000
 RMSDP=6.07D-06 MaxDP=9.03D-05 DE=-1.10D-05 OVMax= 1.60D-04

 Initial convergence to 1.0D-05 achieved.  Increase integral accuracy.
 Cycle   8  Pass 1  IDiag  1:
 E= -169.596459071247     Delta-E=        0.000000750938 Rises=F Damp=F
 DIIS: error= 8.29D-06 at cycle   1 NSaved=   1.
 NSaved= 1 IEnMin= 1 EnMin= -169.596459071247     IErMin= 1 ErrMin= 8.29D-06
 ErrMax= 8.29D-06  0.00D+00 EMaxC= 1.00D-01 BMatC= 1.05D-08 BMatP= 1.05D-08
 IDIUse=1 WtCom= 1.00D+00 WtEn= 0.00D+00
 Coeff-Com:  0.100D+01
 Coeff:      0.100D+01
 Gap=     0.194 Goal=   None    Shift=    0.000
 RMSDP=6.07D-06 MaxDP=9.03D-05 DE= 7.51D-07 OVMax= 1.25D-04

 Cycle   9  Pass 1  IDiag  1:
 E= -169.596459032588     Delta-E=        0.000000038659 Rises=F Damp=F
 DIIS: error= 2.41D-05 at cycle   2 NSaved=   2.
 NSaved= 2 IEnMin= 1 EnMin= -169.596459071247     IErMin= 1 ErrMin= 8.29D-06
 ErrMax= 2.41D-05  0.00D+00 EMaxC= 1.00D-01 BMatC= 5.86D-08 BMatP= 1.05D-08
 IDIUse=1 WtCom= 1.00D+00 WtEn= 0.00D+00
 Coeff-Com:  0.713D+00 0.287D+00
 Coeff:      0.713D+00 0.287D+00
 Gap=     0.194 Goal=   None    Shift=    0.000
 RMSDP=2.71D-06 MaxDP=6.87D-05 DE= 3.87D-08 OVMax= 1.11D-04

 Cycle  10  Pass 1  IDiag  1:
 E= -169.596459079551     Delta-E=       -0.000000046963 Rises=F Damp=F
 DIIS: error= 5.32D-06 at cycle   3 NSaved=   3.
 NSaved= 3 IEnMin= 3 EnMin= -169.596459079551     IErMin= 3 ErrMin= 5.32D-06
 ErrMax= 5.32D-06  0.00D+00 EMaxC= 1.00D-01 BMatC= 2.83D-09 BMatP= 1.05D-08
 IDIUse=1 WtCom= 1.00D+00 WtEn= 0.00D+00
 Coeff-Com:  0.373D+00 0.198D+00 0.430D+00
 Coeff:      0.373D+00 0.198D+00 0.430D+00
 Gap=     0.194 Goal=   None    Shift=    0.000
 RMSDP=5.18D-07 MaxDP=1.16D-05 DE=-4.70D-08 OVMax= 2.22D-05

 Cycle  11  Pass 1  IDiag  1:
 E= -169.596459081912     Delta-E=       -0.000000002361 Rises=F Damp=F
 DIIS: error= 8.20D-07 at cycle   4 NSaved=   4.
 NSaved= 4 IEnMin= 4 EnMin= -169.596459081912     IErMin= 4 ErrMin= 8.20D-07
 ErrMax= 8.20D-07  0.00D+00 EMaxC= 1.00D-01 BMatC= 1.01D-10 BMatP= 2.83D-09
 IDIUse=1 WtCom= 1.00D+00 WtEn= 0.00D+00
 Coeff-Com:  0.112D+00 0.691D-01 0.208D+00 0.611D+00
 Coeff:      0.112D+00 0.691D-01 0.208D+00 0.611D+00
 Gap=     0.194 Goal=   None    Shift=    0.000
 RMSDP=1.15D-07 MaxDP=3.12D-06 DE=-2.36D-09 OVMax= 3.74D-06

 Cycle  12  Pass 1  IDiag  1:
 E= -169.596459081989     Delta-E=       -0.000000000078 Rises=F Damp=F
 DIIS: error= 3.34D-07 at cycle   5 NSaved=   5.
 NSaved= 5 IEnMin= 5 EnMin= -169.596459081989     IErMin= 5 ErrMin= 3.34D-07
 ErrMax= 3.34D-07  0.00D+00 EMaxC= 1.00D-01 BMatC= 1.33D-11 BMatP= 1.01D-10
 IDIUse=1 WtCom= 1.00D+00 WtEn= 0.00D+00
 Coeff-Com:  0.285D-01 0.210D-01 0.702D-01 0.325D+00 0.556D+00
 Coeff:      0.285D-01 0.210D-01 0.702D-01 0.325D+00 0.556D+00
 Gap=     0.194 Goal=   None    Shift=    0.000
 RMSDP=4.48D-08 MaxDP=1.24D-06 DE=-7.75D-11 OVMax= 1.60D-06

 Cycle  13  Pass 1  IDiag  1:
 E= -169.596459082001     Delta-E=       -0.000000000011 Rises=F Damp=F
 DIIS: error= 1.47D-07 at cycle   6 NSaved=   6.
 NSaved= 6 IEnMin= 6 EnMin= -169.596459082001     IErMin= 6 ErrMin= 1.47D-07
 ErrMax= 1.47D-07  0.00D+00 EMaxC= 1.00D-01 BMatC= 2.28D-12 BMatP= 1.33D-11
 IDIUse=1 WtCom= 1.00D+00 WtEn= 0.00D+00
 Coeff-Com:  0.118D-02 0.283D-02 0.127D-01 0.108D+00 0.339D+00 0.536D+00
 Coeff:      0.118D-02 0.283D-02 0.127D-01 0.108D+00 0.339D+00 0.536D+00
 Gap=     0.194 Goal=   None    Shift=    0.000
 RMSDP=1.60D-08 MaxDP=4.00D-07 DE=-1.14D-11 OVMax= 6.14D-07

 Cycle  14  Pass 1  IDiag  1:
 E= -169.596459082002     Delta-E=       -0.000000000001 Rises=F Damp=F
 DIIS: error= 1.56D-08 at cycle   7 NSaved=   7.
 NSaved= 7 IEnMin= 7 EnMin= -169.596459082002     IErMin= 7 ErrMin= 1.56D-08
 ErrMax= 1.56D-08  0.00D+00 EMaxC= 1.00D-01 BMatC= 3.52D-14 BMatP= 2.28D-12
 IDIUse=1 WtCom= 1.00D+00 WtEn= 0.00D+00
 Coeff-Com: -0.669D-03 0.284D-03 0.243D-02 0.287D-01 0.111D+00 0.222D+00
 Coeff-Com:  0.637D+00
 Coeff:     -0.669D-03 0.284D-03 0.243D-02 0.287D-01 0.111D+00 0.222D+00
 Coeff:      0.637D+00
 Gap=     0.194 Goal=   None    Shift=    0.000
 RMSDP=3.46D-09 MaxDP=6.40D-08 DE=-1.14D-12 OVMax= 7.78D-08

 SCF Done:  E(RPBE-PBE) =  -169.596459082     A.U. after   14 cycles
            NFock= 14  Conv=0.35D-08     -V/T= 2.0086
 KE= 1.681518099352D+02 PE=-5.401913819300D+02 EE= 1.309221190830D+02
 Leave Link  502 at Mon Mar 21 20:09:24 2022, MaxMem=  8589934592 cpu:              14.8 elap:               2.0
 (Enter /home/sabyasachi/g16/l801.exe)
 DoSCS=F DFT=T ScalE2(SS,OS)=  1.000000  1.000000
 ExpMin= 6.71D-02 ExpMax= 2.27D+03 ExpMxC= 3.41D+02 IAcc=3 IRadAn=         5 AccDes= 0.00D+00
 HarFok:  IExCor=  205 AccDes= 0.00D+00 IRadAn=         5 IDoV=-2 UseB2=F ITyADJ=14
 ICtDFT= 12500011 ScaDFX=  1.000000  1.000000  1.000000  1.000000
 Largest valence mixing into a core orbital is  6.60D-05
 Largest core mixing into a valence orbital is  1.13D-05
 Range of M.O.s used for correlation:     4    87
 NBasis=    87 NAE=    12 NBE=    12 NFC=     3 NFV=     0
 NROrb=     84 NOA=     9 NOB=     9 NVA=    75 NVB=    75

 **** Warning!!: The largest alpha MO coefficient is  0.22677376D+02

 Leave Link  801 at Mon Mar 21 20:09:25 2022, MaxMem=  8589934592 cpu:               0.5 elap:               0.1
 (Enter /home/sabyasachi/g16/l914.exe)
 RHF ground state
 Keep J ints in memory in canonical form, NReq=499019162.
 FoFCou: FMM=F IPFlag=           0 FMFlag=           0 FMFlg1=           0
         NFxFlg=           0 DoJE=F BraDBF=F KetDBF=F FulRan=T
         wScrn=  0.000000 ICntrl=       600 IOpCl=  0 I1Cent=           0 NGrid=           0
         NMat0=    1 NMatS0=   3828 NMatT0=    0 NMatD0=    1 NMtDS0=    0 NMtDT0=    0
 Symmetry not used in FoFCou.
 Two-electron integral symmetry not used.
 MDV=  8589934592 DFT=T DoStab=F Mixed=F DoRPA=T DoScal=T NonHer=F
 Making orbital integer symmetry assigments:
 Orbital symmetries:
       Occupied  (A) (A) (A) (A) (A) (A) (A) (A) (A) (A) (A) (A)
       Virtual   (A) (A) (A) (A) (A) (A) (A) (A) (A) (A) (A) (A)
                 (A) (A) (A) (A) (A) (A) (A) (A) (A) (A) (A) (A)
                 (A) (A) (A) (A) (A) (A) (A) (A) (A) (A) (A) (A)
                 (A) (A) (A) (A) (A) (A) (A) (A) (A) (A) (A) (A)
                 (A) (A) (A) (A) (A) (A) (A) (A) (A) (A) (A) (A)
                 (A) (A) (A) (A) (A) (A) (A) (A) (A) (A) (A) (A)
                 (A) (A) (A)
   675 initial guesses have been made.
 Convergence on wavefunction:    0.001000000000000
 Davidson Disk Diagonalization:  ConvIn= 1.00D-03 SkipCon=T Conv= 1.00D-03.
 Max sub-space:  2700 roots to seek:  1350 dimension of matrix:         1350
 *** WARNING: Number of orthogonal guesses is          675
 Iteration     1 Dimension   675 NMult     0 NNew    675
 CISAX will form   675 AO SS matrices at one time.
 NMat=   675 NSing=   675 JSym2X= 0.
 New state      3 was old state      5
 New state      5 was old state      6
 New state      6 was old state      3
 New state      8 was old state      9
 New state      9 was old state      8
 New state     13 was old state     16
 New state     14 was old state     15
 New state     15 was old state     13
 New state     16 was old state     17
 New state     17 was old state     18
 New state     18 was old state     19
 New state     19 was old state     20
 New state     20 was old state     21
 New state     21 was old state     22
 New state     22 was old state     23
 New state     23 was old state     24
 New state     24 was old state     14
 New state     26 was old state     27
 New state     27 was old state     29
 New state     28 was old state     26
 New state     29 was old state     30
 New state     30 was old state     28
 New state     32 was old state     34
 New state     33 was old state     32
 New state     34 was old state     33
 New state     35 was old state     36
 New state     36 was old state     35
 New state     37 was old state     39
 New state     38 was old state     40
 New state     39 was old state     38
 New state     40 was old state     37
 New state     42 was old state     43
 New state     43 was old state     44
 New state     44 was old state     46
 New state     45 was old state     42
 New state     46 was old state     45
 New state     47 was old state     48
 New state     48 was old state     47
 New state     49 was old state     50
 New state     50 was old state     49
 New state     55 was old state     56
 New state     56 was old state     55
 New state     57 was old state     58
 New state     58 was old state     57
 New state     59 was old state     60
 New state     60 was old state     59
 New state     61 was old state     62
 New state     62 was old state     63
 New state     63 was old state     65
 New state     64 was old state     66
 New state     65 was old state     67
 New state     66 was old state     76
 New state     67 was old state     69
 New state     69 was old state     71
 New state     71 was old state     72
 New state     72 was old state     74
 New state     74 was old state     64
 New state     76 was old state     77
 New state     77 was old state     78
 New state     78 was old state     80
 New state     80 was old state     81
 New state     81 was old state     82
 New state     82 was old state     85
 New state     84 was old state     87
 New state     85 was old state     88
 New state     86 was old state     84
 New state     87 was old state     86
 New state     88 was old state     90
 New state     90 was old state     91
 New state     91 was old state     92
 New state     92 was old state     94
 New state     94 was old state     95
 New state     95 was old state     97
 New state     97 was old state     98
 New state     98 was old state     99
 New state     99 was old state    108
 New state    102 was old state    103
 New state    103 was old state    102
 New state    105 was old state    107
 New state    107 was old state    110
 New state    108 was old state    105
 New state    109 was old state    111
 New state    110 was old state    112
 New state    111 was old state    114
 New state    112 was old state    113
 New state    113 was old state    120
 New state    114 was old state    115
 New state    115 was old state    117
 New state    116 was old state    118
 New state    117 was old state    116
 New state    118 was old state    121
 New state    119 was old state    123
 New state    120 was old state    119
 New state    121 was old state    122
 New state    122 was old state    134
 New state    123 was old state    124
 New state    124 was old state    125
 New state    125 was old state    126
 New state    126 was old state    128
 New state    128 was old state    131
 New state    131 was old state    132
 New state    132 was old state    136
 New state    134 was old state    135
 New state    135 was old state    137
 New state    136 was old state    139
 New state    137 was old state    138
 New state    138 was old state    141
 New state    139 was old state    142
 New state    141 was old state    144
 New state    142 was old state    145
 New state    143 was old state    147
 New state    144 was old state    143
 New state    145 was old state    146
 New state    146 was old state    148
 New state    147 was old state    152
 New state    148 was old state    149
 New state    149 was old state    154
 New state    152 was old state    155
 New state    154 was old state    156
 New state    155 was old state    158
 New state    156 was old state    159
 New state    157 was old state    160
 New state    158 was old state    162
 New state    159 was old state    161
 New state    160 was old state    164
 New state    161 was old state    157
 New state    162 was old state    163
 New state    163 was old state    165
 New state    164 was old state    167
 New state    165 was old state    168
 New state    166 was old state    183
 New state    167 was old state    169
 New state    168 was old state    166
 New state    169 was old state    172
 New state    170 was old state    173
 New state    171 was old state    170
 New state    172 was old state    174
 New state    173 was old state    171
 New state    174 was old state    179
 New state    175 was old state    176
 New state    176 was old state    175
 New state    178 was old state    180
 New state    179 was old state    178
 New state    180 was old state    182
 New state    181 was old state    185
 New state    182 was old state    184
 New state    183 was old state    181
 New state    184 was old state    186
 New state    185 was old state    187
 New state    186 was old state    197
 New state    187 was old state    188
 New state    188 was old state    191
 New state    190 was old state    193
 New state    191 was old state    190
 New state    192 was old state    194
 New state    193 was old state    195
 New state    194 was old state    198
 New state    195 was old state    196
 New state    196 was old state    199
 New state    197 was old state    200
 New state    198 was old state    202
 New state    199 was old state    201
 New state    200 was old state    204
 New state    201 was old state    207
 New state    202 was old state    205
 New state    203 was old state    206
 New state    204 was old state    211
 New state    205 was old state    212
 New state    206 was old state    210
 New state    207 was old state    209
 New state    208 was old state    213
 New state    209 was old state    208
 New state    210 was old state    216
 New state    211 was old state    203
 New state    212 was old state    214
 New state    213 was old state    220
 New state    214 was old state    222
 New state    216 was old state    218
 New state    217 was old state    219
 New state    218 was old state    224
 New state    219 was old state    221
 New state    220 was old state    217
 New state    221 was old state    223
 New state    222 was old state    225
 New state    223 was old state    229
 New state    224 was old state    232
 New state    225 was old state    226
 New state    226 was old state    227
 New state    227 was old state    228
 New state    228 was old state    230
 New state    229 was old state    233
 New state    230 was old state    231
 New state    231 was old state    235
 New state    232 was old state    241
 New state    233 was old state    234
 New state    234 was old state    243
 New state    235 was old state    242
 New state    239 was old state    240
 New state    240 was old state    245
 New state    241 was old state    244
 New state    242 was old state    258
 New state    243 was old state    239
 New state    244 was old state    247
 New state    245 was old state    246
 New state    246 was old state    248
 New state    247 was old state    261
 New state    248 was old state    250
 New state    249 was old state    252
 New state    250 was old state    253
 New state    252 was old state    254
 New state    253 was old state    256
 New state    254 was old state    249
 New state    256 was old state    257
 New state    257 was old state    259
 New state    258 was old state    260
 New state    259 was old state    262
 New state    260 was old state    265
 New state    261 was old state    264
 New state    262 was old state    263
 New state    263 was old state    266
 New state    264 was old state    267
 New state    265 was old state    272
 New state    266 was old state    270
 New state    267 was old state    268
 New state    268 was old state    269
 New state    269 was old state    279
 New state    270 was old state    271
 New state    271 was old state    305
 New state    272 was old state    273
 New state    273 was old state    275
 New state    275 was old state    284
 New state    278 was old state    281
 New state    279 was old state    278
 New state    280 was old state    282
 New state    281 was old state    280
 New state    282 was old state    283
 New state    283 was old state    289
 New state    284 was old state    286
 New state    286 was old state    287
 New state    287 was old state    288
 New state    288 was old state    321
 New state    289 was old state    296
 New state    290 was old state    292
 New state    292 was old state    290
 No map to state    295
 New state    296 was old state    297
 New state    297 was old state    295
 New state    298 was old state    299
 New state    299 was old state    298
 New state    303 was old state    306
 New state    305 was old state    307
 New state    306 was old state    308
 New state    307 was old state    303
 New state    308 was old state    309
 New state    309 was old state    310
 New state    310 was old state    312
 New state    311 was old state    313
 New state    312 was old state    314
 New state    313 was old state    311
 New state    314 was old state    315
 New state    315 was old state    316
 New state    316 was old state    317
 New state    317 was old state    319
 New state    319 was old state    320
 New state    320 was old state    322
 New state    321 was old state    323
 New state    322 was old state    324
 New state    323 was old state    325
 New state    324 was old state    326
 New state    325 was old state    327
 New state    326 was old state    329
 New state    327 was old state    328
 New state    328 was old state    330
 New state    329 was old state    335
 New state    330 was old state    331
 New state    331 was old state    332
 New state    332 was old state    339
 New state    335 was old state    338
 New state    338 was old state    341
 New state    339 was old state    340
 New state    340 was old state    342
 New state    341 was old state    347
 No map to state    342
 New state    344 was old state    345
 New state    345 was old state    344
 New state    347 was old state    349
 New state    349 was old state    350
 New state    350 was old state    351
 New state    351 was old state    354
 New state    353 was old state    355
 New state    354 was old state    353
 New state    355 was old state    357
 New state    356 was old state    358
 New state    357 was old state    356
 New state    358 was old state    360
 New state    360 was old state    361
 New state    361 was old state    362
 New state    362 was old state    363
 New state    363 was old state    366
 New state    366 was old state    367
 New state    367 was old state    369
 New state    368 was old state    370
 New state    369 was old state    368
 New state    370 was old state    372
 New state    372 was old state    373
 New state    373 was old state    374
 New state    374 was old state    375
 New state    375 was old state    379
 New state    376 was old state    377
 New state    377 was old state    376
 New state    378 was old state    381
 New state    379 was old state    380
 New state    380 was old state    382
 New state    381 was old state    378
 New state    382 was old state    383
 New state    383 was old state    384
 New state    384 was old state    386
 New state    386 was old state    387
 New state    387 was old state    391
 New state    389 was old state    390
 New state    390 was old state    393
 New state    391 was old state    389
 New state    393 was old state    394
 New state    394 was old state    395
 New state    395 was old state    397
 New state    397 was old state    398
 New state    398 was old state    401
 New state    401 was old state    402
 New state    402 was old state    404
 New state    404 was old state    406
 New state    406 was old state    408
 New state    408 was old state    409
 New state    409 was old state    410
 New state    410 was old state    411
 New state    411 was old state    412
 New state    412 was old state    414
 New state    413 was old state    415
 New state    414 was old state    416
 New state    415 was old state    413
 New state    416 was old state    417
 New state    417 was old state    419
 New state    419 was old state    421
 New state    420 was old state    422
 New state    421 was old state    423
 New state    422 was old state    420
 New state    423 was old state    425
 New state    424 was old state    428
 New state    425 was old state    429
 New state    427 was old state    424
 New state    428 was old state    430
 New state    429 was old state    427
 New state    430 was old state    431
 New state    431 was old state    440
 New state    432 was old state    433
 New state    433 was old state    432
 New state    434 was old state    435
 New state    435 was old state    434
 New state    440 was old state    442
 New state    442 was old state    445
 New state    444 was old state    446
 New state    445 was old state    444
 New state    446 was old state    447
 New state    447 was old state    448
 New state    448 was old state    454
 New state    449 was old state    451
 New state    450 was old state    449
 New state    451 was old state    453
 New state    453 was old state    450
 New state    454 was old state    455
 New state    455 was old state    456
 New state    456 was old state    457
 New state    457 was old state    458
 New state    458 was old state    459
 New state    459 was old state    460
 New state    460 was old state    461
 New state    461 was old state    462
 New state    462 was old state    463
 New state    463 was old state    465
 New state    464 was old state    466
 New state    465 was old state    467
 New state    466 was old state    468
 New state    467 was old state    470
 New state    468 was old state    469
 New state    469 was old state    464
 New state    470 was old state    471
 New state    471 was old state    473
 New state    473 was old state    474
 New state    474 was old state    476
 New state    475 was old state    480
 New state    476 was old state    477
 New state    477 was old state    478
 New state    478 was old state    479
 New state    479 was old state    483
 New state    480 was old state    481
 New state    481 was old state    482
 New state    482 was old state    475
 New state    483 was old state    485
 New state    485 was old state    486
 New state    486 was old state    490
 New state    487 was old state    488
 New state    488 was old state    489
 New state    489 was old state    487
 New state    490 was old state    491
 New state    491 was old state    492
 New state    492 was old state    493
 New state    493 was old state    498
 New state    494 was old state    495
 New state    495 was old state    496
 New state    496 was old state    494
 New state    498 was old state    500
 New state    499 was old state    502
 New state    500 was old state    499
 New state    501 was old state    503
 New state    502 was old state    501
 New state    503 was old state    505
 New state    505 was old state    510
 New state    508 was old state    511
 New state    509 was old state    508
 New state    510 was old state    509
 New state    511 was old state    513
 New state    512 was old state    515
 New state    513 was old state    514
 New state    514 was old state    516
 New state    515 was old state    512
 New state    516 was old state    517
 New state    517 was old state    518
 New state    518 was old state    524
 New state    519 was old state    522
 New state    522 was old state    523
 New state    523 was old state    519
 New state    524 was old state    538
 New state    527 was old state    529
 New state    528 was old state    527
 New state    529 was old state    528
 New state    538 was old state    540
 New state    540 was old state    543
 New state    543 was old state    544
 New state    544 was old state    546
 New state    545 was old state    548
 New state    546 was old state    545
 New state    548 was old state    549
 New state    549 was old state    550
 New state    550 was old state    551
 New state    551 was old state    556
 New state    554 was old state    555
 New state    555 was old state    558
 New state    556 was old state    554
 New state    557 was old state    559
 New state    558 was old state    557
 New state    559 was old state    563
 New state    560 was old state    561
 New state    561 was old state    560
 New state    563 was old state    564
 New state    564 was old state    566
 New state    566 was old state    569
 New state    568 was old state    571
 New state    569 was old state    570
 New state    570 was old state    568
 New state    571 was old state    572
 New state    572 was old state    574
 New state    574 was old state    575
 New state    575 was old state    576
 New state    576 was old state    585
 New state    578 was old state    579
 New state    579 was old state    578
 New state    582 was old state    583
 New state    583 was old state    582
 New state    585 was old state    586
 New state    586 was old state    587
 New state    587 was old state    589
 New state    588 was old state    590
 New state    589 was old state    593
 New state    590 was old state    592
 New state    591 was old state    598
 New state    592 was old state    601
 New state    593 was old state    594
 New state    594 was old state    595
 New state    595 was old state    588
 New state    598 was old state    599
 New state    599 was old state    600
 New state    600 was old state    603
 New state    601 was old state    602
 New state    602 was old state    605
 New state    603 was old state    604
 New state    604 was old state    623
 New state    605 was old state    606
 New state    606 was old state    607
 New state    607 was old state    611
 New state    608 was old state    609
 New state    609 was old state    608
 New state    611 was old state    612
 New state    612 was old state    614
 New state    613 was old state    617
 New state    614 was old state    613
 New state    616 was old state    618
 New state    617 was old state    616
 New state    618 was old state    619
 New state    619 was old state    620
 New state    620 was old state    624
 New state    623 was old state    625
 New state    624 was old state    633
 New state    625 was old state    626
 New state    626 was old state    629
 New state    629 was old state    631
 New state    631 was old state    634
 No map to state    633
 New state    634 was old state    636
 No map to state    636
 New state    638 was old state    639
 New state    639 was old state    640
 New state    640 was old state    638
 New state    642 was old state    643
 New state    643 was old state    642
 New state    645 was old state    646
 New state    646 was old state    645
 New state    647 was old state    649
 New state    648 was old state    647
 New state    649 was old state    648
 New state    653 was old state    654
 New state    654 was old state    655
 New state    655 was old state    656
 New state    656 was old state    657
 New state    657 was old state    658
 New state    658 was old state    653
 New state    661 was old state    662
 New state    662 was old state    664
 New state    664 was old state    661
 New state    665 was old state    666
 New state    666 was old state    667
 New state    667 was old state    665
 Excitation Energies [eV] at current iteration:
 Root      1 :     5.489862958460223
 Root      2 :     6.060060964320711
 Root      3 :     6.804415590693882
 Root      4 :     6.820260782883198
 Root      5 :     7.580726806900656
 Root      6 :     7.676611053870647
 Root      7 :     7.806787815399312
 Root      8 :     8.596157162752448
 Root      9 :     8.644524909901163
 Root     10 :     8.676245844260121
 Root     11 :     9.066426791714902
 Root     12 :     9.309200934983727
 Root     13 :     9.521534177795747
 Root     14 :     9.633781629698438
 Root     15 :     9.710403588489159
 Root     16 :     9.831984107202866
 Root     17 :    10.014842487787280
 Root     18 :    10.136506664411730
 Root     19 :    10.216346247909220
 Root     20 :    10.387132629860530
 Root     21 :    10.478712229768480
 Root     22 :    10.667123973216200
 Root     23 :    10.837896350111120
 Root     24 :    10.882439780691450
 Root     25 :    10.918082546420970
 Root     26 :    11.030835726766800
 Root     27 :    11.302533887093910
 Root     28 :    11.355484375494270
 Root     29 :    11.478625058264270
 Root     30 :    11.521417827173480
 Root     31 :    11.937741215678000
 Root     32 :    11.959313738517850
 Root     33 :    12.003916339759900
 Root     34 :    12.145830852376060
 Root     35 :    12.558718380767700
 Root     36 :    12.581396564313240
 Root     37 :    12.683198137452920
 Root     38 :    12.728354421292990
 Root     39 :    12.790150297772470
 Root     40 :    12.811416674061010
 Root     41 :    13.035153780724560
 Root     42 :    13.067268221050910
 Root     43 :    13.178806497985390
 Root     44 :    13.381708090456230
 Root     45 :    13.403733871008960
 Root     46 :    13.439348197000320
 Root     47 :    13.594079460178850
 Root     48 :    13.666645682758100
 Root     49 :    13.768646876670540
 Root     50 :    13.832413113266530
 Root     51 :    13.917232700847980
 Root     52 :    14.195322561667650
 Root     53 :    14.253347163550930
 Root     54 :    14.320573414766730
 Root     55 :    14.504637015635760
 Root     56 :    14.535043633032890
 Root     57 :    14.561733258532660
 Root     58 :    14.602832062231980
 Root     59 :    14.653125903729110
 Root     60 :    14.654541544252330
 Root     61 :    14.766434139465120
 Root     62 :    14.815331185624820
 Root     63 :    14.877502841988140
 Root     64 :    15.010054149024220
 Root     65 :    15.057900896765970
 Root     66 :    15.128839087625370
 Root     67 :    15.134247073040740
 Root     68 :    15.216583185324620
 Root     69 :    15.326825427548830
 Root     70 :    15.350974588690860
 Root     71 :    15.480140490864480
 Root     72 :    15.489569911945470
 Root     73 :    15.670709214100630
 Root     74 :    15.725053690288010
 Root     75 :    15.793116700898270
 Root     76 :    15.855737739368070
 Root     77 :    16.021720172408010
 Root     78 :    16.080636441650630
 Root     79 :    16.088424198694130
 Root     80 :    16.203858867343320
 Root     81 :    16.489122551597290
 Root     82 :    16.534554656740910
 Root     83 :    16.569155736725940
 Root     84 :    16.662034808911860
 Root     85 :    16.717035250749050
 Root     86 :    16.731972724448660
 Root     87 :    16.746517222028220
 Root     88 :    16.817929925168780
 Root     89 :    16.848534500032500
 Root     90 :    16.902114894934460
 Root     91 :    16.956915106469610
 Root     92 :    17.042264344112620
 Root     93 :    17.208174214449600
 Root     94 :    17.297301355713680
 Root     95 :    17.407580466318410
 Root     96 :    17.420211347292590
 Root     97 :    17.644551178140950
 Root     98 :    17.662397825071600
 Root     99 :    17.671415592203020
 Root    100 :    17.749036119642210
 Root    101 :    18.229510748156360
 Root    102 :    18.275941990263270
 Root    103 :    18.294389745988820
 Root    104 :    18.367372210605520
 Root    105 :    18.485733952931540
 Root    106 :    18.491052921125340
 Root    107 :    18.562742816747670
 Root    108 :    18.590060661898590
 Root    109 :    18.630611840574760
 Root    110 :    18.661973235083540
 Root    111 :    18.752167814185710
 Root    112 :    18.770090374717400
 Root    113 :    18.801966166840460
 Root    114 :    18.845109363650910
 Root    115 :    18.911160064123160
 Root    116 :    19.060054918496290
 Root    117 :    19.133427993133730
 Root    118 :    19.169596338469070
 Root    119 :    19.241566331892980
 Root    120 :    19.312802460337910
 Root    121 :    19.331623552161620
 Root    122 :    19.410058303427110
 Root    123 :    19.414832363177860
 Root    124 :    19.478958112794000
 Root    125 :    19.793417676054580
 Root    126 :    19.833206471464530
 Root    127 :    19.951477156400980
 Root    128 :    20.070772006518110
 Root    129 :    20.105463523327430
 Root    130 :    20.186529452194310
 Root    131 :    20.260390572897680
 Root    132 :    20.300568533000520
 Root    133 :    20.394856760789790
 Root    134 :    20.572608532872670
 Root    135 :    20.611426958906530
 Root    136 :    20.632005676002730
 Root    137 :    20.693449143246260
 Root    138 :    20.702922962746690
 Root    139 :    20.741053857929320
 Root    140 :    20.778879934225490
 Root    141 :    20.893224660455010
 Root    142 :    20.938406857754710
 Root    143 :    20.940828821653240
 Root    144 :    20.999808243836560
 Root    145 :    21.151656182773950
 Root    146 :    21.159868977344970
 Root    147 :    21.223558774766530
 Root    148 :    21.261879450439700
 Root    149 :    21.305901958586130
 Root    150 :    21.592848189371050
 Root    151 :    21.733616775565900
 Root    152 :    21.777279953405800
 Root    153 :    21.895167352002320
 Root    154 :    21.908996592792310
 Root    155 :    21.983983443948520
 Root    156 :    22.273002884930530
 Root    157 :    22.280092265871460
 Root    158 :    22.383844271065550
 Root    159 :    22.401305650970100
 Root    160 :    22.452110631272620
 Root    161 :    22.555536882034040
 Root    162 :    22.610969357730710
 Root    163 :    22.712214933902580
 Root    164 :    22.729799313232370
 Root    165 :    22.776245550905990
 Root    166 :    22.797326209227030
 Root    167 :    22.896530733154570
 Root    168 :    22.985354880803510
 Root    169 :    23.054854249510640
 Root    170 :    23.106966324046970
 Root    171 :    23.124286852863150
 Root    172 :    23.248147085577840
 Root    173 :    23.369439780090530
 Root    174 :    23.499483037214410
 Root    175 :    23.539168855138260
 Root    176 :    23.560386241352600
 Root    177 :    23.691800567675650
 Root    178 :    23.791472480579830
 Root    179 :    23.874586184708690
 Root    180 :    23.974091369370060
 Root    181 :    24.012631969294440
 Root    182 :    24.057207843883000
 Root    183 :    24.125525289443630
 Root    184 :    24.253421685318230
 Root    185 :    24.282752905520580
 Root    186 :    24.389946101355790
 Root    187 :    24.403332477312120
 Root    188 :    24.447577713007410
 Root    189 :    24.592488413483840
 Root    190 :    24.601465742945900
 Root    191 :    24.613462548748360
 Root    192 :    24.667208267557250
 Root    193 :    24.707492857610300
 Root    194 :    24.768885091437240
 Root    195 :    24.799544831904700
 Root    196 :    24.888283787572910
 Root    197 :    24.907106345904600
 Root    198 :    25.053476532226910
 Root    199 :    25.124305994523000
 Root    200 :    25.167994885377920
 Root    201 :    25.405421684422900
 Root    202 :    25.444711370100010
 Root    203 :    25.455494106976060
 Root    204 :    25.546513713103640
 Root    205 :    25.597644247217560
 Root    206 :    25.708302497064740
 Root    207 :    25.767192925446950
 Root    208 :    25.774226801738720
 Root    209 :    25.820394203297700
 Root    210 :    25.896555888411550
 Root    211 :    25.961045908568530
 Root    212 :    26.115106269361500
 Root    213 :    26.198762256328780
 Root    214 :    26.210961910331210
 Root    215 :    26.286920243465140
 Root    216 :    26.294886222627090
 Root    217 :    26.355276205502510
 Root    218 :    26.361844472027490
 Root    219 :    26.425930280612600
 Root    220 :    26.467043125752800
 Root    221 :    26.523792712407670
 Root    222 :    26.651438403846400
 Root    223 :    26.705287306631140
 Root    224 :    26.835164814869090
 Root    225 :    26.847943668100950
 Root    226 :    26.955430286082570
 Root    227 :    27.169381093640490
 Root    228 :    27.240798266413440
 Root    229 :    27.248664167208770
 Root    230 :    27.302516284220660
 Root    231 :    27.460371465440710
 Root    232 :    27.511487897042340
 Root    233 :    27.651261350730940
 Root    234 :    27.682326403181870
 Root    235 :    27.764959159107780
 Root    236 :    27.843619537033960
 Root    237 :    27.938752830107160
 Root    238 :    27.964184247128780
 Root    239 :    28.037038424480490
 Root    240 :    28.198975809160720
 Root    241 :    28.208252451016130
 Root    242 :    28.210223977460710
 Root    243 :    28.365177616148760
 Root    244 :    28.460708934190720
 Root    245 :    28.573836080143050
 Root    246 :    28.643308531384560
 Root    247 :    28.712068153043320
 Root    248 :    28.802582905374020
 Root    249 :    28.884089262452040
 Root    250 :    28.934567691426210
 Root    251 :    28.961499115989970
 Root    252 :    28.978798686142020
 Root    253 :    29.007129133507730
 Root    254 :    29.066743551513750
 Root    255 :    29.249499998585350
 Root    256 :    29.426864974523040
 Root    257 :    29.470281954892260
 Root    258 :    29.490865343339540
 Root    259 :    29.564694038139850
 Root    260 :    29.620209800125130
 Root    261 :    29.663788357532920
 Root    262 :    29.710551079095480
 Root    263 :    29.722611966342180
 Root    264 :    30.076993697624090
 Root    265 :    30.094637292149470
 Root    266 :    30.162306222683500
 Root    267 :    30.168466952513930
 Root    268 :    30.232747585351110
 Root    269 :    30.270284971863550
 Root    270 :    30.302866996306320
 Root    271 :    30.303555419542600
 Root    272 :    30.417678705141580
 Root    273 :    30.595028335921660
 Root    274 :    30.602477416841880
 Root    275 :    30.624238532026990
 Root    276 :    30.808794062567430
 Root    277 :    30.959979918911840
 Root    278 :    31.312153781676500
 Root    279 :    31.355353687768910
 Root    280 :    31.474601199840130
 Root    281 :    31.553975552974760
 Root    282 :    31.568717655195530
 Root    283 :    31.670720603056710
 Root    284 :    31.844410049362270
 Root    285 :    31.869997646283330
 Root    286 :    31.986763712020460
 Root    287 :    32.039336956954660
 Root    288 :    32.143356508613170
 Root    289 :    32.168160741028360
 Root    290 :    32.258864465347060
 Root    291 :    32.293534750458650
 Root    292 :    32.339908875706250
 Root    293 :    32.457083482085290
 Root    294 :    32.550956751116370
 Root    295 :    32.582844229008460
 Root    296 :    32.701272732993850
 Root    297 :    32.790088090213760
 Root    298 :    33.003797836314760
 Root    299 :    33.152192190528200
 Root    300 :    33.210998419725310
 Root    301 :    33.364903014480320
 Root    302 :    33.523003750725550
 Root    303 :    33.697245383012740
 Root    304 :    33.801300760004590
 Root    305 :    33.871856570204120
 Root    306 :    34.027518869302880
 Root    307 :    34.145507773801330
 Root    308 :    34.242306634240880
 Root    309 :    34.402573167795740
 Root    310 :    34.458497607216740
 Root    311 :    34.569881466898630
 Root    312 :    34.597930102081730
 Root    313 :    34.642266641305140
 Root    314 :    34.685012191340640
 Root    315 :    34.853853399868130
 Root    316 :    35.082971659009980
 Root    317 :    35.150286477080550
 Root    318 :    35.221048976537940
 Root    319 :    35.356884085136350
 Root    320 :    35.428174112148500
 Root    321 :    35.483147806713370
 Root    322 :    35.576280496441710
 Root    323 :    35.843709762269820
 Root    324 :    36.181796119072200
 Root    325 :    36.273302776919170
 Root    326 :    36.577902562818520
 Root    327 :    36.623919616312580
 Root    328 :    36.670647103994250
 Root    329 :    36.831547853559450
 Root    330 :    36.927620531190140
 Root    331 :    37.041854010873100
 Root    332 :    37.282551858857250
 Root    333 :    37.427879102870570
 Root    334 :    37.509578386442040
 Root    335 :    37.663567708749380
 Root    336 :    37.672451273747420
 Root    337 :    37.796329766544890
 Root    338 :    37.809514150856960
 Root    339 :    37.891415299568140
 Root    340 :    38.030154501669900
 Root    341 :    38.046237459553580
 Root    342 :    38.096390256651570
 Root    343 :    38.282571705698420
 Root    344 :    38.435022754225570
 Root    345 :    38.616387129291150
 Root    346 :    38.768679264888920
 Root    347 :    39.018597494447650
 Root    348 :    39.028656694449080
 Root    349 :    39.319060159322950
 Root    350 :    39.532525431360750
 Root    351 :    39.717961726232640
 Root    352 :    39.769142468466760
 Root    353 :    40.047603284833400
 Root    354 :    40.150932521061410
 Root    355 :    40.306415557428730
 Root    356 :    40.313156472496280
 Root    357 :    40.376020123145840
 Root    358 :    40.624788320465210
 Root    359 :    40.671793045936720
 Root    360 :    40.724227812910310
 Root    361 :    40.900436908298300
 Root    362 :    40.941009591152150
 Root    363 :    41.575306028439820
 Root    364 :    41.600666580642210
 Root    365 :    41.672029556047260
 Root    366 :    41.825722273298440
 Root    367 :    42.130803673619890
 Root    368 :    42.211756309953990
 Root    369 :    42.248217736281900
 Root    370 :    42.392766821408190
 Root    371 :    42.611379622744500
 Root    372 :    42.680469976406010
 Root    373 :    42.909130167890800
 Root    374 :    43.262482997420490
 Root    375 :    43.468335908564800
 Root    376 :    43.543969776535480
 Root    377 :    43.690261563506530
 Root    378 :    43.981642791649610
 Root    379 :    44.021396098616670
 Root    380 :    44.186360658965820
 Root    381 :    44.288620822617060
 Root    382 :    44.505597078402520
 Root    383 :    44.911980773506380
 Root    384 :    45.201853143217660
 Root    385 :    45.547709227680100
 Root    386 :    45.843653395738890
 Root    387 :    45.922888787252380
 Root    388 :    45.968144876794040
 Root    389 :    46.560366390974350
 Root    390 :    46.673187687939540
 Root    391 :    46.829318178255800
 Root    392 :    46.854027981403330
 Root    393 :    47.026767401836000
 Root    394 :    47.348175886704090
 Root    395 :    47.381446834024440
 Root    396 :    47.387732852672680
 Root    397 :    47.472003539874990
 Root    398 :    47.725657943170520
 Root    399 :    48.141410251381220
 Root    400 :    48.226669284994950
 Root    401 :    48.699138380299420
 Root    402 :    49.207045809832560
 Root    403 :    49.338612049098190
 Root    404 :    49.446365425096700
 Root    405 :    49.611937687586400
 Root    406 :    49.905531721100290
 Root    407 :    49.939183547073810
 Root    408 :    49.971469793418210
 Root    409 :    50.268623114508080
 Root    410 :    50.320682909212760
 Root    411 :    50.522191691424890
 Root    412 :    50.689277454335500
 Root    413 :    50.716784487847340
 Root    414 :    50.750838224032550
 Root    415 :    50.919736372286570
 Root    416 :    51.012710774143470
 Root    417 :    51.165407010725470
 Root    418 :    51.375907903333320
 Root    419 :    51.455280244805190
 Root    420 :    51.689997387626730
 Root    421 :    52.037174846933240
 Root    422 :    52.197306541173520
 Root    423 :    52.329457195342130
 Root    424 :    52.496407636671370
 Root    425 :    52.525355000324430
 Root    426 :    52.603621830355760
 Root    427 :    52.705282024035750
 Root    428 :    52.739036691471180
 Root    429 :    52.866475927937180
 Root    430 :    53.022622732738000
 Root    431 :    53.169732981197780
 Root    432 :    53.494365323994580
 Root    433 :    53.564412112425960
 Root    434 :    53.832237731975370
 Root    435 :    54.028254512075090
 Root    436 :    54.117546111410050
 Root    437 :    54.203161372325530
 Root    438 :    54.273003869424740
 Root    439 :    54.332055787584050
 Root    440 :    54.358436244448950
 Root    441 :    54.414906351116920
 Root    442 :    54.632359736223470
 Root    443 :    54.764784567023250
 Root    444 :    54.878535148733340
 Root    445 :    55.033355431950670
 Root    446 :    55.443001344625560
 Root    447 :    55.789941985401510
 Root    448 :    55.976993935594390
 Root    449 :    56.247921106840750
 Root    450 :    56.313221831301450
 Root    451 :    56.459911486781130
 Root    452 :    56.472173937472870
 Root    453 :    56.533160013451600
 Root    454 :    56.602120785341560
 Root    455 :    56.684907971040080
 Root    456 :    56.793655492518420
 Root    457 :    56.813097362292120
 Root    458 :    57.033631379775140
 Root    459 :    57.099423313400070
 Root    460 :    57.464649243935350
 Root    461 :    57.471923370535120
 Root    462 :    58.037214642972250
 Root    463 :    58.170225213002430
 Root    464 :    58.340032478954660
 Root    465 :    58.510292963414310
 Root    466 :    58.567639820499540
 Root    467 :    58.646899839419620
 Root    468 :    58.705762161168600
 Root    469 :    58.716633338417360
 Root    470 :    59.104182473891760
 Root    471 :    59.294620637042240
 Root    472 :    59.391401432405950
 Root    473 :    59.947244989862800
 Root    474 :    60.034215404620320
 Root    475 :    60.169745193188520
 Root    476 :    60.186840167096460
 Root    477 :    60.379236705999790
 Root    478 :    60.546043412181180
 Root    479 :    60.648249503713720
 Root    480 :    60.759080359341450
 Root    481 :    60.894332559090250
 Root    482 :    60.899866877378680
 Root    483 :    61.128693138571210
 Root    484 :    61.281084757547390
 Root    485 :    62.010672652085740
 Root    486 :    62.153768036159450
 Root    487 :    62.209749383917870
 Root    488 :    62.215315266965240
 Root    489 :    62.232553968340720
 Root    490 :    62.280406097333720
 Root    491 :    62.439093946755510
 Root    492 :    62.592779875876180
 Root    493 :    62.665775011081200
 Root    494 :    62.747072263888930
 Root    495 :    62.867973238743570
 Root    496 :    62.938521812796890
 Root    497 :    63.366366440781230
 Root    498 :    63.437059917325340
 Root    499 :    63.646561448889300
 Root    500 :    63.899215993155340
 Root    501 :    64.019836056703230
 Root    502 :    64.056366554678520
 Root    503 :    64.216724939626740
 Root    504 :    64.267285812834130
 Root    505 :    64.471516932381790
 Root    506 :    64.905657851366970
 Root    507 :    65.237230134645100
 Root    508 :    65.441032446363910
 Root    509 :    65.454901039181960
 Root    510 :    65.702756967295640
 Root    511 :    65.839905263352690
 Root    512 :    65.879134992955810
 Root    513 :    66.013250323659360
 Root    514 :    66.115922693750780
 Root    515 :    66.138471966265160
 Root    516 :    66.527792437307600
 Root    517 :    66.647476299086360
 Root    518 :    66.950333995684050
 Root    519 :    67.006347667415780
 Root    520 :    67.090884042254520
 Root    521 :    67.219779372075320
 Root    522 :    67.492953985068280
 Root    523 :    67.715471554393990
 Root    524 :    67.856355151923640
 Root    525 :    68.542464961467150
 Root    526 :    68.716146874024520
 Root    527 :    68.849740437139450
 Root    528 :    68.948368273880860
 Root    529 :    69.091420732091820
 Root    530 :    69.429566090057510
 Root    531 :    69.550740781871920
 Root    532 :    69.638387452582170
 Root    533 :    69.917531599253190
 Root    534 :    70.301896138848920
 Root    535 :    70.522179500220130
 Root    536 :    70.657609202645430
 Root    537 :    70.760847158773710
 Root    538 :    70.870161502200420
 Root    539 :    70.900148096691320
 Root    540 :    71.014410125108440
 Root    541 :    72.389197297132970
 Root    542 :    72.426418301600480
 Root    543 :    72.868555050529170
 Root    544 :    73.037629414596450
 Root    545 :    73.101456614393030
 Root    546 :    73.199555578449450
 Root    547 :    73.838637433941230
 Root    548 :    74.009960308029020
 Root    549 :    74.312830186873380
 Root    550 :    74.755637677074770
 Root    551 :    74.899574707587310
 Root    552 :    74.995540416544630
 Root    553 :    75.674531988205400
 Root    554 :    75.934159790849680
 Root    555 :    76.215682838383090
 Root    556 :    76.284058480019080
 Root    557 :    76.426378181720640
 Root    558 :    76.568001404075010
 Root    559 :    76.744640567148650
 Root    560 :    76.981322265760680
 Root    561 :    77.407972243192750
 Root    562 :    77.995560656013770
 Root    563 :    78.068236388617880
 Root    564 :    78.075614166602620
 Root    565 :    78.965518694334480
 Root    566 :    79.314319114485560
 Root    567 :    79.542442391223280
 Root    568 :    79.714855582322980
 Root    569 :    79.755750905103040
 Root    570 :    79.968370702431980
 Root    571 :    80.164820447042520
 Root    572 :    80.273899569865490
 Root    573 :    80.444487247018370
 Root    574 :    80.804501660084820
 Root    575 :    81.011763507787050
 Root    576 :    81.094461524658710
 Root    577 :    81.472775601141150
 Root    578 :    81.662850965095300
 Root    579 :    81.707025432893360
 Root    580 :    82.069450606130670
 Root    581 :    82.784493798843730
 Root    582 :    82.846251466199800
 Root    583 :    83.318765301521940
 Root    584 :    83.476242902858800
 Root    585 :    83.874341632996720
 Root    586 :    83.965133361134960
 Root    587 :    84.029460507521820
 Root    588 :    84.238520166814170
 Root    589 :    85.015311284581500
 Root    590 :    85.038875528859010
 Root    591 :    85.257550369580140
 Root    592 :    85.357500194547920
 Root    593 :    85.786389045242930
 Root    594 :    85.934773797747030
 Root    595 :    85.981758332733660
 Root    596 :    86.639181365310190
 Root    597 :    86.878780613188240
 Root    598 :    87.201320129202300
 Root    599 :    87.373410741985720
 Root    600 :    87.867136349233600
 Root    601 :    87.876567027112340
 Root    602 :    88.638923337565270
 Root    603 :    88.671060566587800
 Root    604 :    89.142488476406650
 Root    605 :    89.522684474379190
 Root    606 :    89.699469167984900
 Root    607 :    90.122336720927660
 Root    608 :    90.712000162926530
 Root    609 :    90.809255452380640
 Root    610 :    91.252077481444560
 Root    611 :    91.558974207508970
 Root    612 :    91.754627034151160
 Root    613 :    92.015120846999710
 Root    614 :    92.117353858122390
 Root    615 :    92.355812261689690
 Root    616 :    92.827404778379220
 Root    617 :    92.884309250126120
 Root    618 :    92.999368864364930
 Root    619 :    93.186616080335870
 Root    620 :    93.483336193849060
 Root    621 :    93.764931621046700
 Root    622 :    94.978332513012920
 Root    623 :    95.402772825143370
 Root    624 :    95.492382176192710
 Root    625 :    95.768456881980980
 Root    626 :    96.165847388353480
 Root    627 :    96.598666192913360
 Root    628 :    96.752128415915810
 Root    629 :    96.904664471601620
 Root    630 :    97.127680764335410
 Root    631 :    97.338418441205550
 Root    632 :    97.455914790009530
 Root    633 :    97.938996556747540
 Root    634 :    98.601400694016930
 Root    635 :    98.703154907095790
 Root    636 :    98.851449387143620
 Root    637 :    99.562247645263310
 Root    638 :   100.029603197363800
 Root    639 :   100.463708491026500
 Root    640 :   100.565124711065300
 Root    641 :   101.031863869523400
 Root    642 :   101.866466402647700
 Root    643 :   101.938026924862600
 Root    644 :   102.310784269323600
 Root    645 :   103.322347315029800
 Root    646 :   103.361809666654300
 Root    647 :   103.634854576669500
 Root    648 :   103.729114118154500
 Root    649 :   103.979064164979600
 Root    650 :   104.347941883008400
 Root    651 :   106.012001896842700
 Root    652 :   106.304812038820500
 Root    653 :   106.846480877974400
 Root    654 :   107.164022228236600
 Root    655 :   107.343963573469000
 Root    656 :   107.501767087989000
 Root    657 :   107.586760068786200
 Root    658 :   107.984761538735700
 Root    659 :   108.969080353920800
 Root    660 :   109.697713800980600
 Root    661 :   110.343818020695400
 Root    662 :   110.940869515284100
 Root    663 :   111.405066158345500
 Root    664 :   111.598534830043600
 Root    665 :   112.423838556295100
 Root    666 :   112.778690352241300
 Root    667 :   112.892120636748000
 Root    668 :   114.274944916945300
 Root    669 :   114.611422938075100
 Root    670 :   115.855053916909100
 Root    671 :   117.770953972246700
 Root    672 :   119.587265217375200
 Root    673 :   122.852857090954400
 Root    674 :   123.016797253228100
 Root    675 :   126.660372979490700
 Convergence achieved for final wavefunctions.
 ***********************************************************************
 Excited states from <AA,BB:AA,BB> singles matrix:
 ***********************************************************************
 
 1PDM for each excited state written to RWF  633
 Ground to excited state transition densities written to RWF  633
 Ground to excited state transition electric dipole moments (Au):
       state          X           Y           Z        Dip. S.      Osc.
         1         0.0000      0.0000      0.0690      0.0048      0.0006
         2         0.3724      0.0747      0.0000      0.1443      0.0214
         3        -0.1071     -0.6815     -0.0000      0.4760      0.0793
         4        -0.0000      0.0000      0.2484      0.0617      0.0103
         5        -0.0000     -0.0000      0.1312      0.0172      0.0032
         6        -1.2503      0.2134     -0.0000      1.6089      0.3026
         7        -0.2553     -0.3366     -0.0000      0.1785      0.0341
         8        -0.0000     -0.0000     -0.1583      0.0250      0.0053
         9        -0.1232     -0.3807     -0.0000      0.1601      0.0339
        10        -0.0000     -0.0000      0.2230      0.0497      0.0106
        11         0.0150      0.1845     -0.0000      0.0342      0.0076
        12        -0.0000     -0.0000     -0.0892      0.0080      0.0018
        13        -0.1539      0.0692     -0.0000      0.0285      0.0066
        14         0.2318      0.0814      0.0000      0.0604      0.0142
        15        -0.0000     -0.0000     -0.1143      0.0131      0.0031
        16        -0.0000     -0.0000      0.0551      0.0030      0.0007
        17        -0.2233     -0.0556     -0.0000      0.0529      0.0130
        18         0.0000     -0.0000     -0.3990      0.1592      0.0395
        19        -0.0000     -0.0000     -0.0223      0.0005      0.0001
        20        -0.0000     -0.0000      0.2794      0.0780      0.0199
        21         0.0633      0.1867      0.0000      0.0389      0.0100
        22         0.1908      0.3127     -0.0000      0.1342      0.0351
        23         0.3352     -0.4163      0.0000      0.2856      0.0758
        24         0.2007     -0.1938      0.0000      0.0778      0.0207
        25         0.0000     -0.0000      0.0537      0.0029      0.0008
        26        -0.0000      0.0000      0.1345      0.0181      0.0049
        27         0.0000      0.0000      0.1456      0.0212      0.0059
        28         0.2884      0.4864     -0.0000      0.3198      0.0890
        29         0.0000     -0.0000     -0.0781      0.0061      0.0017
        30         0.0000     -0.0000     -0.1033      0.0107      0.0030
        31         0.0680     -0.0324     -0.0001      0.0057      0.0017
        32        -0.0000      0.0000     -0.3825      0.1463      0.0429
        33         0.0084      0.3102     -0.0000      0.0963      0.0283
        34        -0.1367     -0.2319     -0.0000      0.0725      0.0216
        35        -0.0967     -0.0891     -0.0000      0.0173      0.0053
        36        -0.5769     -0.2029     -0.0000      0.3740      0.1153
        37         0.0000      0.0000      0.0908      0.0082      0.0026
        38         0.0000      0.0000     -0.0528      0.0028      0.0009
        39         0.0000     -0.0000     -0.4147      0.1719      0.0539
        40        -0.4002      0.5909     -0.0000      0.5093      0.1598
        41         0.1441     -0.1019     -0.0000      0.0312      0.0099
        42         0.1129      0.3550     -0.0000      0.1388      0.0444
        43        -0.0000     -0.0000     -0.0212      0.0005      0.0001
        44        -0.0000     -0.0000      0.3490      0.1218      0.0399
        45        -0.6210     -0.4695      0.0000      0.6061      0.1990
        46         0.0000      0.0000      0.1799      0.0324      0.0107
        47         0.2630     -0.1585     -0.0000      0.0943      0.0314
        48         0.2705      0.0287     -0.0000      0.0740      0.0248
        49        -0.0000     -0.0000     -0.5257      0.2763      0.0932
        50         0.2270      0.1668     -0.0000      0.0794      0.0269
        51         0.0000     -0.0000      0.3705      0.1373      0.0468
        52        -0.2646     -0.3725     -0.0000      0.2088      0.0726
        53        -0.0000     -0.0000     -0.1881      0.0354      0.0124
        54        -0.1913     -0.3241      0.0000      0.1416      0.0497
        55        -0.2356     -0.2504     -0.0000      0.1182      0.0420
        56         0.1527      0.0124      0.0000      0.0235      0.0084
        57        -0.0000     -0.0000     -0.1554      0.0241      0.0086
        58         0.1215      0.1699     -0.0000      0.0437      0.0156
        59        -0.0788     -0.0351     -0.0000      0.0074      0.0027
        60         0.0000     -0.0000      0.0803      0.0064      0.0023
        61         0.0991     -0.0579     -0.0000      0.0132      0.0048
        62        -0.0000     -0.0000     -0.0075      0.0001      0.0000
        63        -0.1390      0.1437      0.0000      0.0400      0.0146
        64         0.2067      0.0694     -0.0000      0.0476      0.0175
        65        -0.0000      0.0000      0.0048      0.0000      0.0000
        66         0.0126     -0.1033      0.0001      0.0108      0.0040
        67        -0.0001     -0.0000     -0.0685      0.0047      0.0017
        68        -0.0000     -0.0000     -0.3996      0.1596      0.0595
        69        -0.2373     -0.1918      0.0000      0.0931      0.0350
        70        -0.2800      0.1279      0.0000      0.0947      0.0356
        71        -0.1650      0.0872     -0.0000      0.0348      0.0132
        72        -0.0000      0.0000     -0.0706      0.0050      0.0019
        73         0.1350     -0.2374     -0.0000      0.0746      0.0286
        74        -0.0000      0.0000     -0.5421      0.2939      0.1132
        75        -0.0000      0.0000      0.4281      0.1833      0.0709
        76         0.3861      0.1071     -0.0000      0.1605      0.0624
        77         0.1369     -0.3602     -0.0000      0.1485      0.0583
        78        -0.0000      0.0000      0.0531      0.0028      0.0011
        79         0.0000     -0.0000     -0.0563      0.0032      0.0012
        80         0.2900     -0.0552      0.0000      0.0871      0.0346
        81        -0.4307     -0.0182     -0.0000      0.1858      0.0751
        82        -0.0021      0.0543     -0.0000      0.0030      0.0012
        83        -0.0128      0.0152     -0.0000      0.0004      0.0002
        84        -0.0000     -0.0000     -0.0076      0.0001      0.0000
        85        -0.0000      0.0000     -0.1530      0.0234      0.0096
        86         0.0507      0.3389     -0.0000      0.1174      0.0481
        87         0.0000     -0.0000     -0.0842      0.0071      0.0029
        88        -0.0000      0.0000      0.1575      0.0248      0.0102
        89        -0.6617      0.5219      0.0000      0.7102      0.2931
        90         0.0000     -0.0000     -0.2016      0.0406      0.0168
        91        -0.1272     -0.0509     -0.0000      0.0188      0.0078
        92         0.0587     -0.0938      0.0000      0.0122      0.0051
        93         0.1356      0.2659     -0.0000      0.0891      0.0376
[...]
     14  -0.759620D-01  0.675251D+00 -0.314252D-04 -0.117512D-04  0.727972D-01
     15  -0.139978D-03 -0.697136D-04 -0.131791D+01 -0.183905D+01  0.917521D-05
     16  -0.311875D-05  0.120295D-04 -0.163833D+00  0.225750D+00  0.000000D+00
               606           607           608           609           610 
      1  -0.166300D+03 -0.166285D+03 -0.166263D+03 -0.166259D+03 -0.166243D+03
      2   0.590094D-01  0.198670D+00  0.000000D+00  0.296755D-05  0.425454D-01
      3   0.603478D-01  0.274210D+00  0.177376D-05  0.264899D-05 -0.284157D-02
      4  -0.759308D-05 -0.202405D-04 -0.257866D-01  0.972107D-01 -0.705002D-05
      5  -0.175516D+00 -0.564552D+00  0.329989D-05 -0.892788D-05 -0.131931D+00
      6  -0.168775D+00 -0.764629D+00 -0.540687D-05 -0.735111D-05  0.135046D-01
      7   0.221119D-04  0.581778D-04  0.662569D-01 -0.280013D+00  0.206232D-04
      8  -0.453400D-05 -0.146907D-04 -0.810157D-02  0.101298D+00 -0.503553D-05
      9  -0.251774D-04 -0.703018D-04  0.116074D+00  0.383733D+00  0.102309D-04
     10  -0.639741D+00 -0.157814D+01 -0.668938D-05 -0.177903D-04  0.996984D-02
     11  -0.109346D+01 -0.170339D+01  0.390323D-04  0.112908D-04  0.196748D+00
     12   0.460535D+00  0.482072D+00  0.129851D-04  0.183797D-05  0.748030D-01
     13  -0.612500D-01 -0.106073D+00  0.958541D-05  0.654056D-05  0.993698D-01
     14  -0.504057D+00 -0.127241D+01 -0.166291D-04  0.121248D-04  0.230057D+00
     15   0.173405D-04  0.642848D-04 -0.260472D+00 -0.456271D+00 -0.119841D-04
     16  -0.195750D-04 -0.313190D-04 -0.106847D+00  0.750421D-01 -0.375836D-05
               611           612           613           614           615 
      1  -0.166232D+03 -0.166225D+03 -0.166215D+03 -0.166211D+03 -0.166202D+03
      2   0.282475D-05 -0.148768D+00  0.580558D-01  0.000000D+00 -0.199386D-05
      3   0.434020D-05 -0.189018D+00 -0.787885D-01 -0.464459D-05 -0.155563D-05
      4   0.102148D+00  0.116213D-04 -0.104155D-05 -0.171682D-01 -0.295918D-01
      5  -0.822974D-05  0.427236D+00 -0.171642D+00  0.256609D-05  0.703605D-05
      6  -0.134595D-04  0.542786D+00  0.260144D+00  0.127718D-04  0.500314D-05
      7  -0.285001D+00 -0.338785D-04  0.322277D-05  0.566006D-01  0.869578D-01
      8   0.263740D+00  0.155103D-04  0.569435D-05  0.176428D-01 -0.504362D-01
      9  -0.167962D+00  0.723980D-05  0.184512D-04 -0.289129D+00  0.220964D+00
     10  -0.371138D-04  0.115392D+01  0.523881D-01 -0.702788D-05 -0.461205D-05
     11  -0.529407D-04  0.160709D+01 -0.122146D+01  0.377995D-04  0.362681D-04
     12  -0.952258D-05 -0.568149D+00 -0.380043D+00  0.142791D-04  0.262582D-04
     13  -0.150067D-04 -0.137259D+00  0.138758D+00 -0.395047D-05  0.596098D-05
     14  -0.127455D-04  0.958103D+00  0.257469D+00 -0.341030D-04 -0.269371D-04
     15   0.326485D+00  0.526186D-05 -0.319028D-04  0.250214D+00 -0.206411D+00
     16   0.270995D+00  0.258706D-04  0.000000D+00 -0.108662D+00 -0.172875D-01
               616           617           618           619           620 
      1  -0.166185D+03 -0.166183D+03 -0.166179D+03 -0.166172D+03 -0.166161D+03
      2   0.773472D-02 -0.249502D-05 -0.914558D-02  0.741823D-01 -0.518791D-01
      3   0.296203D-01 -0.307663D-04 -0.971467D-01 -0.378308D-01 -0.935482D-01
      4   0.000000D+00  0.280619D-01 -0.614540D-05  0.000000D+00  0.383648D-05
      5  -0.130199D-01  0.517405D-05  0.149881D-01 -0.252806D+00  0.147085D+00
      6  -0.788813D-01  0.852649D-04  0.281021D+00  0.128475D+00  0.294678D+00
      7  -0.229817D-05 -0.846875D-01  0.178558D-04  0.283651D-05 -0.112105D-04
      8   0.591072D-05  0.276635D-01 -0.844790D-05  0.472901D-05  0.148643D-04
      9  -0.115959D-04 -0.724649D-01  0.196907D-04  0.372170D-04  0.171725D-04
     10  -0.659759D-01 -0.803245D-04  0.416233D-01  0.711378D+00  0.230992D+00
     11  -0.422116D+00  0.324286D-03  0.598071D+00 -0.584509D+00 -0.193199D+01
     12   0.773911D-01  0.525602D-05 -0.351598D-01 -0.398739D+00 -0.312891D-01
     13  -0.558070D-01 -0.697025D-04 -0.158721D+00  0.103191D+00 -0.132093D+00
     14  -0.242574D+00 -0.109662D-03  0.522001D-02  0.872922D+00  0.547730D+00
     15   0.460156D-05  0.171609D+00 -0.618733D-04 -0.382666D-04 -0.241668D-04
     16   0.000000D+00 -0.206835D+00  0.925531D-04 -0.167441D-04 -0.103697D-04
               621           622           623           624           625 
      1  -0.166151D+03 -0.166106D+03 -0.166090D+03 -0.166087D+03 -0.166077D+03
      2   0.374322D-05  0.614861D-05 -0.228980D-01  0.158776D+00  0.709842D-05
      3   0.000000D+00  0.000000D+00 -0.321740D-01 -0.109240D+00 -0.107501D-05
      4   0.170344D+00  0.710966D-01 -0.114329D-05 -0.110723D-04 -0.525237D-01
      5  -0.130507D-04 -0.208260D-04  0.816564D-01 -0.528065D+00 -0.247411D-04
      6   0.209375D-05  0.439540D-05  0.109350D+00  0.351856D+00  0.586462D-05
      7  -0.520520D+00 -0.200234D+00  0.373405D-05  0.340627D-04  0.155400D+00
      8   0.146406D+00 -0.522847D-02 -0.131935D-05 -0.890340D-05 -0.211725D-01
      9  -0.119935D+01  0.101318D+00  0.115848D-04 -0.351628D-04  0.293610D-01
     10   0.000000D+00 -0.116425D-04 -0.523560D+00  0.524000D+00 -0.170010D-04
     11  -0.164411D-03 -0.577315D-04  0.734319D-01 -0.195369D+01 -0.950718D-04
     12  -0.474195D-04 -0.152754D-04 -0.208195D-01 -0.185663D+00 -0.108286D-04
     13  -0.445064D-04 -0.127503D-04  0.102463D+00 -0.849538D-01 -0.127366D-04
     14   0.266412D-04  0.326710D-04 -0.646517D+00  0.699328D+00  0.273970D-04
     15   0.111775D+01 -0.623506D-01 -0.211437D-04  0.385315D-04  0.169310D+00
     16   0.194106D+00 -0.283779D+00  0.749822D-05 -0.333223D-04  0.166489D+00
               626           627           628           629           630 
      1  -0.166062D+03 -0.166047D+03 -0.166041D+03 -0.166035D+03 -0.166027D+03
      2   0.699160D-05  0.748810D-01  0.334447D-01  0.383625D-05 -0.759224D-01
      3   0.000000D+00 -0.880101D-02  0.355330D-01  0.385363D-05 -0.122813D+00
      4   0.136923D+00 -0.282290D-05 -0.325292D-05 -0.151872D-01  0.000000D+00
      5  -0.225737D-04 -0.252376D+00 -0.113664D+00 -0.123392D-04  0.244171D+00
      6   0.131862D-05  0.442522D-01 -0.884373D-01 -0.108382D-04  0.376566D+00
      7  -0.416477D+00  0.845820D-05  0.975659D-05  0.543647D-01  0.214367D-05
      8   0.239618D+00  0.521903D-05  0.481818D-05  0.115587D-01 -0.560087D-05
      9   0.135880D+01 -0.916085D-05  0.515973D-05  0.119604D+01  0.385736D-04
     10   0.644689D-05 -0.288922D+00  0.177208D+00 -0.182332D-04  0.811985D+00
     11   0.224468D-04 -0.810912D+00 -0.967597D+00  0.740527D-05  0.165359D+01
     12   0.112535D-04 -0.474250D-01 -0.285280D+00  0.503966D-04 -0.640181D+00
     13   0.353017D-04 -0.149549D+00  0.122779D+00  0.285254D-04  0.565333D-01
     14   0.478851D-04  0.133652D+00  0.352973D+00  0.000000D+00  0.689513D+00
     15  -0.172893D+01 -0.218196D-04 -0.224535D-04 -0.130650D+01 -0.296714D-04
     16   0.399401D+00 -0.200648D-04 -0.118370D-04  0.985209D-01  0.120450D-04
               631           632           633           634           635 
      1  -0.166019D+03 -0.166015D+03 -0.165997D+03 -0.165973D+03 -0.165969D+03
      2   0.577332D-05  0.767637D-01  0.553521D-01 -0.179140D-05 -0.100728D-01
      3   0.000000D+00  0.632808D-01  0.387892D-01  0.000000D+00 -0.536431D-01
      4   0.262674D+00 -0.591686D-05 -0.273744D-05 -0.138486D+00  0.294455D-05
      5  -0.191863D-04 -0.269710D+00 -0.170873D+00  0.626188D-05  0.299491D-01
      6   0.212076D-05 -0.200641D+00 -0.897555D-01 -0.206716D-05  0.183638D+00
      7  -0.819876D+00  0.184956D-04  0.865251D-05  0.435652D+00 -0.904754D-05
      8   0.399844D+00 -0.785697D-05  0.668490D-05 -0.207830D+00  0.764293D-05
      9   0.125431D+01 -0.198212D-05 -0.161062D-05 -0.480346D+00  0.358380D-05
     10   0.184422D-05  0.221370D+00  0.153468D+00  0.945790D-05  0.594999D+00
     11  -0.112120D-04  0.926102D+00 -0.214699D+01  0.768508D-05 -0.507356D+00
     12  -0.140474D-04  0.117263D+00  0.154665D-02  0.312464D-05 -0.418564D+00
     13   0.107966D-04 -0.214239D+00  0.425465D-01  0.000000D+00  0.624388D-01
     14   0.735879D-04  0.773198D+00  0.282960D+00 -0.172524D-04  0.581693D+00
     15  -0.159414D+01  0.663283D-05 -0.109425D-04  0.575427D+00 -0.793670D-05
     16   0.788602D+00 -0.135868D-04 -0.129819D-04 -0.212658D+00  0.249630D-05
               636           637           638           639           640 
      1  -0.165964D+03 -0.165938D+03 -0.165920D+03 -0.165904D+03 -0.165901D+03
      2  -0.270995D-05 -0.107630D-05 -0.257607D-01  0.000000D+00 -0.190980D-02
      3   0.000000D+00  0.000000D+00 -0.228874D-01  0.153121D-05  0.114998D+00
      4  -0.123226D+00 -0.186072D-01  0.000000D+00  0.515754D-01 -0.355217D-05
      5   0.913577D-05  0.291086D-05  0.806967D-01  0.000000D+00  0.232181D-01
      6   0.000000D+00  0.228006D-05  0.858751D-01 -0.465804D-05 -0.367794D+00
      7   0.395035D+00  0.633824D-01  0.270626D-05 -0.154119D+00  0.112246D-04
      8  -0.185115D+00 -0.529536D-01  0.392986D-05 -0.221804D-01 -0.100961D-05
      9  -0.608607D+00 -0.128564D+00  0.132109D-04  0.500934D+00  0.135691D-05
     10   0.412335D-05  0.377813D-05  0.342189D+00  0.000000D+00 -0.353795D+00
     11   0.138022D-05 -0.313657D-04 -0.316310D+00  0.198039D-04  0.298849D+00
     12   0.153539D-05  0.000000D+00  0.661685D-01  0.121362D-04  0.189913D+00
     13  -0.119321D-05 -0.249538D-04 -0.151840D+00  0.409427D-05 -0.566520D+00
     14  -0.238197D-04  0.114493D-05  0.321052D+00  0.920779D-05 -0.357514D+00
     15   0.850045D+00  0.329689D+00 -0.238577D-04 -0.610496D+00 -0.986727D-05
     16  -0.178321D+00  0.123960D+00 -0.478863D-05 -0.441460D-01 -0.146922D-04
               641           642           643           644           645 
      1  -0.165884D+03 -0.165853D+03 -0.165850D+03 -0.165837D+03 -0.165799D+03
      2   0.695776D-01 -0.172754D-05 -0.146521D-02  0.219845D-01  0.607740D-01
      3  -0.902194D-01  0.000000D+00 -0.177275D-01 -0.146826D-01 -0.619010D-01
      4  -0.356250D-05 -0.420608D-01 -0.266005D-05  0.160708D-05 -0.546974D-05
      5  -0.225175D+00  0.579832D-05 -0.254235D-02 -0.764393D-01 -0.215205D+00
      6   0.285915D+00  0.000000D+00  0.471658D-01  0.311693D-01  0.212118D+00
      7   0.119493D-04  0.137711D+00  0.824112D-05 -0.535939D-05  0.183192D-04
      8  -0.610117D-05 -0.706341D-01  0.000000D+00 -0.724815D-05  0.197316D-05
      9   0.188141D-04 -0.563414D+00  0.679291D-05 -0.153630D-04  0.309194D-04
     10  -0.462723D+00 -0.199741D-04  0.573023D+00  0.100343D+00  0.719922D+00
     11   0.571340D+00 -0.353605D-04  0.288139D+00  0.528966D+00 -0.101550D+01
     12  -0.146287D+00  0.211347D-04 -0.471814D+00  0.100474D+00 -0.607082D+00
     13   0.113101D+00 -0.174837D-04  0.134108D+00  0.889798D-01  0.144617D+00
     14  -0.339532D+00 -0.470978D-04  0.698248D+00  0.156253D+00  0.108797D+01
     15  -0.262312D-04  0.654566D+00 -0.100661D-04  0.262882D-04 -0.399517D-04
     16   0.362717D-05 -0.266812D+00 -0.253532D-05 -0.548189D-05  0.345541D-05
               646           647           648           649           650 
      1  -0.165798D+03 -0.165788D+03 -0.165784D+03 -0.165775D+03 -0.165762D+03
      2   0.000000D+00  0.145833D-05 -0.536260D-02  0.823529D-01 -0.282650D-01
      3   0.179483D-05  0.000000D+00  0.122457D+00 -0.134684D+00  0.427141D-01
      4  -0.162872D-01  0.483132D-01  0.195437D-05  0.413024D-05  0.244400D-05
      5   0.253222D-05 -0.495739D-05  0.356632D-01 -0.301708D+00  0.725442D-01
      6  -0.623714D-05  0.191334D-05 -0.406570D+00  0.479054D+00 -0.153944D+00
      7   0.530448D-01 -0.165000D+00 -0.682520D-05 -0.127189D-04 -0.800458D-05
      8  -0.230197D-01  0.880182D-01  0.000000D+00  0.000000D+00  0.268152D-05
      9  -0.898459D-01  0.661194D+00 -0.137216D-04 -0.179789D-04 -0.171576D-04
     10  -0.352467D-05  0.185846D-05 -0.446960D+00 -0.139384D+00  0.796899D-01
     11   0.193168D-04  0.246684D-04  0.143690D-01 -0.308334D+00 -0.154855D+00
     12  -0.227312D-04 -0.225628D-05 -0.220393D+00 -0.550186D+00  0.491054D-01
     13   0.301284D-04  0.141766D-04  0.309558D+00  0.206635D-01  0.829669D-01
     14  -0.142994D-04  0.223236D-04 -0.913871D+00  0.756155D-01  0.156725D+00
     15  -0.178680D+00 -0.735781D+00  0.301295D-04  0.215243D-04  0.208771D-04
     16  -0.480078D+00  0.372941D-01  0.185804D-04 -0.742281D-05 -0.860422D-05
               651           652           653           654           655 
      1  -0.165701D+03 -0.165690D+03 -0.165670D+03 -0.165658D+03 -0.165652D+03
      2   0.941845D-01  0.281955D-01  0.487672D-05 -0.124365D-05 -0.438280D-01
      3   0.876400D-01  0.678098D-01  0.000000D+00  0.000000D+00 -0.198873D-02
      4  -0.463009D-05  0.187265D-05  0.257423D-01 -0.981342D-01  0.000000D+00
      5  -0.347624D+00 -0.980662D-01 -0.179197D-04  0.457784D-05  0.120751D+00
      6  -0.312611D+00 -0.255622D+00  0.000000D+00  0.184610D-05  0.898036D-02
      7   0.158631D-04 -0.593911D-05 -0.694095D-01  0.341766D+00  0.244579D-05
      8  -0.600294D-05  0.378004D-05  0.847623D-01 -0.161063D+00  0.000000D+00
      9   0.130522D-04 -0.646893D-05  0.261327D-01 -0.924759D+00 -0.195792D-05
     10   0.248187D+00 -0.628724D+00 -0.307045D-04  0.698023D-05  0.287093D+00
     11   0.925487D+00 -0.532043D+00 -0.988107D-04 -0.237759D-04  0.146055D+00
     12   0.224231D+00  0.760595D-01  0.218415D-04 -0.104009D-04 -0.159114D+00
     13   0.728289D-01 -0.483357D-01  0.703908D-05 -0.180277D-04  0.835301D-01
     14   0.421329D+00 -0.681119D+00  0.000000D+00 -0.232407D-04  0.373333D+00
     15  -0.196856D-04  0.188921D-05 -0.113928D+00  0.115054D+01  0.399288D-05
     16  -0.101977D-05  0.000000D+00  0.782252D-01 -0.301106D+00  0.288137D-05
               656           657           658           659           660 
      1  -0.165646D+03 -0.165643D+03 -0.165628D+03 -0.165592D+03 -0.165565D+03
      2  -0.160650D-01  0.000000D+00 -0.194334D+00 -0.296185D-01 -0.287425D-01
      3   0.757735D-01  0.000000D+00 -0.376972D-01 -0.716445D-01  0.321387D-01
      4  -0.370510D-05  0.213205D-02  0.618595D-05  0.187892D-05 -0.554852D-05
      5   0.689582D-01  0.203664D-05  0.714238D+00  0.804848D-01  0.999665D-01
      6  -0.255328D+00  0.000000D+00  0.116944D+00  0.240971D+00 -0.113227D+00
      7   0.124541D-04  0.927002D-02 -0.214056D-04 -0.633870D-05  0.193280D-04
      8   0.592900D-05 -0.830492D-01  0.714477D-05  0.000000D+00  0.000000D+00
      9   0.311148D-04 -0.172496D+00 -0.442350D-05  0.499757D-05  0.357392D-04
     10   0.224890D+00 -0.313329D-05  0.112896D+01  0.123647D+01  0.167787D-01
     11  -0.124692D+01 -0.161288D-04  0.216281D+01  0.209591D+01 -0.568319D+00
     12   0.140697D+00 -0.367257D-05 -0.714015D+00 -0.416191D+00  0.154679D+00
     13   0.135148D+00 -0.537732D-05 -0.412955D-01 -0.322190D-01 -0.262063D+00
     14   0.221662D+00 -0.160875D-05  0.677506D+00  0.926888D+00 -0.429211D-02
     15  -0.494407D-04  0.173937D+00  0.128710D-04 -0.526383D-05 -0.466805D-04
     16   0.000000D+00 -0.897683D-01  0.190179D-04  0.819691D-05  0.449883D-05
               661           662           663           664           665 
      1  -0.165541D+03 -0.165519D+03 -0.165502D+03 -0.165495D+03 -0.165465D+03
      2  -0.608080D-05 -0.678918D-01  0.241922D-05  0.552408D-01  0.611227D-02
      3   0.428708D-05  0.580432D-01  0.000000D+00 -0.108608D+00 -0.824688D-01
      4  -0.594932D-01  0.509243D-05  0.978164D-01  0.000000D+00 -0.177911D-05
      5   0.233527D-04  0.253352D+00 -0.973255D-05 -0.215268D+00 -0.124522D-01
      6  -0.164132D-04 -0.214835D+00  0.209901D-05  0.404028D+00  0.319480D+00
      7   0.213763D+00 -0.181698D-04 -0.340729D+00 -0.303706D-05  0.649156D-05
      8  -0.172665D+00  0.986248D-05  0.145023D+00  0.112354D-05  0.000000D+00
      9  -0.500992D+00 -0.953100D-05  0.741244D+00 -0.140106D-04  0.108037D-04
     10  -0.319419D-04  0.239974D+00  0.000000D+00  0.698838D+00  0.102180D+00
     11   0.950548D-04 -0.552322D+00  0.270221D-05 -0.186821D+01 -0.109971D+01
     12   0.218968D-04  0.447674D+00 -0.537016D-05 -0.551439D+00 -0.223872D+00
     13  -0.181496D-04 -0.396517D-01  0.718152D-05  0.372085D-01 -0.315563D-01
     14  -0.884067D-04 -0.353908D-01  0.335347D-04  0.105663D+01  0.187793D+00
     15   0.644433D+00  0.104869D-04 -0.646648D+00  0.127397D-04 -0.170986D-04
     16  -0.278911D+00  0.479565D-05  0.981978D-01 -0.136525D-04 -0.249920D-05
               666           667           668           669           670 
      1  -0.165452D+03 -0.165448D+03 -0.165397D+03 -0.165385D+03 -0.165339D+03
      2  -0.513433D-01  0.166243D+00 -0.559138D-01 -0.926248D-04 -0.119190D-01
      3  -0.704218D-02 -0.552751D-01  0.335036D-01  0.797120D-01 -0.305316D-01
      4   0.000000D+00 -0.538821D-05  0.311997D-05  0.000000D+00 -0.106944D-05
      5   0.187256D+00 -0.656319D+00  0.231185D+00  0.140927D-01  0.305234D-01
      6   0.235478D-01  0.221217D+00 -0.120815D+00 -0.279866D+00  0.134670D+00
      7   0.000000D+00  0.197559D-04 -0.116039D-04 -0.131814D-05  0.417964D-05
      8   0.165050D-05 -0.467858D-05  0.554256D-05 -0.268241D-05 -0.264872D-05
      9   0.147366D-04  0.480892D-05 -0.110379D-04 -0.102120D-04 -0.190440D-05
     10   0.347884D+00  0.822360D+00 -0.197610D+00  0.421999D+00 -0.266233D+00
     11   0.521118D+00 -0.336568D+01 -0.475964D+00  0.331613D+00 -0.810787D+00
     12  -0.845296D-03 -0.203812D+00  0.372091D+00  0.142755D+00 -0.322642D+00
     13  -0.147215D+00  0.148561D+00 -0.794326D-01  0.551126D-01  0.150537D+00
     14   0.147193D+00  0.181027D+01 -0.444087D+00  0.421879D+00  0.236060D+00
     15  -0.164662D-04 -0.122921D-04  0.141847D-04  0.157503D-04  0.627703D-05
     16   0.624036D-05 -0.243664D-04  0.115593D-05  0.000000D+00 -0.409422D-05
               671           672           673           674           675 
      1  -0.165268D+03 -0.165202D+03 -0.165082D+03 -0.165076D+03 -0.164942D+03
      2   0.178079D-01  0.385199D-01  0.559553D-02 -0.152909D-02 -0.108580D-01
      3   0.146536D-01 -0.109015D-01 -0.209395D-02 -0.976112D-02  0.524061D-02
      4   0.000000D+00 -0.105833D-05  0.000000D+00  0.000000D+00 -0.111251D-05
      5  -0.667346D-01 -0.136154D+00 -0.384159D-02  0.350385D-01 -0.257376D-02
      6  -0.352404D-01  0.420083D-01  0.106401D-01  0.347311D-01  0.118294D-01
      7   0.000000D+00  0.396942D-05 -0.364181D-05  0.122088D-05  0.442396D-05
      8   0.211761D-05 -0.442543D-05  0.273038D-05  0.144938D-05 -0.617137D-05
      9   0.414382D-05  0.000000D+00 -0.195766D-05  0.528160D-05  0.000000D+00
     10   0.361912D+00 -0.248315D+00  0.247472D+00 -0.847658D-01 -0.214437D-01
     11  -0.523583D+00  0.464423D+00  0.448138D+00  0.638245D+00 -0.192084D+00
     12  -0.178210D+00  0.652842D-02 -0.495763D-01 -0.166797D+00 -0.239664D+00
     13   0.368502D-01 -0.136308D-01 -0.142279D-01  0.463459D-01 -0.517888D-01
     14   0.450776D+00 -0.633159D-01 -0.424727D-01 -0.819089D-01  0.112987D+00
     15  -0.768154D-05  0.260935D-05  0.000000D+00 -0.565837D-05  0.129174D-05
     16   0.000000D+00 -0.202383D-05  0.132644D-05  0.000000D+00 -0.152422D-05
 Unable to Open any file for archive entry.
 1\1\GINC-HEL12\SP\RPBEPBE TD-FC\Gen\C1H3N1O1\SABYASACHI\21-Mar-2022\0\
 \#P TD(Nstates=10000) pbepbe/Gen SCF(maxcycles=100) Int(Grid=ultrafine
 )\\xGDB7_00001_tier4.com\\0,1\N,0,-1.078471,-0.1569,0.000001\C,0,0.161
 963,0.384944,0.000002\O,0,1.18917,-0.245458,-0.000001\H,0,-1.898427,0.
 419427,-0.000004\H,0,-1.178124,-1.157073,-0.000005\H,0,0.140706,1.4899
 48,-0.000007\\Version=EM64L-G16RevC.01\State=1-A\HF=-169.5964591\RMSD=
 3.460e-09\PG=C01 [X(C1H3N1O1)]\\@
 The archive entry for this job was punched.


    THE DOUGHNUT CREED
 AS YOU RAMBLE ON THROUGH LIFE, BROTHER
 WHATEVER BE YOUR GOAL
 KEEP YOUR EYE UPON THE DOUGHNUT
 AND NOT UPON THE HOLE.
 Job cpu time:       0 days  0 hours  7 minutes 52.8 seconds.
 Elapsed time:       0 days  0 hours  0 minutes 59.5 seconds.
 File lengths (MBytes):  RWF=    227 Int=      0 D2E=      0 Chk=    127 Scr=      1
 Normal termination of Gaussian 16 at Mon Mar 21 20:10:21 2022.
