 Entering Gaussian System, Link 0=g16
 Input=000028.com
 Output=000028.log
 Initial command:
 /home/sabyasachi/g16/l1.exe "/scratch/sabyasachi/PBS_7976459.helios/Gau-30405.inp" -scrdir="/scratch/sabyasachi/PBS_7976459.helios/"
 Entering Link 1 = /home/sabyasachi/g16/l1.exe PID=     30406.
  
 Copyright (c) 1988-2019, Gaussian, Inc.  All Rights Reserved.
  
 This is part of the Gaussian(R) 16 program.  It is based on
 the Gaussian(R) 09 system (copyright 2009, Gaussian, Inc.),
 the Gaussian(R) 03 system (copyright 2003, Gaussian, Inc.),
 the Gaussian(R) 98 system (copyright 1998, Gaussian, Inc.),
 the Gaussian(R) 94 system (copyright 1995, Gaussian, Inc.),
 the Gaussian 92(TM) system (copyright 1992, Gaussian, Inc.),
 the Gaussian 90(TM) system (copyright 1990, Gaussian, Inc.),
 the Gaussian 88(TM) system (copyright 1988, Gaussian, Inc.),
 the Gaussian 86(TM) system (copyright 1986, Carnegie Mellon
 University), and the Gaussian 82(TM) system (copyright 1983,
 Carnegie Mellon University). Gaussian is a federally registered
 trademark of Gaussian, Inc.
  
 This software contains proprietary and confidential information,
 including trade secrets, belonging to Gaussian, Inc.
  
 This software is provided under written license and may be
 used, copied, transmitted, or stored only in accord with that
 written license.
  
 The following legend is applicable only to US Government
 contracts under FAR:
  
                    RESTRICTED RIGHTS LEGEND
  
 Use, reproduction and disclosure by the US Government is
 subject to restrictions as set forth in subparagraphs (a)
 and (c) of the Commercial Computer Software - Restricted
 Rights clause in FAR 52.227-19.
  
 Gaussian, Inc.
 340 Quinnipiac St., Bldg. 40, Wallingford CT 06492
  
  
 ---------------------------------------------------------------
 Warning -- This program may not be used in any manner that
 competes with the business of Gaussian, Inc. or will provide
 assistance to any competitor of Gaussian, Inc.  The licensee
 of this program is prohibited from giving any competitor of
 Gaussian, Inc. access to this program.  By using this program,
 the user acknowledges that Gaussian, Inc. is engaged in the
 business of creating and licensing software in the field of
 computational chemistry and represents and warrants to the
 licensee that it is not a competitor of Gaussian, Inc. and that
 it will not use this program in any manner prohibited above.
 ---------------------------------------------------------------
  

 Cite this work as:
 Gaussian 16, Revision C.01,
 M. J. Frisch, G. W. Trucks, H. B. Schlegel, G. E. Scuseria, 
 M. A. Robb, J. R. Cheeseman, G. Scalmani, V. Barone, 
 G. A. Petersson, H. Nakatsuji, X. Li, M. Caricato, A. V. Marenich, 
 J. Bloino, B. G. Janesko, R. Gomperts, B. Mennucci, H. P. Hratchian, 
 J. V. Ortiz, A. F. Izmaylov, J. L. Sonnenberg, D. Williams-Young, 
 F. Ding, F. Lipparini, F. Egidi, J. Goings, B. Peng, A. Petrone, 
 T. Henderson, D. Ranasinghe, V. G. Zakrzewski, J. Gao, N. Rega, 
 G. Zheng, W. Liang, M. Hada, M. Ehara, K. Toyota, R. Fukuda, 
 J. Hasegawa, M. Ishida, T. Nakajima, Y. Honda, O. Kitao, H. Nakai, 
 T. Vreven, K. Throssell, J. A. Montgomery, Jr., J. E. Peralta, 
 F. Ogliaro, M. J. Bearpark, J. J. Heyd, E. N. Brothers, K. N. Kudin, 
 V. N. Staroverov, T. A. Keith, R. Kobayashi, J. Normand, 
 K. Raghavachari, A. P. Rendell, J. C. Burant, S. S. Iyengar, 
 J. Tomasi, M. Cossi, J. M. Millam, M. Klene, C. Adamo, R. Cammi, 
 J. W. Ochterski, R. L. Martin, K. Morokuma, O. Farkas, 
 J. B. Foresman, and D. J. Fox, Gaussian, Inc., Wallingford CT, 2019.
 
 ******************************************
 Gaussian 16:  EM64L-G16RevC.01  3-Jul-2019
                21-Mar-2022 
 ******************************************
 %mem=64gb
 %nproc=8
 Will use up to    8 processors via shared memory.
 ----------------------------------------------------------------------
 #P TD(Nstates=10000) pbepbe/Gen SCF(maxcycles=100) Int(Grid=ultrafine)
 ----------------------------------------------------------------------
 1/38=1,172=1/1;
 2/12=2,17=6,18=5,40=1/2;
 3/5=7,11=9,25=1,30=1,74=1009,75=-5/1,2,3,8;
 4//1;
 5/5=2,7=100,38=5/2;
 8/6=1,10=1,108=10000/1;
 9/41=10000,42=1,70=2/14;
 6/7=2,8=2,9=2,10=2/1;
 99/5=1,9=1/99;
 Leave Link    1 at Mon Mar 21 20:17:01 2022, MaxMem=  8589934592 cpu:               0.4 elap:               0.1
 (Enter /home/sabyasachi/g16/l101.exe)
 ---------------------
 xGDB7_00001_tier4.com
 ---------------------
 Symbolic Z-matrix:
 Charge =  0 Multiplicity = 1
 7                     1.10644   0.14251  -0.09098 
 7                    -0.08075  -0.51252   0.00607 
 6                    -1.1487    0.16746   0.00817 
 1                     1.85475  -0.40992   0.29153 
 1                     1.10968   1.10045   0.24271 
 1                    -2.08985  -0.3662    0.03525 
 1                    -1.16221   1.26097  -0.02408 
 
 ITRead=  0  0  0  0  0  0  0
 MicOpt= -1 -1 -1 -1 -1 -1 -1
 NAtoms=      7 NQM=        7 NQMF=       0 NMMI=      0 NMMIF=      0
                NMic=       0 NMicF=      0.
                    Isotopes and Nuclear Properties:
 (Nuclear quadrupole moments (NQMom) in fm**2, nuclear magnetic moments (NMagM)
  in nuclear magnetons)

  Atom         1           2           3           4           5           6           7
 IAtWgt=          14          14          12           1           1           1           1
 AtmWgt=  14.0030740  14.0030740  12.0000000   1.0078250   1.0078250   1.0078250   1.0078250
 NucSpn=           2           2           0           1           1           1           1
 AtZEff=  -0.0000000  -0.0000000  -0.0000000  -0.0000000  -0.0000000  -0.0000000  -0.0000000
 NQMom=    2.0440000   2.0440000   0.0000000   0.0000000   0.0000000   0.0000000   0.0000000
 NMagM=    0.4037610   0.4037610   0.0000000   2.7928460   2.7928460   2.7928460   2.7928460
 AtZNuc=   7.0000000   7.0000000   6.0000000   1.0000000   1.0000000   1.0000000   1.0000000
 Leave Link  101 at Mon Mar 21 20:17:02 2022, MaxMem=  8589934592 cpu:               0.6 elap:               0.1
 (Enter /home/sabyasachi/g16/l202.exe)
                          Input orientation:                          
 ---------------------------------------------------------------------
 Center     Atomic      Atomic             Coordinates (Angstroms)
 Number     Number       Type             X           Y           Z
 ---------------------------------------------------------------------
      1          7           0        1.106441    0.142513   -0.090982
      2          7           0       -0.080753   -0.512520    0.006066
      3          6           0       -1.148696    0.167456    0.008166
      4          1           0        1.854749   -0.409916    0.291533
      5          1           0        1.109677    1.100453    0.242713
      6          1           0       -2.089851   -0.366199    0.035249
      7          1           0       -1.162208    1.260974   -0.024080
 ---------------------------------------------------------------------
                    Distance matrix (angstroms):
                    1          2          3          4          5
     1  N    0.000000
     2  N    1.359381   0.000000
     3  C    2.257453   1.266047   0.000000
     4  H    1.005714   1.959129   3.071537   0.000000
     5  H    1.014402   2.018615   2.454739   1.684853   0.000000
     6  H    3.238982   2.014631   1.082263   3.953158   3.525775
     7  H    2.530257   2.077435   1.094077   3.463165   2.293122
                    6          7
     6  H    0.000000
     7  H    1.873962   0.000000
 Stoichiometry    CH4N2
 Framework group  C1[X(CH4N2)]
 Deg. of freedom    15
 Full point group                 C1      NOp   1
 Largest Abelian subgroup         C1      NOp   1
 Largest concise Abelian subgroup C1      NOp   1
                         Standard orientation:                         
 ---------------------------------------------------------------------
 Center     Atomic      Atomic             Coordinates (Angstroms)
 Number     Number       Type             X           Y           Z
 ---------------------------------------------------------------------
      1          7           0        1.106441    0.142513   -0.090982
      2          7           0       -0.080753   -0.512520    0.006066
      3          6           0       -1.148696    0.167456    0.008166
      4          1           0        1.854749   -0.409916    0.291533
      5          1           0        1.109676    1.100453    0.242713
      6          1           0       -2.089851   -0.366199    0.035249
      7          1           0       -1.162209    1.260974   -0.024080
 ---------------------------------------------------------------------
 Rotational constants (GHZ):          66.3844039          11.5398193           9.9244358
 Leave Link  202 at Mon Mar 21 20:17:02 2022, MaxMem=  8589934592 cpu:               0.1 elap:               0.0
 (Enter /home/sabyasachi/g16/l301.exe)
 General basis read from cards:  (5D, 7F)
 Centers:       4      5      6      7
 S 3 1.00
     Exponent=  1.3010701000D+01 Coefficients=  1.9682158000D-02
     Exponent=  1.9622572000D+00 Coefficients=  1.3796524000D-01
     Exponent=  4.4453796000D-01 Coefficients=  4.7831935000D-01
 S 1 1.00
     Exponent=  1.2194962000D-01 Coefficients=  1.0000000000D+00
 P 1 1.00
     Exponent=  8.0000000000D-01 Coefficients=  1.0000000000D+00
 P 1 1.00
     Exponent=  1.1704099050D-01 Coefficients=  1.0000000000D+00
 ****
 Centers:       3
 S 5 1.00
     Exponent=  1.2384016938D+03 Coefficients=  5.4568832082D-03
     Exponent=  1.8629004992D+02 Coefficients=  4.0638409211D-02
     Exponent=  4.2251176346D+01 Coefficients=  1.8025593888D-01
     Exponent=  1.1676557932D+01 Coefficients=  4.6315121755D-01
     Exponent=  3.5930506482D+00 Coefficients=  4.4087173314D-01
 S 1 1.00
     Exponent=  4.0245147363D-01 Coefficients=  1.0000000000D+00
 S 1 1.00
     Exponent=  1.3090182668D-01 Coefficients=  1.0000000000D+00
 S 1 1.00
     Exponent=  6.7053540256D-02 Coefficients=  1.0000000000D+00
 P 3 1.00
     Exponent=  9.4680970621D+00 Coefficients=  3.8387871728D-02
     Exponent=  2.0103545142D+00 Coefficients=  2.1117025112D-01
     Exponent=  5.4771004707D-01 Coefficients=  5.1328172114D-01
 P 1 1.00
     Exponent=  1.5268613795D-01 Coefficients=  1.0000000000D+00
 D 1 1.00
     Exponent=  8.0000000000D-01 Coefficients=  1.0000000000D+00
 D 1 1.00
     Exponent=  1.1713185140D-01 Coefficients=  1.0000000000D+00
 ****
 Centers:       1      2
 S 5 1.00
     Exponent=  1.7128415853D+03 Coefficients= -5.3934125305D-03
     Exponent=  2.5764812677D+02 Coefficients= -4.0221581118D-02
     Exponent=  5.8458245853D+01 Coefficients= -1.7931144990D-01
     Exponent=  1.6198367905D+01 Coefficients= -4.6376317823D-01
     Exponent=  5.0052600809D+00 Coefficients= -4.4171422662D-01
 S 1 1.00
     Exponent=  5.8731856571D-01 Coefficients=  1.0000000000D+00
 S 1 1.00
     Exponent=  1.8764592253D-01 Coefficients=  1.0000000000D+00
 S 1 1.00
     Exponent=  9.6171241529D-02 Coefficients=  1.0000000000D+00
 P 3 1.00
     Exponent=  1.3571470233D+01 Coefficients= -4.0072398852D-02
     Exponent=  2.9257372874D+00 Coefficients= -2.1807045028D-01
     Exponent=  7.9927750754D-01 Coefficients= -5.1294466049D-01
 P 1 1.00
     Exponent=  2.1954348034D-01 Coefficients=  1.0000000000D+00
 D 1 1.00
     Exponent=  1.0000000000D+00 Coefficients=  1.0000000000D+00
 D 1 1.00
     Exponent=  1.6697708112D-01 Coefficients=  1.0000000000D+00
 ****
 Ernie: Thresh=  0.10000D-02 Tol=  0.10000D-05 Strict=F.
 There are    98 symmetry adapted cartesian basis functions of A   symmetry.
 There are    92 symmetry adapted basis functions of A   symmetry.
    92 basis functions,   136 primitive gaussians,    98 cartesian basis functions
    12 alpha electrons       12 beta electrons
       nuclear repulsion energy        73.1919062595 Hartrees.
 IExCor= 1009 DFT=T Ex=PBE Corr=PBE ExCW=0 ScaHFX=  0.000000
 ScaDFX=  1.000000  1.000000  1.000000  1.000000 ScalE2=  1.000000  1.000000
 IRadAn=      5 IRanWt=     -1 IRanGd=            0 ICorTp=0 IEmpDi=  4
 NAtoms=    7 NActive=    7 NUniq=    7 SFac= 1.00D+00 NAtFMM=   60 NAOKFM=F Big=F
 Integral buffers will be    131072 words long.
 Regular integral format.
 Two-electron integral symmetry is turned on.
 Leave Link  301 at Mon Mar 21 20:17:02 2022, MaxMem=  8589934592 cpu:               0.6 elap:               0.1
 (Enter /home/sabyasachi/g16/l302.exe)
 NPDir=0 NMtPBC=     1 NCelOv=     1 NCel=       1 NClECP=     1 NCelD=      1
         NCelK=      1 NCelE2=     1 NClLst=     1 CellRange=     0.0.
 One-electron integrals computed using PRISM.
 One-electron integral symmetry used in STVInt
 NBasis=    92 RedAO= T EigKep=  3.91D-04  NBF=    92
 NBsUse=    92 1.00D-06 EigRej= -1.00D+00 NBFU=    92
 Precomputing XC quadrature grid using
 IXCGrd= 4 IRadAn=           5 IRanWt=          -1 IRanGd=           0 AccXCQ= 0.00D+00.
 Generated NRdTot=       0 NPtTot=           0 NUsed=           0 NTot=          32
 NSgBfM=    98    98    98    98    98 MxSgAt=     7 MxSgA2=     7.
 Leave Link  302 at Mon Mar 21 20:17:02 2022, MaxMem=  8589934592 cpu:               1.0 elap:               0.1
 (Enter /home/sabyasachi/g16/l303.exe)
 DipDrv:  MaxL=1.
 Leave Link  303 at Mon Mar 21 20:17:02 2022, MaxMem=  8589934592 cpu:               0.2 elap:               0.0
 (Enter /home/sabyasachi/g16/l308.exe)
 Leave Link  308 at Mon Mar 21 20:17:02 2022, MaxMem=  8589934592 cpu:               0.2 elap:               0.1
 (Enter /home/sabyasachi/g16/l401.exe)
 ExpMin= 6.71D-02 ExpMax= 1.71D+03 ExpMxC= 2.58D+02 IAcc=3 IRadAn=         5 AccDes= 0.00D+00
 Harris functional with IExCor= 1009 and IRadAn=       5 diagonalized for initial guess.
 HarFok:  IExCor= 1009 AccDes= 0.00D+00 IRadAn=         5 IDoV= 1 UseB2=F ITyADJ=14
 ICtDFT=  3500011 ScaDFX=  1.000000  1.000000  1.000000  1.000000
 FoFCou: FMM=F IPFlag=           0 FMFlag=      100000 FMFlg1=           0
         NFxFlg=           0 DoJE=T BraDBF=F KetDBF=T FulRan=T
         wScrn=  0.000000 ICntrl=       500 IOpCl=  0 I1Cent=   200000004 NGrid=           0
         NMat0=    1 NMatS0=      1 NMatT0=    0 NMatD0=    1 NMtDS0=    0 NMtDT0=    0
 Petite list used in FoFCou.
 Harris En= -149.713609139303    
 JPrj=0 DoOrth=F DoCkMO=F.
 Leave Link  401 at Mon Mar 21 20:17:02 2022, MaxMem=  8589934592 cpu:               2.6 elap:               0.3
 (Enter /home/sabyasachi/g16/l502.exe)
 Keep J ints in memory in canonical form, NReq=16534063.
 FoFCou: FMM=F IPFlag=           0 FMFlag=           0 FMFlg1=           0
         NFxFlg=           0 DoJE=F BraDBF=F KetDBF=F FulRan=T
         wScrn=  0.000000 ICntrl=       600 IOpCl=  0 I1Cent=           0 NGrid=           0
         NMat0=    1 NMatS0=   4278 NMatT0=    0 NMatD0=    1 NMtDS0=    0 NMtDT0=    0
 Symmetry not used in FoFCou.
 Two-electron integral symmetry not used.
 Closed shell SCF:
 Using DIIS extrapolation, IDIIS=  1040.
 NGot=  8589934592 LenX=  8580760569 LenY=  8580750524
 Requested convergence on RMS density matrix=1.00D-08 within 100 cycles.
 Requested convergence on MAX density matrix=1.00D-06.
 Requested convergence on             energy=1.00D-06.
 No special actions if energy rises.
 Integral accuracy reduced to 1.0D-05 until final iterations.

 Cycle   1  Pass 0  IDiag  1:
 E= -149.632654012957    
 DIIS: error= 2.03D-02 at cycle   1 NSaved=   1.
 NSaved= 1 IEnMin= 1 EnMin= -149.632654012957     IErMin= 1 ErrMin= 2.03D-02
 ErrMax= 2.03D-02  0.00D+00 EMaxC= 1.00D-01 BMatC= 4.83D-02 BMatP= 4.83D-02
 IDIUse=3 WtCom= 7.97D-01 WtEn= 2.03D-01
 Coeff-Com:  0.100D+01
 Coeff-En:   0.100D+01
 Coeff:      0.100D+01
 Gap=     0.160 Goal=   None    Shift=    0.000
 GapD=    0.160 DampG=1.000 DampE=0.500 DampFc=0.5000 IDamp=-1.
 Damping current iteration by 5.00D-01
 RMSDP=1.00D-02 MaxDP=3.39D-01              OVMax= 1.71D-01

 Cycle   2  Pass 0  IDiag  1:
 E= -149.650767482566     Delta-E=       -0.018113469609 Rises=F Damp=T
 DIIS: error= 4.47D-03 at cycle   2 NSaved=   2.
 NSaved= 2 IEnMin= 2 EnMin= -149.650767482566     IErMin= 2 ErrMin= 4.47D-03
 ErrMax= 4.47D-03  0.00D+00 EMaxC= 1.00D-01 BMatC= 3.94D-03 BMatP= 4.83D-02
 IDIUse=3 WtCom= 9.55D-01 WtEn= 4.47D-02
 Coeff-Com:  0.175D+00 0.825D+00
 Coeff-En:   0.288D+00 0.712D+00
 Coeff:      0.180D+00 0.820D+00
 Gap=     0.184 Goal=   None    Shift=    0.000
 RMSDP=1.85D-03 MaxDP=3.26D-02 DE=-1.81D-02 OVMax= 1.39D-01

 Cycle   3  Pass 0  IDiag  1:
 E= -149.681368287464     Delta-E=       -0.030600804898 Rises=F Damp=F
 DIIS: error= 5.95D-03 at cycle   3 NSaved=   3.
 NSaved= 3 IEnMin= 3 EnMin= -149.681368287464     IErMin= 2 ErrMin= 4.47D-03
 ErrMax= 5.95D-03  0.00D+00 EMaxC= 1.00D-01 BMatC= 4.12D-03 BMatP= 3.94D-03
 IDIUse=3 WtCom= 9.40D-01 WtEn= 5.95D-02
 Coeff-Com:  0.848D-01 0.527D+00 0.388D+00
 Coeff-En:   0.000D+00 0.000D+00 0.100D+01
 Coeff:      0.797D-01 0.495D+00 0.425D+00
 Gap=     0.168 Goal=   None    Shift=    0.000
 RMSDP=1.33D-03 MaxDP=3.17D-02 DE=-3.06D-02 OVMax= 5.47D-02

 Cycle   4  Pass 0  IDiag  1:
 E= -149.683863815919     Delta-E=       -0.002495528455 Rises=F Damp=F
 DIIS: error= 4.30D-03 at cycle   4 NSaved=   4.
 NSaved= 4 IEnMin= 4 EnMin= -149.683863815919     IErMin= 4 ErrMin= 4.30D-03
 ErrMax= 4.30D-03  0.00D+00 EMaxC= 1.00D-01 BMatC= 1.69D-03 BMatP= 3.94D-03
 IDIUse=3 WtCom= 9.57D-01 WtEn= 4.30D-02
 Coeff-Com:  0.242D-01 0.191D+00 0.353D+00 0.432D+00
 Coeff-En:   0.000D+00 0.000D+00 0.340D+00 0.660D+00
 Coeff:      0.231D-01 0.183D+00 0.353D+00 0.441D+00
 Gap=     0.168 Goal=   None    Shift=    0.000
 RMSDP=5.29D-04 MaxDP=1.07D-02 DE=-2.50D-03 OVMax= 2.27D-02

 Cycle   5  Pass 0  IDiag  1:
 E= -149.685468243687     Delta-E=       -0.001604427768 Rises=F Damp=F
 DIIS: error= 6.64D-04 at cycle   5 NSaved=   5.
 NSaved= 5 IEnMin= 5 EnMin= -149.685468243687     IErMin= 5 ErrMin= 6.64D-04
 ErrMax= 6.64D-04  0.00D+00 EMaxC= 1.00D-01 BMatC= 4.19D-05 BMatP= 1.69D-03
 IDIUse=3 WtCom= 9.93D-01 WtEn= 6.64D-03
 Coeff-Com:  0.596D-02 0.531D-01 0.153D+00 0.237D+00 0.551D+00
 Coeff-En:   0.000D+00 0.000D+00 0.000D+00 0.000D+00 0.100D+01
 Coeff:      0.592D-02 0.528D-01 0.152D+00 0.235D+00 0.554D+00
 Gap=     0.169 Goal=   None    Shift=    0.000
 RMSDP=1.12D-04 MaxDP=2.34D-03 DE=-1.60D-03 OVMax= 4.33D-03

 Cycle   6  Pass 0  IDiag  1:
 E= -149.685494601403     Delta-E=       -0.000026357717 Rises=F Damp=F
 DIIS: error= 2.75D-04 at cycle   6 NSaved=   6.
 NSaved= 6 IEnMin= 6 EnMin= -149.685494601403     IErMin= 6 ErrMin= 2.75D-04
 ErrMax= 2.75D-04  0.00D+00 EMaxC= 1.00D-01 BMatC= 1.32D-05 BMatP= 4.19D-05
 IDIUse=3 WtCom= 9.97D-01 WtEn= 2.75D-03
 Coeff-Com:  0.597D-03 0.101D-01 0.565D-01 0.101D+00 0.400D+00 0.432D+00
 Coeff-En:   0.000D+00 0.000D+00 0.000D+00 0.000D+00 0.277D+00 0.723D+00
 Coeff:      0.595D-03 0.101D-01 0.564D-01 0.101D+00 0.399D+00 0.432D+00
 Gap=     0.168 Goal=   None    Shift=    0.000
 RMSDP=4.74D-05 MaxDP=1.14D-03 DE=-2.64D-05 OVMax= 1.62D-03

 Cycle   7  Pass 0  IDiag  1:
 E= -149.685507284419     Delta-E=       -0.000012683016 Rises=F Damp=F
 DIIS: error= 1.85D-05 at cycle   7 NSaved=   7.
 NSaved= 7 IEnMin= 7 EnMin= -149.685507284419     IErMin= 7 ErrMin= 1.85D-05
 ErrMax= 1.85D-05  0.00D+00 EMaxC= 1.00D-01 BMatC= 4.52D-08 BMatP= 1.32D-05
 IDIUse=1 WtCom= 1.00D+00 WtEn= 0.00D+00
 Coeff-Com: -0.197D-05 0.137D-02 0.136D-01 0.250D-01 0.116D+00 0.140D+00
 Coeff-Com:  0.704D+00
 Coeff:     -0.197D-05 0.137D-02 0.136D-01 0.250D-01 0.116D+00 0.140D+00
 Coeff:      0.704D+00
 Gap=     0.168 Goal=   None    Shift=    0.000
 RMSDP=5.06D-06 MaxDP=1.21D-04 DE=-1.27D-05 OVMax= 8.03D-05

 Initial convergence to 1.0D-05 achieved.  Increase integral accuracy.
 Cycle   8  Pass 1  IDiag  1:
 E= -149.685509059279     Delta-E=       -0.000001774859 Rises=F Damp=F
 DIIS: error= 4.01D-06 at cycle   1 NSaved=   1.
 NSaved= 1 IEnMin= 1 EnMin= -149.685509059279     IErMin= 1 ErrMin= 4.01D-06
 ErrMax= 4.01D-06  0.00D+00 EMaxC= 1.00D-01 BMatC= 2.74D-09 BMatP= 2.74D-09
 IDIUse=1 WtCom= 1.00D+00 WtEn= 0.00D+00
 Coeff-Com:  0.100D+01
 Coeff:      0.100D+01
 Gap=     0.168 Goal=   None    Shift=    0.000
 RMSDP=5.06D-06 MaxDP=1.21D-04 DE=-1.77D-06 OVMax= 5.59D-05

 Cycle   9  Pass 1  IDiag  1:
 E= -149.685509056464     Delta-E=        0.000000002815 Rises=F Damp=F
 DIIS: error= 7.21D-06 at cycle   2 NSaved=   2.
 NSaved= 2 IEnMin= 1 EnMin= -149.685509059279     IErMin= 1 ErrMin= 4.01D-06
 ErrMax= 7.21D-06  0.00D+00 EMaxC= 1.00D-01 BMatC= 6.88D-09 BMatP= 2.74D-09
 IDIUse=1 WtCom= 1.00D+00 WtEn= 0.00D+00
 Coeff-Com:  0.637D+00 0.363D+00
 Coeff:      0.637D+00 0.363D+00
 Gap=     0.168 Goal=   None    Shift=    0.000
 RMSDP=1.37D-06 MaxDP=3.32D-05 DE= 2.82D-09 OVMax= 6.35D-05

 Cycle  10  Pass 1  IDiag  1:
 E= -149.685509061885     Delta-E=       -0.000000005421 Rises=F Damp=F
 DIIS: error= 3.52D-06 at cycle   3 NSaved=   3.
 NSaved= 3 IEnMin= 3 EnMin= -149.685509061885     IErMin= 3 ErrMin= 3.52D-06
 ErrMax= 3.52D-06  0.00D+00 EMaxC= 1.00D-01 BMatC= 1.52D-09 BMatP= 2.74D-09
 IDIUse=1 WtCom= 1.00D+00 WtEn= 0.00D+00
 Coeff-Com:  0.211D+00 0.293D+00 0.495D+00
 Coeff:      0.211D+00 0.293D+00 0.495D+00
 Gap=     0.168 Goal=   None    Shift=    0.000
 RMSDP=5.62D-07 MaxDP=1.21D-05 DE=-5.42D-09 OVMax= 2.61D-05

 Cycle  11  Pass 1  IDiag  1:
 E= -149.685509063397     Delta-E=       -0.000000001512 Rises=F Damp=F
 DIIS: error= 5.34D-07 at cycle   4 NSaved=   4.
 NSaved= 4 IEnMin= 4 EnMin= -149.685509063397     IErMin= 4 ErrMin= 5.34D-07
 ErrMax= 5.34D-07  0.00D+00 EMaxC= 1.00D-01 BMatC= 3.80D-11 BMatP= 1.52D-09
 IDIUse=1 WtCom= 1.00D+00 WtEn= 0.00D+00
 Coeff-Com:  0.127D-01 0.699D-01 0.205D+00 0.713D+00
 Coeff:      0.127D-01 0.699D-01 0.205D+00 0.713D+00
 Gap=     0.168 Goal=   None    Shift=    0.000
 RMSDP=1.08D-07 MaxDP=1.91D-06 DE=-1.51D-09 OVMax= 4.10D-06

 Cycle  12  Pass 1  IDiag  1:
 E= -149.685509063430     Delta-E=       -0.000000000033 Rises=F Damp=F
 DIIS: error= 2.65D-07 at cycle   5 NSaved=   5.
 NSaved= 5 IEnMin= 5 EnMin= -149.685509063430     IErMin= 5 ErrMin= 2.65D-07
 ErrMax= 2.65D-07  0.00D+00 EMaxC= 1.00D-01 BMatC= 1.05D-11 BMatP= 3.80D-11
 IDIUse=1 WtCom= 1.00D+00 WtEn= 0.00D+00
 Coeff-Com: -0.950D-03 0.354D-01 0.117D+00 0.475D+00 0.373D+00
 Coeff:     -0.950D-03 0.354D-01 0.117D+00 0.475D+00 0.373D+00
 Gap=     0.168 Goal=   None    Shift=    0.000
 RMSDP=4.37D-08 MaxDP=1.30D-06 DE=-3.29D-11 OVMax= 9.41D-07

 Cycle  13  Pass 1  IDiag  1:
 E= -149.685509063440     Delta-E=       -0.000000000010 Rises=F Damp=F
 DIIS: error= 3.72D-08 at cycle   6 NSaved=   6.
 NSaved= 6 IEnMin= 6 EnMin= -149.685509063440     IErMin= 6 ErrMin= 3.72D-08
 ErrMax= 3.72D-08  0.00D+00 EMaxC= 1.00D-01 BMatC= 2.03D-13 BMatP= 1.05D-11
 IDIUse=1 WtCom= 1.00D+00 WtEn= 0.00D+00
 Coeff-Com: -0.170D-02 0.108D-01 0.366D-01 0.162D+00 0.176D+00 0.617D+00
 Coeff:     -0.170D-02 0.108D-01 0.366D-01 0.162D+00 0.176D+00 0.617D+00
 Gap=     0.168 Goal=   None    Shift=    0.000
 RMSDP=6.98D-09 MaxDP=9.48D-08 DE=-9.78D-12 OVMax= 1.66D-07

 SCF Done:  E(RPBE-PBE) =  -149.685509063     A.U. after   13 cycles
            NFock= 13  Conv=0.70D-08     -V/T= 2.0092
 KE= 1.483224982854D+02 PE=-4.948912148414D+02 EE= 1.236913012330D+02
 Leave Link  502 at Mon Mar 21 20:17:05 2022, MaxMem=  8589934592 cpu:              16.2 elap:               2.2
 (Enter /home/sabyasachi/g16/l801.exe)
 DoSCS=F DFT=T ScalE2(SS,OS)=  1.000000  1.000000
 ExpMin= 6.71D-02 ExpMax= 1.71D+03 ExpMxC= 2.58D+02 IAcc=3 IRadAn=         5 AccDes= 0.00D+00
 HarFok:  IExCor=  205 AccDes= 0.00D+00 IRadAn=         5 IDoV=-2 UseB2=F ITyADJ=14
 ICtDFT= 12500011 ScaDFX=  1.000000  1.000000  1.000000  1.000000
 Largest valence mixing into a core orbital is  6.51D-05
 Largest core mixing into a valence orbital is  1.25D-05
 Range of M.O.s used for correlation:     4    92
 NBasis=    92 NAE=    12 NBE=    12 NFC=     3 NFV=     0
 NROrb=     89 NOA=     9 NOB=     9 NVA=    80 NVB=    80

 **** Warning!!: The largest alpha MO coefficient is  0.13418323D+02

 Leave Link  801 at Mon Mar 21 20:17:05 2022, MaxMem=  8589934592 cpu:               0.5 elap:               0.1
 (Enter /home/sabyasachi/g16/l914.exe)
 RHF ground state
 Keep J ints in memory in canonical form, NReq=583180155.
 FoFCou: FMM=F IPFlag=           0 FMFlag=           0 FMFlg1=           0
         NFxFlg=           0 DoJE=F BraDBF=F KetDBF=F FulRan=T
         wScrn=  0.000000 ICntrl=       600 IOpCl=  0 I1Cent=           0 NGrid=           0
         NMat0=    1 NMatS0=   4278 NMatT0=    0 NMatD0=    1 NMtDS0=    0 NMtDT0=    0
 Symmetry not used in FoFCou.
 Two-electron integral symmetry not used.
 MDV=  8589934592 DFT=T DoStab=F Mixed=F DoRPA=T DoScal=T NonHer=F
 Making orbital integer symmetry assigments:
 Orbital symmetries:
       Occupied  (A) (A) (A) (A) (A) (A) (A) (A) (A) (A) (A) (A)
       Virtual   (A) (A) (A) (A) (A) (A) (A) (A) (A) (A) (A) (A)
                 (A) (A) (A) (A) (A) (A) (A) (A) (A) (A) (A) (A)
                 (A) (A) (A) (A) (A) (A) (A) (A) (A) (A) (A) (A)
                 (A) (A) (A) (A) (A) (A) (A) (A) (A) (A) (A) (A)
                 (A) (A) (A) (A) (A) (A) (A) (A) (A) (A) (A) (A)
                 (A) (A) (A) (A) (A) (A) (A) (A) (A) (A) (A) (A)
                 (A) (A) (A) (A) (A) (A) (A) (A)
   720 initial guesses have been made.
 Convergence on wavefunction:    0.001000000000000
 Davidson Disk Diagonalization:  ConvIn= 1.00D-03 SkipCon=T Conv= 1.00D-03.
 Max sub-space:  2880 roots to seek:  1440 dimension of matrix:         1440
 *** WARNING: Number of orthogonal guesses is          720
 Iteration     1 Dimension   720 NMult     0 NNew    720
 CISAX will form   720 AO SS matrices at one time.
 NMat=   720 NSing=   720 JSym2X= 0.
 New state      1 was old state      2
 New state      2 was old state      1
 New state     10 was old state     11
 New state     11 was old state     12
 New state     12 was old state     13
 New state     13 was old state     15
 New state     15 was old state     16
 New state     16 was old state     17
 New state     17 was old state     10
 New state     18 was old state     19
 New state     19 was old state     18
 New state     20 was old state     22
 New state     22 was old state     20
 New state     25 was old state     26
 New state     26 was old state     25
 New state     27 was old state     28
 New state     28 was old state     29
 New state     29 was old state     27
 New state     30 was old state     31
 New state     31 was old state     30
 New state     33 was old state     34
 New state     34 was old state     33
 New state     39 was old state     40
 New state     40 was old state     39
 New state     45 was old state     46
 New state     46 was old state     45
 New state     48 was old state     49
 New state     49 was old state     48
 New state     50 was old state     51
 New state     51 was old state     53
 New state     52 was old state     50
 New state     53 was old state     54
 New state     54 was old state     57
 New state     57 was old state     58
 New state     58 was old state     60
 New state     60 was old state     61
 New state     61 was old state     52
 New state     65 was old state     66
 New state     66 was old state     68
 New state     67 was old state     69
 New state     68 was old state     65
 New state     69 was old state     70
 New state     70 was old state     67
 New state     71 was old state     73
 New state     72 was old state     74
 New state     73 was old state     75
 New state     74 was old state     71
 New state     75 was old state     79
 New state     76 was old state     77
 New state     77 was old state     78
 New state     78 was old state     81
 New state     79 was old state     80
 New state     80 was old state     76
 New state     81 was old state     85
 New state     84 was old state     87
 New state     85 was old state     84
 New state     87 was old state     89
 New state     89 was old state     91
 New state     90 was old state     93
 New state     91 was old state     94
 New state     93 was old state     97
 New state     94 was old state     95
 New state     95 was old state     96
 New state     96 was old state     98
 New state     97 was old state     90
 New state     98 was old state     99
 New state     99 was old state    100
 New state    100 was old state    101
 New state    101 was old state    103
 New state    102 was old state    104
 New state    103 was old state    102
 New state    104 was old state    105
 New state    105 was old state    107
 New state    107 was old state    110
 New state    108 was old state    109
 New state    109 was old state    108
 New state    110 was old state    112
 New state    112 was old state    113
 New state    113 was old state    115
 New state    115 was old state    116
 New state    116 was old state    120
 New state    117 was old state    118
 New state    118 was old state    119
 New state    119 was old state    117
 New state    120 was old state    121
 New state    121 was old state    123
 New state    122 was old state    126
 New state    123 was old state    124
 New state    124 was old state    122
 New state    125 was old state    127
 New state    126 was old state    128
 New state    127 was old state    125
 New state    128 was old state    129
 New state    129 was old state    130
 New state    130 was old state    131
 New state    131 was old state    132
 New state    132 was old state    133
 New state    133 was old state    136
 New state    134 was old state    135
 New state    135 was old state    134
 New state    136 was old state    139
 New state    139 was old state    141
 New state    140 was old state    142
 New state    141 was old state    140
 New state    142 was old state    149
 New state    144 was old state    145
 New state    145 was old state    146
 New state    146 was old state    144
 New state    147 was old state    148
 New state    148 was old state    150
 New state    149 was old state    153
 New state    150 was old state    151
 New state    151 was old state    152
 New state    152 was old state    147
 New state    153 was old state    154
 New state    154 was old state    157
 New state    157 was old state    158
 New state    158 was old state    160
 New state    160 was old state    162
 New state    161 was old state    163
 New state    162 was old state    165
 New state    163 was old state    164
 New state    164 was old state    161
 New state    165 was old state    166
 New state    166 was old state    172
 New state    168 was old state    170
 New state    169 was old state    168
 New state    170 was old state    171
 New state    171 was old state    176
 New state    172 was old state    169
 New state    173 was old state    174
 New state    174 was old state    175
 New state    175 was old state    180
 New state    176 was old state    178
 New state    177 was old state    179
 New state    178 was old state    181
 New state    179 was old state    184
 New state    180 was old state    177
 New state    181 was old state    186
 New state    182 was old state    187
 New state    183 was old state    185
 New state    184 was old state    182
 New state    185 was old state    183
 New state    186 was old state    191
 New state    187 was old state    189
 New state    188 was old state    190
 New state    189 was old state    193
 New state    190 was old state    192
 New state    191 was old state    188
 New state    192 was old state    195
 New state    193 was old state    196
 New state    194 was old state    197
 New state    195 was old state    194
 New state    196 was old state    199
 New state    197 was old state    203
 New state    198 was old state    200
 New state    199 was old state    202
 New state    200 was old state    201
 New state    201 was old state    204
 New state    202 was old state    206
 New state    203 was old state    205
 New state    204 was old state    198
 New state    205 was old state    210
 New state    206 was old state    207
 New state    207 was old state    209
 New state    208 was old state    212
 New state    209 was old state    211
 New state    210 was old state    208
 New state    211 was old state    213
 New state    212 was old state    216
 New state    213 was old state    214
 New state    214 was old state    218
 New state    215 was old state    221
 New state    216 was old state    222
 New state    218 was old state    225
 New state    220 was old state    223
 New state    221 was old state    220
 New state    222 was old state    224
 New state    223 was old state    226
 New state    224 was old state    215
 New state    225 was old state    227
 New state    226 was old state    231
 New state    227 was old state    230
 New state    228 was old state    232
 New state    230 was old state    234
 New state    231 was old state    233
 New state    232 was old state    228
 New state    233 was old state    236
 New state    234 was old state    237
 New state    236 was old state    238
 New state    237 was old state    241
 New state    238 was old state    239
 New state    239 was old state    242
 New state    241 was old state    244
 New state    242 was old state    246
 New state    243 was old state    245
 New state    244 was old state    243
 New state    245 was old state    247
 New state    246 was old state    249
 New state    247 was old state    252
 New state    249 was old state    251
 New state    251 was old state    253
 New state    252 was old state    255
 New state    253 was old state    256
 New state    254 was old state    258
 New state    255 was old state    254
 New state    256 was old state    257
 New state    257 was old state    259
 New state    258 was old state    260
 New state    259 was old state    263
 New state    260 was old state    265
 New state    261 was old state    262
 New state    262 was old state    264
 New state    263 was old state    266
 New state    264 was old state    261
 New state    265 was old state    268
 New state    266 was old state    270
 New state    267 was old state    271
 New state    268 was old state    267
 New state    269 was old state    276
 New state    270 was old state    273
 New state    271 was old state    272
 New state    272 was old state    275
 New state    273 was old state    277
 New state    274 was old state    280
 New state    275 was old state    269
 New state    276 was old state    279
 New state    277 was old state    274
 New state    279 was old state    285
 New state    280 was old state    281
 New state    281 was old state    282
 New state    282 was old state    283
 New state    283 was old state    284
 New state    284 was old state    286
 New state    285 was old state    288
 New state    286 was old state    287
 New state    287 was old state    289
 New state    288 was old state    290
 New state    289 was old state    291
 No map to state    290
 New state    291 was old state    294
 New state    293 was old state    295
 New state    294 was old state    293
 New state    295 was old state    296
 New state    296 was old state    297
 New state    297 was old state    298
 New state    298 was old state    299
 New state    299 was old state    300
 New state    300 was old state    301
 New state    301 was old state    303
 New state    303 was old state    304
 New state    304 was old state    306
 New state    306 was old state    308
 New state    307 was old state    309
 New state    308 was old state    310
 New state    309 was old state    311
 New state    310 was old state    307
 New state    311 was old state    312
 New state    312 was old state    314
 New state    314 was old state    316
 New state    315 was old state    317
 New state    316 was old state    318
 New state    317 was old state    315
 New state    318 was old state    319
 New state    319 was old state    321
 New state    320 was old state    322
 New state    321 was old state    325
 New state    322 was old state    323
 New state    323 was old state    326
 New state    324 was old state    328
 New state    325 was old state    324
 New state    326 was old state    327
 New state    327 was old state    331
 New state    328 was old state    329
 New state    329 was old state    330
 New state    330 was old state    332
 New state    331 was old state    334
 New state    332 was old state    337
 New state    334 was old state    336
 New state    336 was old state    339
 New state    337 was old state    338
 New state    338 was old state    340
 New state    339 was old state    341
 New state    340 was old state    342
 New state    341 was old state    343
 New state    342 was old state    354
 New state    343 was old state    344
 New state    344 was old state    345
 New state    345 was old state    348
 New state    346 was old state    347
 New state    347 was old state    346
 New state    348 was old state    350
 New state    350 was old state    351
 New state    351 was old state    353
 New state    352 was old state    355
 New state    353 was old state    352
 New state    354 was old state    356
 New state    355 was old state    361
 New state    356 was old state    359
 New state    359 was old state    360
 New state    360 was old state    362
 New state    361 was old state    364
 New state    362 was old state    363
 New state    363 was old state    365
 New state    364 was old state    366
 New state    365 was old state    368
 New state    366 was old state    367
 New state    367 was old state    370
 New state    368 was old state    371
 New state    370 was old state    372
 New state    371 was old state    373
 New state    372 was old state    374
 New state    373 was old state    379
 New state    374 was old state    376
 New state    376 was old state    380
 New state    379 was old state    385
 New state    380 was old state    381
 New state    381 was old state    384
 New state    382 was old state    383
 New state    383 was old state    390
 New state    384 was old state    382
 New state    385 was old state    386
 New state    386 was old state    387
 New state    387 was old state    389
 New state    388 was old state    391
 New state    389 was old state    388
 New state    390 was old state    392
 New state    391 was old state    394
 New state    392 was old state    393
 New state    393 was old state    395
 New state    394 was old state    396
 New state    395 was old state    397
 New state    396 was old state    400
 New state    397 was old state    398
 New state    398 was old state    399
 New state    399 was old state    402
 New state    400 was old state    401
 New state    401 was old state    403
 New state    402 was old state    407
 New state    403 was old state    406
 New state    406 was old state    408
 New state    407 was old state    409
 New state    408 was old state    411
 New state    409 was old state    410
 New state    410 was old state    412
 New state    411 was old state    413
 No map to state    412
 New state    413 was old state    415
 New state    415 was old state    416
 New state    416 was old state    417
 New state    417 was old state    418
 New state    418 was old state    420
 New state    420 was old state    421
 New state    421 was old state    423
 New state    422 was old state    425
 New state    423 was old state    424
 New state    424 was old state    422
 New state    425 was old state    426
 New state    426 was old state    428
 New state    428 was old state    429
 New state    429 was old state    433
 New state    431 was old state    432
 New state    432 was old state    431
 New state    433 was old state    434
 New state    434 was old state    438
 New state    435 was old state    437
 New state    437 was old state    435
 New state    438 was old state    439
 New state    439 was old state    441
 New state    441 was old state    444
 New state    443 was old state    445
 New state    444 was old state    443
 New state    445 was old state    446
 New state    446 was old state    449
 New state    447 was old state    448
 New state    448 was old state    447
 New state    449 was old state    450
 New state    450 was old state    452
 New state    452 was old state    458
 New state    458 was old state    459
 New state    459 was old state    461
 New state    461 was old state    462
 New state    462 was old state    465
 New state    463 was old state    464
 New state    464 was old state    463
 New state    465 was old state    466
 New state    466 was old state    467
 New state    467 was old state    468
 New state    468 was old state    469
 New state    469 was old state    470
 New state    470 was old state    472
 New state    471 was old state    474
 New state    472 was old state    473
 New state    473 was old state    471
 New state    474 was old state    476
 New state    476 was old state    477
 New state    477 was old state    481
 New state    478 was old state    479
 New state    479 was old state    480
 New state    480 was old state    482
 New state    481 was old state    478
 New state    482 was old state    485
 New state    485 was old state    486
 New state    486 was old state    487
 New state    487 was old state    488
 New state    488 was old state    489
 New state    489 was old state    490
 New state    490 was old state    491
 New state    491 was old state    493
 New state    493 was old state    494
 New state    494 was old state    495
 New state    495 was old state    496
 New state    496 was old state    497
 New state    497 was old state    498
 New state    498 was old state    499
 New state    499 was old state    500
 New state    500 was old state    502
 New state    502 was old state    503
 New state    503 was old state    504
 No map to state    504
 New state    506 was old state    507
 New state    507 was old state    506
 New state    512 was old state    514
 New state    513 was old state    512
 New state    514 was old state    515
 New state    515 was old state    513
 New state    519 was old state    520
 New state    520 was old state    521
 New state    521 was old state    522
 New state    522 was old state    523
 New state    523 was old state    524
 New state    524 was old state    519
 New state    525 was old state    526
 New state    526 was old state    525
 New state    530 was old state    532
 New state    532 was old state    530
 New state    533 was old state    534
 New state    534 was old state    533
 New state    535 was old state    536
 New state    536 was old state    537
 New state    537 was old state    535
 New state    550 was old state    552
 New state    552 was old state    554
 New state    554 was old state    555
 New state    555 was old state    556
 New state    556 was old state    557
 New state    557 was old state    559
 New state    559 was old state    560
 New state    560 was old state    561
 New state    561 was old state    550
 New state    563 was old state    564
 New state    564 was old state    563
 New state    565 was old state    567
 New state    567 was old state    568
 New state    568 was old state    565
 New state    574 was old state    576
 New state    575 was old state    574
 New state    576 was old state    578
 New state    577 was old state    575
 New state    578 was old state    577
 New state    579 was old state    580
 New state    580 was old state    579
 New state    581 was old state    582
 New state    582 was old state    583
 New state    583 was old state    581
 New state    585 was old state    586
 New state    586 was old state    587
 New state    587 was old state    585
 New state    589 was old state    590
 New state    590 was old state    591
 New state    591 was old state    592
 New state    592 was old state    589
 New state    593 was old state    595
 New state    595 was old state    598
 New state    598 was old state    593
 New state    602 was old state    603
 New state    603 was old state    602
 New state    609 was old state    610
 New state    610 was old state    611
 New state    611 was old state    609
 New state    614 was old state    615
 New state    615 was old state    614
 New state    617 was old state    618
 New state    618 was old state    617
 New state    629 was old state    630
 New state    630 was old state    629
 New state    633 was old state    634
 New state    634 was old state    633
 New state    642 was old state    643
 New state    643 was old state    642
 New state    644 was old state    645
 New state    645 was old state    644
 New state    649 was old state    650
 New state    650 was old state    649
 New state    654 was old state    655
 New state    655 was old state    654
 New state    656 was old state    657
 New state    657 was old state    658
 New state    658 was old state    656
 New state    659 was old state    661
 New state    660 was old state    659
 New state    661 was old state    660
 New state    665 was old state    667
 New state    667 was old state    665
 New state    668 was old state    669
 New state    669 was old state    668
 New state    677 was old state    678
 New state    678 was old state    677
 New state    687 was old state    688
 New state    688 was old state    687
 New state    699 was old state    700
 New state    700 was old state    699
 Excitation Energies [eV] at current iteration:
 Root      1 :     5.647109031552950
 Root      2 :     5.775865053073187
 Root      3 :     6.077038589000512
 Root      4 :     6.686914557811965
 Root      5 :     6.796481772713254
 Root      6 :     7.434219999650113
 Root      7 :     7.468854489011072
 Root      8 :     8.175442002442150
 Root      9 :     8.270482565680863
 Root     10 :     8.563167076246733
 Root     11 :     8.986818602090537
 Root     12 :     9.025235076032043
 Root     13 :     9.215765279756809
 Root     14 :     9.239067173145314
 Root     15 :     9.655606493279100
 Root     16 :     9.794120942257155
 Root     17 :    10.067761050771080
 Root     18 :    10.166582401188560
 Root     19 :    10.296665126109560
 Root     20 :    10.509686029275860
 Root     21 :    10.516896418930520
 Root     22 :    10.609465766427690
 Root     23 :    10.725958457860910
 Root     24 :    10.834424046923210
 Root     25 :    11.146228955763150
 Root     26 :    11.215742888574280
 Root     27 :    11.290279815179900
 Root     28 :    11.389986179122240
 Root     29 :    11.400814383293500
 Root     30 :    11.609231659803050
 Root     31 :    11.668028092201370
 Root     32 :    11.888294628889340
 Root     33 :    12.053656239694750
 Root     34 :    12.090216964767180
 Root     35 :    12.155593292147500
 Root     36 :    12.217559232621540
 Root     37 :    12.248707157041280
 Root     38 :    12.470537986879740
 Root     39 :    12.542494535897910
 Root     40 :    12.664852663670780
 Root     41 :    12.781483639227030
 Root     42 :    12.873854765688900
 Root     43 :    12.941992877640660
 Root     44 :    13.013495407233650
 Root     45 :    13.211744870487550
 Root     46 :    13.223073013538200
 Root     47 :    13.531351009640300
 Root     48 :    13.685965783528320
 Root     49 :    13.795034336064120
 Root     50 :    13.856523129936930
 Root     51 :    13.972615680580100
 Root     52 :    14.046026872487010
 Root     53 :    14.104511846375540
 Root     54 :    14.225799333547290
 Root     55 :    14.262036330654310
 Root     56 :    14.336472248162230
 Root     57 :    14.423602858094790
 Root     58 :    14.485149587220300
 Root     59 :    14.546743020349290
 Root     60 :    14.609601020142530
 Root     61 :    14.672346951233460
 Root     62 :    14.772475719396800
 Root     63 :    14.850684198432320
 Root     64 :    14.937084898611540
 Root     65 :    15.049490320458900
 Root     66 :    15.097627410495700
 Root     67 :    15.182609499457030
 Root     68 :    15.241655355930860
 Root     69 :    15.274175825459860
 Root     70 :    15.332008375464190
 Root     71 :    15.394884405352630
 Root     72 :    15.443244376174590
 Root     73 :    15.481958291335690
 Root     74 :    15.536122121237840
 Root     75 :    15.728629590842670
 Root     76 :    15.777262644972870
 Root     77 :    15.785882769737400
 Root     78 :    15.815297919069030
 Root     79 :    15.864725524870430
 Root     80 :    15.914795983692380
 Root     81 :    15.965867334996730
 Root     82 :    16.000820056299290
 Root     83 :    16.041145062882870
 Root     84 :    16.164040832448670
 Root     85 :    16.244777359884180
 Root     86 :    16.321180422011740
 Root     87 :    16.365057910780650
 Root     88 :    16.416874077268990
 Root     89 :    16.526550679514140
 Root     90 :    16.560116897059390
 Root     91 :    16.626410350487330
 Root     92 :    16.648808292963020
 Root     93 :    16.725773979875160
 Root     94 :    16.813426478112220
 Root     95 :    16.994396168655810
 Root     96 :    17.024708972285580
 Root     97 :    17.055222309580630
 Root     98 :    17.275547284919680
 Root     99 :    17.327803528845710
 Root    100 :    17.381103639849750
 Root    101 :    17.568183676898140
 Root    102 :    17.732412367233600
 Root    103 :    17.768465334608060
 Root    104 :    17.819109295042830
 Root    105 :    17.846230897645690
 Root    106 :    17.867958151344190
 Root    107 :    17.985881245085920
 Root    108 :    18.064568709398600
 Root    109 :    18.088756655765390
 Root    110 :    18.138247366492720
 Root    111 :    18.200363391152200
 Root    112 :    18.273897749736020
 Root    113 :    18.345905083885150
 Root    114 :    18.433015681285760
 Root    115 :    18.447706505420070
 Root    116 :    18.505324583821010
 Root    117 :    18.561546229898610
 Root    118 :    18.609335430445680
 Root    119 :    18.646590341035560
 Root    120 :    18.735847125016650
 Root    121 :    18.767826012025440
 Root    122 :    18.805813443620240
 Root    123 :    18.862831554813990
 Root    124 :    19.005944911463280
 Root    125 :    19.066073496304730
 Root    126 :    19.135208226606010
 Root    127 :    19.201313977780350
 Root    128 :    19.280745612731160
 Root    129 :    19.300625037377430
 Root    130 :    19.333762188876830
 Root    131 :    19.421649153471140
 Root    132 :    19.462183542542180
 Root    133 :    19.528170287162140
 Root    134 :    19.582653363011390
 Root    135 :    19.691091890747010
 Root    136 :    19.755092658035600
 Root    137 :    19.810465586987820
 Root    138 :    19.875969147095990
 Root    139 :    19.956996487790210
 Root    140 :    19.979535147187600
 Root    141 :    20.004715599580840
 Root    142 :    20.096985110985010
 Root    143 :    20.222469378405620
 Root    144 :    20.232244578965670
 Root    145 :    20.315122564254210
 Root    146 :    20.394876010676130
 Root    147 :    20.483408747741160
 Root    148 :    20.634566389490310
 Root    149 :    20.667663352212170
 Root    150 :    20.721010296362640
 Root    151 :    20.770430744465010
 Root    152 :    20.853100505674260
 Root    153 :    20.912824390785550
 Root    154 :    20.983690769841070
 Root    155 :    21.057374655238240
 Root    156 :    21.147142869856330
 Root    157 :    21.229000867455370
 Root    158 :    21.258170951584320
 Root    159 :    21.336143638992110
 Root    160 :    21.445975435073850
 Root    161 :    21.522091999043200
 Root    162 :    21.546013659697940
 Root    163 :    21.578151510563980
 Root    164 :    21.686264702498290
 Root    165 :    21.713548117843250
 Root    166 :    21.763074365932180
 Root    167 :    21.815124174438370
 Root    168 :    21.872649218428050
 Root    169 :    21.896224458475620
 Root    170 :    21.977149513815030
 Root    171 :    22.078483422652680
 Root    172 :    22.119533125142990
 Root    173 :    22.214160384456100
 Root    174 :    22.232951829213100
 Root    175 :    22.342137917420720
 Root    176 :    22.435013288892860
 Root    177 :    22.529043434654110
 Root    178 :    22.603815835927790
 Root    179 :    22.641073386244670
 Root    180 :    22.685254124751560
 Root    181 :    22.737982640373600
 Root    182 :    22.774559405918200
 Root    183 :    22.795146545127500
 Root    184 :    22.894095899777100
 Root    185 :    23.049755638826680
 Root    186 :    23.110574047307030
 Root    187 :    23.139708535956010
 Root    188 :    23.261383103659940
 Root    189 :    23.268988659239360
 Root    190 :    23.302744987001750
 Root    191 :    23.388448346928500
 Root    192 :    23.434335509644170
 Root    193 :    23.508215353262910
 Root    194 :    23.563472455467610
 Root    195 :    23.705731062085220
 Root    196 :    23.793530275471090
 Root    197 :    23.886073401108480
 Root    198 :    24.022122247488660
 Root    199 :    24.069175540414310
 Root    200 :    24.194812765806500
 Root    201 :    24.223452471696920
 Root    202 :    24.255401764936240
 Root    203 :    24.353308824797100
 Root    204 :    24.444775717963850
 Root    205 :    24.514693438239490
 Root    206 :    24.597352509292580
 Root    207 :    24.614982356261000
 Root    208 :    24.749279975157810
 Root    209 :    24.769145005701220
 Root    210 :    24.799508778466280
 Root    211 :    24.856088310475280
 Root    212 :    24.924967562241450
 Root    213 :    25.003519062330470
 Root    214 :    25.088503500737080
 Root    215 :    25.169059722492430
 Root    216 :    25.200008937304870
 Root    217 :    25.244294794991440
 Root    218 :    25.276613656812750
 Root    219 :    25.333353986013320
 Root    220 :    25.377202125850170
 Root    221 :    25.469446557763180
 Root    222 :    25.522086306478650
 Root    223 :    25.532615210568310
 Root    224 :    25.618820044018340
 Root    225 :    25.692744854878690
 Root    226 :    25.764306715288510
 Root    227 :    25.814569258161070
 Root    228 :    25.880943163461340
 Root    229 :    25.932795451774760
 Root    230 :    26.010319632937400
 Root    231 :    26.067328837708590
 Root    232 :    26.148354955881490
 Root    233 :    26.156362319871610
 Root    234 :    26.317895917017990
 Root    235 :    26.385520062077500
 Root    236 :    26.449913696411060
 Root    237 :    26.468341487869330
 Root    238 :    26.542661144720960
 Root    239 :    26.578685470870540
 Root    240 :    26.796918386477280
 Root    241 :    26.863098765800140
 Root    242 :    26.997389122673200
 Root    243 :    27.111783605289100
 Root    244 :    27.122905872724650
 Root    245 :    27.177370784822090
 Root    246 :    27.305414707155440
 Root    247 :    27.388220330149420
 Root    248 :    27.445552294024570
 Root    249 :    27.688786338995320
 Root    250 :    27.764720928281080
 Root    251 :    27.789009846412510
 Root    252 :    27.890535126008270
 Root    253 :    27.957854986076520
 Root    254 :    28.081312913097550
 Root    255 :    28.114602260551830
 Root    256 :    28.140284476351760
 Root    257 :    28.193927727419180
 Root    258 :    28.221573946082430
 Root    259 :    28.276007137111510
 Root    260 :    28.391349668193430
 Root    261 :    28.532339540307680
 Root    262 :    28.588987501319250
 Root    263 :    28.727647637830890
 Root    264 :    28.858116825791840
 Root    265 :    28.862591433913820
 Root    266 :    28.941692041276290
 Root    267 :    29.125753755572250
 Root    268 :    29.153691376805800
 Root    269 :    29.252318776407910
 Root    270 :    29.325738115281840
 Root    271 :    29.330302817181500
 Root    272 :    29.392137558462330
 Root    273 :    29.406932132199720
 Root    274 :    29.438299944765320
 Root    275 :    29.599389670329280
 Root    276 :    29.665955538213000
 Root    277 :    29.694197419149420
 Root    278 :    29.798311718875610
 Root    279 :    29.826182578813420
 Root    280 :    29.883259925657440
 Root    281 :    30.033030737717890
 Root    282 :    30.182380616079620
 Root    283 :    30.248507895057290
 Root    284 :    30.281474905907360
 Root    285 :    30.327445205692350
 Root    286 :    30.428149059451230
 Root    287 :    30.505449737071220
 Root    288 :    30.623889957146770
 Root    289 :    30.690631451095080
 Root    290 :    30.737360529989670
 Root    291 :    30.751170167721580
 Root    292 :    31.076445695181760
 Root    293 :    31.154604395592510
 Root    294 :    31.276201616150280
 Root    295 :    31.301428452014880
 Root    296 :    31.357880860010220
 Root    297 :    31.444201108844340
 Root    298 :    31.459638243043780
 Root    299 :    31.798758967369150
 Root    300 :    31.834764404373350
 Root    301 :    31.891055622581370
 Root    302 :    32.019119069283220
 Root    303 :    32.043138263243250
 Root    304 :    32.135929570526520
 Root    305 :    32.243429042397180
 Root    306 :    32.302226205531330
 Root    307 :    32.536872260461300
 Root    308 :    32.648022217668490
 Root    309 :    32.707494726121750
 Root    310 :    32.944976122056120
 Root    311 :    33.088230469238480
 Root    312 :    33.144310947520300
 Root    313 :    33.245855540840750
 Root    314 :    33.291829658904960
 Root    315 :    33.320194746064940
 Root    316 :    33.394907335114770
 Root    317 :    33.443358613462080
 Root    318 :    33.574901714365960
 Root    319 :    33.608085667541400
 Root    320 :    33.862844288582740
 Root    321 :    33.942350433281060
 Root    322 :    33.983122933233750
 Root    323 :    34.058280232315070
 Root    324 :    34.096890475242130
 Root    325 :    34.211564858677390
 Root    326 :    34.336946642311570
 Root    327 :    34.387436951026660
 Root    328 :    34.423167842311480
 Root    329 :    34.479526606639270
 Root    330 :    34.548458121182270
 Root    331 :    34.654690845264650
 Root    332 :    34.813982104946380
 Root    333 :    34.973488547024660
 Root    334 :    35.054710523677070
 Root    335 :    35.110152812098130
 Root    336 :    35.233328843414080
 Root    337 :    35.277707648836430
 Root    338 :    35.370210520144160
 Root    339 :    35.525556923288240
 Root    340 :    35.624861810527560
 Root    341 :    35.659997943350770
 Root    342 :    35.942512386934550
 Root    343 :    36.198859306142480
 Root    344 :    36.241071464805420
 Root    345 :    36.397158898832600
 Root    346 :    36.543121643087050
 Root    347 :    36.614829356144020
 Root    348 :    36.706660292943230
 Root    349 :    36.832872161924460
 Root    350 :    36.909245788476510
 Root    351 :    37.074931960053380
 Root    352 :    37.163484612691050
 Root    353 :    37.204224677331570
 Root    354 :    37.237025041642770
 Root    355 :    37.265173341494290
 Root    356 :    37.383644710039460
 Root    357 :    37.545790903614750
 Root    358 :    37.678835336649390
 Root    359 :    37.857540763578580
 Root    360 :    37.874686547903180
 Root    361 :    38.073675011963640
 Root    362 :    38.102774078211410
 Root    363 :    38.274540774281160
 Root    364 :    38.373839370506520
 Root    365 :    38.730339573369460
 Root    366 :    38.803113960909960
 Root    367 :    38.882077695708780
 Root    368 :    38.897493007745870
 Root    369 :    38.941767861074280
 Root    370 :    39.050282754523690
 Root    371 :    39.297394429176650
 Root    372 :    39.455307746165420
 Root    373 :    39.526614422394230
 Root    374 :    39.882146113862940
 Root    375 :    40.057727120025060
 Root    376 :    40.155043441241200
 Root    377 :    40.220672867898070
 Root    378 :    40.242664804262360
 Root    379 :    40.350817015421010
 Root    380 :    40.529958988193390
 Root    381 :    40.607993560806870
 Root    382 :    40.681285002521750
 Root    383 :    40.763072087940650
 Root    384 :    40.864268607993350
 Root    385 :    41.046930000093920
 Root    386 :    41.115985954194300
 Root    387 :    41.171741815119870
 Root    388 :    41.211062156109280
 Root    389 :    41.226327046296150
 Root    390 :    41.258604440578890
 Root    391 :    41.556572523785360
 Root    392 :    41.765126058749210
 Root    393 :    41.983851186573830
 Root    394 :    42.085905961132520
 Root    395 :    42.124791038508790
 Root    396 :    42.194701049813980
 Root    397 :    42.510867183982680
 Root    398 :    42.743077417682380
 Root    399 :    42.940821250893060
 Root    400 :    43.197486026243170
 Root    401 :    43.400303171875360
 Root    402 :    43.435457488004430
 Root    403 :    43.541638984963590
 Root    404 :    43.629657370368430
 Root    405 :    43.791600022265580
 Root    406 :    43.867987614598160
 Root    407 :    43.928276446330760
 Root    408 :    44.063240049964220
 Root    409 :    44.106938693990000
 Root    410 :    44.247913095367740
 Root    411 :    44.427226915799610
 Root    412 :    44.565019302375000
 Root    413 :    44.621383536519430
 Root    414 :    44.854985125487250
 Root    415 :    45.040010577397670
 Root    416 :    45.506288115487230
 Root    417 :    45.618407061134670
 Root    418 :    45.822196239664410
 Root    419 :    46.030209060759180
 Root    420 :    46.061324650546080
 Root    421 :    46.192106045214990
 Root    422 :    46.479233676450670
 Root    423 :    46.554613894170560
 Root    424 :    46.617833166242110
 Root    425 :    46.754799339781870
 Root    426 :    46.997855133253370
 Root    427 :    47.044393080813520
 Root    428 :    47.074847237376650
 Root    429 :    47.402023360689600
 Root    430 :    47.500533605628990
 Root    431 :    47.661464096448800
 Root    432 :    47.781019371300100
 Root    433 :    48.006486360733930
 Root    434 :    48.292441309427400
 Root    435 :    48.347938845872750
 Root    436 :    48.447441074332890
 Root    437 :    48.610315418429400
 Root    438 :    48.714078283217240
 Root    439 :    48.797034888548250
 Root    440 :    48.828598937066830
 Root    441 :    49.030441922942490
 Root    442 :    49.125525678777610
 Root    443 :    49.465397931664630
 Root    444 :    49.573098279045960
 Root    445 :    49.644898850337020
 Root    446 :    49.719972989054400
 Root    447 :    50.161949380815600
 Root    448 :    50.297541010913780
 Root    449 :    50.432779099007530
 Root    450 :    50.520248837606600
 Root    451 :    50.541454135241550
 Root    452 :    50.663595925220090
 Root    453 :    50.929828856672210
 Root    454 :    51.189873811915750
 Root    455 :    51.240524475885550
 Root    456 :    51.290559005333800
 Root    457 :    51.636906912819010
 Root    458 :    51.963721125232380
 Root    459 :    52.124337122994970
 Root    460 :    52.192576894958780
 Root    461 :    52.379926080928560
 Root    462 :    52.483717244051800
 Root    463 :    52.621917455270960
 Root    464 :    52.747046617432490
 Root    465 :    52.840850832121760
 Root    466 :    53.069941245465510
 Root    467 :    53.088318264670510
 Root    468 :    53.208463111857060
 Root    469 :    53.248914333364570
 Root    470 :    53.532152136738730
 Root    471 :    53.565450650664940
 Root    472 :    53.650294908711960
 Root    473 :    53.801441262946550
 Root    474 :    53.972045790144940
 Root    475 :    54.212436732371980
 Root    476 :    54.437064298383170
 Root    477 :    54.520747112583050
 Root    478 :    55.029795268926710
 Root    479 :    55.128187026007970
 Root    480 :    55.262185012176130
 Root    481 :    55.460521070696680
 Root    482 :    55.519114281776820
 Root    483 :    55.626101108718420
 Root    484 :    55.673941268870350
 Root    485 :    55.814806306831880
 Root    486 :    55.929950427486290
 Root    487 :    55.965338805222660
 Root    488 :    56.116760573374480
 Root    489 :    56.144726841277990
 Root    490 :    56.354465249511520
 Root    491 :    56.498199638162000
 Root    492 :    56.608945118481070
 Root    493 :    56.686024208656730
 Root    494 :    57.146663346648470
 Root    495 :    57.380682663213770
 Root    496 :    57.565157494759540
 Root    497 :    57.622767461005700
 Root    498 :    57.701203130705840
 Root    499 :    57.929920907569450
 Root    500 :    57.975420386102170
 Root    501 :    58.067374604383010
 Root    502 :    58.223486325072980
 Root    503 :    58.394868940393900
 Root    504 :    58.729179881863640
 Root    505 :    59.058282606653990
 Root    506 :    59.184783184464170
 Root    507 :    59.284160562460350
 Root    508 :    59.377249292152580
 Root    509 :    59.617552761935900
 Root    510 :    59.796254752957480
 Root    511 :    59.880628757397270
 Root    512 :    59.949053139519390
 Root    513 :    60.012881732103440
 Root    514 :    60.061885688085560
 Root    515 :    60.316680544720580
 Root    516 :    60.424414204290150
 Root    517 :    60.529729611313410
 Root    518 :    60.712681089214020
 Root    519 :    61.123250417434610
 Root    520 :    61.256315550092840
 Root    521 :    61.370365982765380
 Root    522 :    61.481683078373730
 Root    523 :    61.560885871219510
 Root    524 :    61.655862540265430
 Root    525 :    61.810179867179300
 Root    526 :    61.837191446460440
 Root    527 :    62.005176065180580
 Root    528 :    62.080554516318980
 Root    529 :    62.416687643773620
 Root    530 :    62.529934599279400
 Root    531 :    62.663226911862350
 Root    532 :    62.669682096856780
 Root    533 :    62.818174906690690
 Root    534 :    62.896807654127770
 Root    535 :    63.002088602804840
 Root    536 :    63.114218803823060
 Root    537 :    63.149148826426380
 Root    538 :    63.236110640951150
 Root    539 :    63.510269375217970
 Root    540 :    63.635196469148130
 Root    541 :    63.913638426241820
 Root    542 :    64.022364288894270
 Root    543 :    64.393496011535230
 Root    544 :    64.538879409577630
 Root    545 :    64.759330178065500
 Root    546 :    64.829724495333650
 Root    547 :    64.984691394000680
 Root    548 :    65.227904811368590
 Root    549 :    65.360967847641210
 Root    550 :    65.449727417082510
 Root    551 :    65.794826769885470
 Root    552 :    65.883107284596080
 Root    553 :    66.007348288735400
 Root    554 :    66.099190408400300
 Root    555 :    66.147138079089270
 Root    556 :    66.203727376819260
 Root    557 :    66.386488212143770
 Root    558 :    66.468795217705620
 Root    559 :    66.713578737889680
 Root    560 :    66.819110440699750
 Root    561 :    67.002194685491990
 Root    562 :    67.334415781636100
 Root    563 :    67.561732469913620
 Root    564 :    67.643447771068680
 Root    565 :    67.974693835532650
 Root    566 :    68.027269703184670
 Root    567 :    68.161118829316460
 Root    568 :    68.266247946199190
 Root    569 :    68.426391761037550
 Root    570 :    68.869418567747320
 Root    571 :    69.061308984071460
 Root    572 :    69.218034631229540
 Root    573 :    69.395491550199320
 Root    574 :    69.588215954257720
 Root    575 :    69.668227069892320
 Root    576 :    69.762369827194420
 Root    577 :    69.780536917521810
 Root    578 :    69.966783588938800
 Root    579 :    70.134987254878000
 Root    580 :    70.260313976640430
 Root    581 :    70.681981564632170
 Root    582 :    70.715103389126980
 Root    583 :    70.904445302821700
 Root    584 :    71.214524167909490
 Root    585 :    71.508902124973900
 Root    586 :    71.666525549196070
 Root    587 :    71.711081604619820
 Root    588 :    72.120157720016650
 Root    589 :    72.365670304314790
 Root    590 :    72.558594501434270
 Root    591 :    72.640354335303060
 Root    592 :    72.775128690004050
 Root    593 :    72.952412691415020
 Root    594 :    73.029126248405690
 Root    595 :    73.143534455726230
 Root    596 :    73.227553974864240
 Root    597 :    73.544649765508840
 Root    598 :    73.865655667161450
 Root    599 :    74.194172080982500
 Root    600 :    74.626658361405500
 Root    601 :    74.699184412063370
 Root    602 :    74.985882674952260
 Root    603 :    75.108126917186620
 Root    604 :    75.120895917997710
 Root    605 :    75.594246840244990
 Root    606 :    75.766719662466460
 Root    607 :    75.897445179678290
 Root    608 :    76.240687488664450
 Root    609 :    76.364494229495150
 Root    610 :    76.415850121197650
 Root    611 :    76.524847845123330
 Root    612 :    76.847185826727570
 Root    613 :    77.066658053778200
 Root    614 :    77.246707562467340
 Root    615 :    77.336924027560540
 Root    616 :    77.386578290440070
 Root    617 :    77.944435985602750
 Root    618 :    78.030969813814590
 Root    619 :    78.329989444616500
 Root    620 :    78.552465322559930
 Root    621 :    78.944196926022070
 Root    622 :    79.273824416022090
 Root    623 :    79.367180873583250
 Root    624 :    79.641186456241100
 Root    625 :    79.885664888156530
 Root    626 :    79.976720488147460
 Root    627 :    80.113664817958440
 Root    628 :    80.191578288820280
 Root    629 :    80.521748649042620
 Root    630 :    80.554846020745500
 Root    631 :    81.076294331368960
 Root    632 :    81.302985110628330
 Root    633 :    81.591296924713020
 Root    634 :    81.720602982726600
 Root    635 :    82.222586244834320
 Root    636 :    82.340782546872280
 Root    637 :    83.220612387643640
 Root    638 :    83.743398845105130
 Root    639 :    83.935487097699290
 Root    640 :    84.144068825230240
 Root    641 :    84.456256378758080
 Root    642 :    84.552207198090340
 Root    643 :    84.561845133213750
 Root    644 :    84.831918199078070
 Root    645 :    84.941186053327100
 Root    646 :    85.237339390950770
 Root    647 :    85.783094255623040
 Root    648 :    86.294020852404910
 Root    649 :    86.488249819298690
 Root    650 :    86.583865687796720
 Root    651 :    87.175084855577480
 Root    652 :    87.354014021617400
 Root    653 :    87.902313500454700
 Root    654 :    88.349325893157750
 Root    655 :    88.547802380866540
 Root    656 :    89.027338630490960
 Root    657 :    89.120645262648550
 Root    658 :    89.173324778951450
 Root    659 :    89.691163725522130
 Root    660 :    89.877808867210830
 Root    661 :    90.111228473648200
 Root    662 :    90.565892307717410
 Root    663 :    90.832327316657280
 Root    664 :    91.018451053778160
 Root    665 :    91.201628969441760
 Root    666 :    91.267861799070800
 Root    667 :    91.525106704383790
 Root    668 :    92.005574968467240
 Root    669 :    92.206487467467500
 Root    670 :    92.669203045093610
 Root    671 :    93.033712543632970
 Root    672 :    93.357289973547130
 Root    673 :    93.510831815742320
 Root    674 :    93.895074306573820
 Root    675 :    94.129095212652460
 Root    676 :    94.540717297385640
 Root    677 :    94.625235294108460
 Root    678 :    94.773448921060730
 Root    679 :    94.892051022192050
 Root    680 :    95.852625575774010
 Root    681 :    96.383463302600060
 Root    682 :    96.558313475533890
 Root    683 :    97.074482316119090
 Root    684 :    97.655895666708520
 Root    685 :    97.949433801562310
 Root    686 :    98.209011232362950
 Root    687 :    98.494723094719350
 Root    688 :    98.519084410662840
 Root    689 :    99.071996712709070
 Root    690 :    99.514524768342780
 Root    691 :    99.679909524453450
 Root    692 :    99.777076870152480
 Root    693 :   100.532324123411500
 Root    694 :   100.817043939811500
 Root    695 :   101.485493670481600
 Root    696 :   102.050141033230000
 Root    697 :   102.928382075296600
 Root    698 :   103.120890264373000
 Root    699 :   103.288648015736400
 Root    700 :   103.562170301389300
 Root    701 :   103.690452898368200
 Root    702 :   104.384431623357600
 Root    703 :   104.474473239626600
 Root    704 :   104.658438794459500
 Root    705 :   105.944529159124000
 Root    706 :   106.629681483936200
 Root    707 :   106.686711223865000
 Root    708 :   107.523252550235000
 Root    709 :   108.140825060131900
 Root    710 :   108.481373024741300
 Root    711 :   109.156697346980100
 Root    712 :   109.193266475305400
 Root    713 :   109.590907404963600
 Root    714 :   109.808017266582500
 Root    715 :   111.762975649296800
 Root    716 :   113.166704133620800
 Root    717 :   114.114671887352600
 Root    718 :   116.454090092063100
 Root    719 :   119.016732451101700
 Root    720 :   121.373411618198300
 Convergence achieved for final wavefunctions.
 ***********************************************************************
 Excited states from <AA,BB:AA,BB> singles matrix:
 ***********************************************************************
 
 1PDM for each excited state written to RWF  633
 Ground to excited state transition densities written to RWF  633
 Ground to excited state transition electric dipole moments (Au):
       state          X           Y           Z        Dip. S.      Osc.
         1         0.4428     -0.1161      0.0366      0.2109      0.0292
         2         0.7561     -0.0004      0.0066      0.5717      0.0809
         3        -0.7632      0.0048      0.1060      0.5938      0.0884
         4        -0.2984     -0.4298     -0.0633      0.2778      0.0455
         5         0.0467     -0.0169     -0.3869      0.1522      0.0253
         6         0.1548     -0.1922      0.1216      0.0757      0.0138
         7         0.3365     -0.1680     -0.1056      0.1526      0.0279
         8         0.1339      0.6844      0.0887      0.4941      0.0990
         9         0.2155     -0.0562     -0.0023      0.0496      0.0101
        10        -0.1042      0.0865     -0.1235      0.0336      0.0070
        11         0.4553      0.0337      0.0017      0.2084      0.0459
        12        -0.2048      0.0604     -0.1473      0.0673      0.0149
        13        -0.2582      0.3263     -0.0734      0.1786      0.0403
        14        -0.3262      0.2785      0.0309      0.1849      0.0419
        15         0.1523      0.2666     -0.0211      0.0947      0.0224
        16        -0.2761      0.2172      0.3036      0.2155      0.0517
        17        -0.1278     -0.3552      0.1787      0.1745      0.0430
        18         0.2544     -0.1628      0.0232      0.0917      0.0229
        19         0.0835     -0.2462      0.0061      0.0676      0.0171
        20        -0.0519     -0.0986     -0.0190      0.0128      0.0033
        21        -0.0710      0.0056      0.3489      0.1268      0.0327
        22        -0.7740      0.0464     -0.0666      0.6057      0.1574
        23        -0.1164      0.0331     -0.0171      0.0149      0.0039
        24         0.3986     -0.1953      0.0025      0.1970      0.0523
        25         0.1454      0.0206     -0.0665      0.0260      0.0071
        26        -0.4184      0.0998     -0.1788      0.2169      0.0596
        27        -0.1724     -0.0770      0.2558      0.1011      0.0280
        28        -0.2267     -0.1242      0.1740      0.0971      0.0271
        29         0.2203     -0.3997     -0.0018      0.2083      0.0582
        30         0.1371     -0.0745     -0.0176      0.0247      0.0070
        31        -0.0537      0.1146     -0.0272      0.0168      0.0048
        32        -0.0888     -0.0218      0.5464      0.3069      0.0894
        33        -0.4683     -0.2962     -0.0830      0.3139      0.0927
        34        -0.0155      0.0432      0.0632      0.0061      0.0018
        35         0.2425     -0.2096     -0.0233      0.1033      0.0307
        36        -0.0181      0.1809     -0.0094      0.0332      0.0099
        37         0.0945      0.2489     -0.0229      0.0714      0.0214
        38        -0.0367      0.3011     -0.1264      0.1080      0.0330
        39         0.1342     -0.0302      0.2310      0.0723      0.0222
        40         0.1508      0.0588      0.0582      0.0296      0.0092
        41        -0.2047      0.0904     -0.0452      0.0521      0.0163
        42         0.1062     -0.1092     -0.0072      0.0232      0.0073
        43         0.3269     -0.0380      0.2008      0.1486      0.0471
        44         0.0873      0.0578      0.5206      0.2820      0.0899
        45        -0.0377     -0.1488     -0.1687      0.0520      0.0168
        46        -0.2944      0.0461     -0.0213      0.0893      0.0289
        47        -0.2607      0.5019      0.0166      0.3202      0.1061
        48        -0.2429     -0.2865      0.0256      0.1417      0.0475
        49         0.4341      0.2185     -0.2124      0.2813      0.0951
        50        -0.1446     -0.0193      0.0698      0.0261      0.0089
        51         0.2444      0.0802      0.1729      0.0961      0.0329
        52         0.0460     -0.1899      0.0326      0.0393      0.0135
        53         0.0134     -0.2126      0.0765      0.0512      0.0177
        54         0.2280     -0.0427     -0.0486      0.0562      0.0196
        55         0.2978     -0.0992      0.1094      0.1105      0.0386
        56         0.2765     -0.1261      0.0152      0.0926      0.0325
        57         0.2681      0.0511      0.0049      0.0745      0.0263
        58        -0.1093     -0.0090     -0.1571      0.0367      0.0130
        59        -0.0802      0.3900      0.3430      0.2762      0.0984
        60        -0.0675      0.0795     -0.0271      0.0116      0.0042
        61        -0.0844     -0.0017      0.2702      0.0802      0.0288
        62         0.1651     -0.2454      0.1172      0.1012      0.0366
        63        -0.0008     -0.0652      0.2771      0.0810      0.0295
        64         0.0004     -0.1966      0.1596      0.0641      0.0235
        65        -0.1615     -0.2701      0.2254      0.1498      0.0552
        66         0.1380     -0.2388     -0.1784      0.1079      0.0399
        67        -0.1174     -0.2899     -0.0142      0.0980      0.0365
        68         0.0503      0.1339     -0.2852      0.1018      0.0380
        69        -0.2209     -0.1818      0.2367      0.1379      0.0516
        70        -0.6255     -0.4526     -0.2006      0.6363      0.2390
        71        -0.0517     -0.1445      0.0718      0.0287      0.0108
        72         0.2250     -0.0291     -0.0658      0.0558      0.0211
        73         0.2718     -0.1281      0.1045      0.1012      0.0384
        74        -0.2456      0.1968      0.4220      0.2772      0.1055
        75         0.2186     -0.3930     -0.0519      0.2049      0.0790
        76        -0.0292     -0.0091      0.1582      0.0260      0.0100
        77         0.0951     -0.1577      0.1197      0.0483      0.0187
        78        -0.0408     -0.0223     -0.1381      0.0212      0.0082
        79        -0.3427     -0.0249     -0.1234      0.1333      0.0518
        80        -0.0090      0.1897     -0.0485      0.0384      0.0150
        81        -0.2399      0.3067     -0.0474      0.1539      0.0602
        82         0.3423     -0.1266      0.0944      0.1421      0.0557
        83         0.2060     -0.0642     -0.1263      0.0625      0.0246
        84        -0.0769      0.0721     -0.2416      0.0695      0.0275
        85         0.2374      0.4310      0.0970      0.2515      0.1001
        86         0.4613     -0.1221      0.0166      0.2280      0.0912
        87         0.0623     -0.1896     -0.0473      0.0420      0.0169
        88         0.5794      0.1673      0.0313      0.3646      0.1466
        89        -0.0744     -0.1703      0.2864      0.1165      0.0472
        90        -0.0493      0.1465     -0.1122      0.0365      0.0148
        91        -0.0862      0.3647     -0.0982      0.1501      0.0611
        92         0.0168     -0.1329     -0.2169      0.0650      0.0265
        93        -0.1047     -0.2108     -0.2968      0.1435      0.0588
        94         0.3651     -0.0500      0.2110      0.1803      0.0743
        95         0.0950     -0.0746     -0.0314      0.0156      0.0065
        96         0.0211      0.2044      0.2955      0.1296      0.0540
        97         0.1069      0.5078     -0.3225      0.3733      0.1560
[...]
     16   0.614227D-01 -0.762497D-01  0.166310D-01 -0.100837D+00 -0.285202D+00
               651           652           653           654           655 
      1  -0.146482D+03 -0.146475D+03 -0.146455D+03 -0.146439D+03 -0.146431D+03
      2   0.389451D-02 -0.188954D-01 -0.115071D+00  0.690905D-01  0.317582D-02
      3   0.195729D-01 -0.635457D-01 -0.318870D-01  0.435915D-01 -0.487827D-01
      4   0.613992D-01  0.351012D-01  0.315048D-02  0.117634D-01  0.692173D-01
      5   0.122330D-01  0.610131D-01  0.371205D+00 -0.219189D+00  0.310502D-02
      6  -0.526924D-01  0.189944D+00  0.936830D-01 -0.135284D+00  0.146322D+00
      7  -0.173115D+00 -0.103664D+00 -0.880787D-03 -0.277788D-01 -0.204428D+00
      8   0.954041D-02 -0.253627D-02 -0.916601D-01 -0.909628D-01  0.956808D-02
      9   0.155654D+00  0.139476D+00  0.322708D-02  0.166269D+00  0.133213D+00
     10   0.185029D+00 -0.122675D+00  0.183849D+00 -0.223435D+00  0.216059D+00
     11   0.547086D+00 -0.683185D-01  0.682019D+00 -0.258271D+00 -0.367473D+00
     12   0.138162D+00 -0.198500D+00 -0.233028D+00 -0.398092D-01 -0.650934D-01
     13   0.117207D+00  0.104231D+00  0.328127D-01  0.833516D-01 -0.223590D+00
     14  -0.289170D+00  0.170602D+00 -0.193428D+00 -0.108723D+00 -0.769036D-01
     15  -0.217185D+00 -0.240898D+00 -0.715470D-01 -0.114649D+00 -0.125498D+00
     16   0.321425D-01 -0.597854D-01 -0.214482D+00 -0.124651D+00 -0.362134D-01
               656           657           658           659           660 
      1  -0.146414D+03 -0.146410D+03 -0.146408D+03 -0.146389D+03 -0.146383D+03
      2  -0.253173D-01 -0.298756D-01 -0.669492D-01  0.367488D-01  0.415009D-01
      3   0.404291D-01 -0.300335D-01 -0.358041D-01 -0.603623D-01  0.526229D-01
      4   0.311538D-01 -0.102229D-01  0.161624D-01  0.146264D-01  0.414921D-02
      5   0.706786D-01  0.902992D-01  0.201190D+00 -0.129113D+00 -0.122197D+00
      6  -0.115950D+00  0.911481D-01  0.109375D+00  0.166086D+00 -0.158375D+00
      7  -0.969715D-01  0.284693D-01 -0.621960D-01 -0.431661D-01 -0.806676D-02
      8  -0.127446D+00 -0.827456D-01 -0.106801D+00  0.129242D-01 -0.308495D-01
      9  -0.696726D-02  0.408566D+00 -0.156340D+00 -0.256343D-01  0.545433D-01
     10  -0.153742D+00 -0.774824D-02  0.169570D+00 -0.430555D+00 -0.479382D-01
     11   0.123028D+01  0.999232D-01  0.662185D+00 -0.334035D+00  0.306743D+00
     12   0.176973D+00  0.309980D-01  0.830617D-01  0.108966D+00 -0.250926D+00
     13  -0.785365D-02  0.134381D+00  0.187696D+00 -0.221537D-01  0.117734D+00
     14   0.653848D-01 -0.430685D-01  0.417958D+00 -0.332663D+00  0.503193D+00
     15   0.320545D-01 -0.499527D+00  0.182247D+00  0.347670D-01 -0.163322D+00
     16  -0.174521D+00 -0.180689D+00 -0.192782D+00  0.487175D-01 -0.130004D+00
               661           662           663           664           665 
      1  -0.146374D+03 -0.146357D+03 -0.146347D+03 -0.146341D+03 -0.146334D+03
      2  -0.184361D-01 -0.105101D-01 -0.257812D-01  0.226028D-01 -0.141414D-01
      3   0.684975D-01 -0.491192D-02  0.293805D-01  0.571992D-01  0.439906D-01
      4   0.375896D-01  0.125465D+00 -0.717604D-01  0.250681D-01  0.278543D-01
      5   0.507857D-01  0.306946D-01  0.898538D-01 -0.647159D-01  0.467431D-01
      6  -0.206850D+00  0.224516D-01 -0.843568D-01 -0.180006D+00 -0.147269D+00
      7  -0.104101D+00 -0.385178D+00  0.224022D+00 -0.738311D-01 -0.913702D-01
      8   0.526297D-01  0.122650D+00  0.162879D+00 -0.189430D-01 -0.123040D+00
      9   0.555868D-01  0.710401D+00 -0.711517D+00  0.141260D+00  0.211154D+00
     10  -0.815170D-01  0.237347D+00  0.148514D-01 -0.154283D+00 -0.252736D+00
     11  -0.225611D+00  0.676558D+00  0.728030D-01  0.115801D+00  0.229194D+00
     12   0.159018D+00  0.115005D+00  0.149358D+00  0.616884D+00 -0.215790D+00
     13   0.866878D-01  0.140643D+00 -0.193091D+00 -0.167219D+00  0.117781D+00
     14  -0.431974D+00  0.463857D+00 -0.144143D+00 -0.226227D+00 -0.418217D+00
     15   0.182323D-01 -0.707112D+00  0.686533D+00 -0.184018D+00 -0.286385D+00
     16  -0.318332D-01  0.259198D+00  0.272767D+00 -0.540323D-01 -0.547726D-01
               666           667           668           669           670 
      1  -0.146331D+03 -0.146322D+03 -0.146304D+03 -0.146297D+03 -0.146280D+03
      2  -0.244669D-01  0.105187D-01 -0.738204D-01 -0.183227D-01 -0.446489D-02
      3   0.343244D-01 -0.556528D-01 -0.282835D-01 -0.698967D-01  0.491702D-01
      4   0.272547D-01  0.810985D-01 -0.241205D-01  0.253724D-01  0.410269D-02
      5   0.744361D-01 -0.291703D-01  0.225472D+00  0.453813D-01  0.140488D-01
      6  -0.998561D-01  0.166078D+00  0.689017D-01  0.214950D+00 -0.136237D+00
      7  -0.759780D-01 -0.234765D+00  0.715367D-01 -0.753216D-01 -0.128553D-01
      8   0.117628D+00  0.144223D+00 -0.265807D-01  0.262044D-01  0.149918D-02
      9  -0.702480D-01  0.215601D+00 -0.750693D-01  0.678174D-01  0.306883D-01
     10  -0.167460D+00  0.150140D+00 -0.294433D-01 -0.208229D+00  0.894956D-01
     11  -0.174273D+00  0.520034D-01 -0.203468D-01 -0.359631D+00 -0.642589D-01
     12   0.112278D+00 -0.447563D-01  0.760213D-01 -0.508015D-01 -0.148163D+00
     13  -0.160808D+00  0.178924D+00  0.539709D-01  0.705629D-01 -0.188153D-01
     14  -0.324310D+00  0.165613D+00 -0.219999D+00  0.185381D+00  0.977086D-01
     15   0.101334D-01 -0.259308D+00  0.941414D-01 -0.110910D+00 -0.474068D-01
     16   0.184335D+00  0.110712D+00  0.273692D-01 -0.329369D-01  0.509673D-01
               671           672           673           674           675 
      1  -0.146267D+03 -0.146255D+03 -0.146249D+03 -0.146235D+03 -0.146226D+03
      2  -0.728419D-01  0.572249D-01 -0.447056D-01 -0.508728D-01 -0.486790D-01
      3  -0.408322D-01  0.954044D-02  0.116611D-01  0.598016D-01 -0.705515D-01
      4   0.138039D+00 -0.146654D-01 -0.386936D-02  0.466448D-01 -0.360771D-01
      5   0.227255D+00 -0.193125D+00  0.142163D+00  0.157974D+00  0.144189D+00
      6   0.128519D+00 -0.352426D-01 -0.549943D-01 -0.188178D+00  0.220517D+00
      7  -0.418517D+00  0.318677D-01  0.162991D-01 -0.140597D+00  0.106645D+00
      8   0.161521D+00 -0.146022D+00 -0.206193D-01  0.345012D-01 -0.220946D-01
      9   0.642233D+00  0.376143D+00  0.684807D-01  0.401487D+00 -0.176947D+00
     10   0.204497D+00 -0.156314D+00  0.157603D+00 -0.459628D+00 -0.231931D+00
     11   0.256620D+00 -0.514275D+00 -0.514640D+00  0.662869D+00 -0.697124D+00
     12   0.490605D-01 -0.218124D+00  0.200158D+00 -0.198318D+00 -0.881870D-02
     13   0.223505D+00  0.119595D+00 -0.116789D+00  0.170081D+00 -0.651665D-01
     14   0.209286D+00 -0.579831D-01  0.997635D-02 -0.332295D+00 -0.265438D+00
     15  -0.758219D+00 -0.343214D+00 -0.435427D-01 -0.585521D+00  0.220084D+00
     16   0.241273D+00 -0.149953D+00 -0.114495D+00  0.846469D-01  0.250291D-01
               676           677           678           679           680 
      1  -0.146211D+03 -0.146208D+03 -0.146203D+03 -0.146198D+03 -0.146163D+03
      2   0.648623D-01  0.306881D-01 -0.433170D-01  0.787892D-01  0.462154D-01
      3   0.634782D-03  0.706641D-01 -0.257685D-01  0.212209D-01 -0.203090D-01
      4   0.661722D-02 -0.127085D-03 -0.340721D-01 -0.318009D-01 -0.124111D-01
      5  -0.214209D+00 -0.113646D+00  0.138808D+00 -0.247316D+00 -0.146866D+00
      6  -0.326859D-02 -0.226889D+00  0.813354D-01 -0.517612D-01  0.474508D-01
      7  -0.259691D-01 -0.537308D-02  0.108764D+00  0.102420D+00  0.353728D-01
      8  -0.282538D+00  0.184835D+00 -0.209130D+00  0.143101D+00  0.133785D+00
      9   0.454412D+00 -0.235670D+00  0.992613D-01 -0.340196D+00 -0.219565D+00
     10   0.107649D+00 -0.262232D+00  0.308904D+00  0.106014D+00  0.492023D-01
     11  -0.264559D+00 -0.682561D+00 -0.745526D+00  0.135716D+00  0.158171D+00
     12   0.205270D-01  0.236927D+00 -0.464801D+00 -0.793591D-01 -0.492985D+00
     13   0.286718D+00 -0.153724D+00 -0.316507D-02 -0.104764D+00 -0.952213D-01
     14   0.376857D+00  0.268766D-01 -0.111208D+00  0.455257D-01  0.378512D-01
     15  -0.483914D+00  0.267720D+00 -0.382384D-01  0.389272D+00  0.287912D+00
     16  -0.446308D+00  0.353891D+00 -0.384417D+00  0.207720D+00  0.271533D+00
               681           682           683           684           685 
      1  -0.146143D+03 -0.146137D+03 -0.146118D+03 -0.146097D+03 -0.146086D+03
      2   0.110414D-01  0.782026D-01 -0.403373D-01  0.498835D-02  0.186358D-01
      3   0.136458D-01 -0.965506D-01 -0.513698D-01  0.197295D-02 -0.402242D-01
      4   0.250854D-01  0.243293D-02  0.681033D-02 -0.198917D-01 -0.327210D-01
      5  -0.324279D-01 -0.234113D+00  0.121125D+00 -0.221625D-01 -0.572183D-01
      6  -0.408187D-01  0.286269D+00  0.161466D+00 -0.256766D-01  0.114405D+00
      7  -0.694524D-01 -0.842891D-02 -0.272645D-01  0.544847D-01  0.116169D+00
      8  -0.711265D-01 -0.386825D-01  0.412783D-01 -0.983361D-01  0.125826D+00
      9   0.162673D+00  0.111818D+00 -0.848637D-02  0.471334D-02 -0.254802D+00
     10  -0.287745D-01  0.272789D+00 -0.663319D-01 -0.162541D+00  0.489605D+00
     11  -0.295008D-01 -0.139403D-01  0.161429D+00 -0.123381D+00 -0.491684D+00
     12   0.329079D-01 -0.294770D-01 -0.470914D-01 -0.155158D-01  0.302935D+00
     13   0.735792D-01  0.473731D-01  0.102048D+00 -0.115080D-01 -0.210778D+00
     14   0.335932D-01  0.321397D+00 -0.151809D+00 -0.945644D-02  0.199056D+00
     15  -0.205249D+00 -0.418195D-01  0.426421D-01  0.652490D-01  0.212214D+00
     16   0.897950D-01 -0.179874D+00  0.586978D-01 -0.107225D+00  0.210991D-01
               686           687           688           689           690 
      1  -0.146076D+03 -0.146066D+03 -0.146065D+03 -0.146045D+03 -0.146028D+03
      2   0.568023D-02  0.561451D-02 -0.331667D-01  0.548284D-01  0.169068D-01
      3   0.132651D-01 -0.217888D-01  0.481612D-01  0.185703D-01 -0.537047D-01
      4   0.627819D-01  0.608349D-01 -0.142922D-01 -0.637122D-02  0.249864D-02
      5  -0.296732D-01 -0.950173D-02  0.103226D+00 -0.176021D+00 -0.440397D-01
      6  -0.482717D-01  0.757591D-01 -0.142710D+00 -0.570279D-01  0.162992D+00
      7  -0.190226D+00 -0.193501D+00  0.486961D-01  0.215210D-01 -0.723442D-02
      8   0.156671D+00  0.126681D-01 -0.110879D+00  0.449973D-01  0.299918D-01
      9   0.263157D-01  0.333938D+00  0.645360D-01 -0.529824D-01 -0.645982D-01
     10  -0.183536D-01 -0.498977D-01 -0.162273D+00  0.292047D+00 -0.254624D+00
     11  -0.184373D+00 -0.198259D+00  0.126427D+01  0.138582D-01 -0.166178D+00
     12   0.324160D-02  0.451478D+00  0.275095D+00 -0.136827D-02 -0.131727D+00
     13  -0.159508D-01 -0.814966D-01 -0.569287D-01  0.832919D-01  0.205291D+00
     14  -0.429540D-01  0.494808D-01 -0.317202D+00  0.371291D+00 -0.324586D+00
     15  -0.281916D-01 -0.390350D+00 -0.194152D+00  0.751374D-01  0.851111D-01
     16   0.284103D+00 -0.397644D-01 -0.134203D+00  0.286184D-01  0.632783D-01
               691           692           693           694           695 
      1  -0.146022D+03 -0.146019D+03 -0.145991D+03 -0.145981D+03 -0.145956D+03
      2   0.282607D-01  0.171909D-02  0.422806D-01 -0.951921D-01  0.103613D-01
      3  -0.267534D-01  0.875867D-01  0.250744D-01  0.942767D-01 -0.380894D-01
      4  -0.991471D-02  0.464099D-02 -0.213303D-01 -0.342138D-03  0.781421D-01
      5  -0.925381D-01 -0.680458D-02 -0.148990D+00  0.318936D+00 -0.236686D-01
      6   0.862459D-01 -0.280132D+00 -0.880520D-01 -0.307549D+00  0.137090D+00
      7   0.276818D-01 -0.767344D-02  0.766433D-01 -0.631031D-02 -0.257189D+00
      8  -0.124637D-01 -0.371406D-01 -0.317047D-01 -0.325445D-01 -0.505041D-01
      9   0.592285D-02  0.778348D-01 -0.417085D-01  0.789716D-02  0.526208D+00
     10   0.194336D+00 -0.449819D+00  0.312520D+00  0.569039D-01  0.290478D+00
     11  -0.193559D+00 -0.139583D+00 -0.275239D+00 -0.191808D+00 -0.368129D+00
     12  -0.137531D+00  0.124336D+00  0.413032D+00 -0.171166D+00 -0.154286D+00
     13   0.146698D+00  0.671376D-01 -0.178009D-01  0.364289D-01  0.190289D+00
     14   0.157835D+00 -0.329306D+00  0.668020D+00 -0.359205D+00  0.160800D+00
     15  -0.600916D-01 -0.924275D-01  0.420237D-01  0.936123D-02 -0.463208D+00
     16   0.163745D-01 -0.311492D-01 -0.176358D+00  0.116689D+00 -0.144569D+00
               696           697           698           699           700 
      1  -0.145935D+03 -0.145903D+03 -0.145896D+03 -0.145890D+03 -0.145880D+03
      2  -0.525756D-01 -0.945728D-01 -0.526021D-02  0.168009D-01  0.637759D-01
      3  -0.122992D-01  0.205280D-01  0.237597D-01 -0.281491D-01 -0.686786D-02
      4  -0.619677D-01  0.102156D-01 -0.476923D-03 -0.664438D-02 -0.554333D-02
      5   0.166482D+00  0.333213D+00  0.426372D-02 -0.617183D-01 -0.240670D+00
      6   0.417165D-01 -0.578049D-01 -0.851772D-01  0.909521D-01  0.285691D-01
      7   0.198621D+00 -0.284243D-01 -0.257842D-03  0.215046D-01  0.213705D-01
      8  -0.468386D-01  0.979801D-02  0.636071D-01  0.346776D-02  0.552417D-01
      9  -0.329330D+00  0.476716D-02 -0.117570D+00 -0.732365D-01 -0.128297D+00
     10   0.745765D-01  0.170687D+00 -0.209938D-01 -0.218959D+00 -0.124745D-01
     11   0.637660D+00  0.114055D+00  0.207372D-01 -0.288510D+00 -0.224718D+00
     12  -0.114105D-01  0.435010D+00  0.142857D+00  0.135572D-01 -0.554880D+00
     13  -0.315020D-01  0.798915D-01 -0.328978D-01 -0.247263D-01  0.105127D+00
     14   0.201828D+00 -0.122654D+00 -0.803471D-01  0.396534D-01  0.563417D+00
     15   0.377071D+00 -0.542081D-01  0.297607D-01  0.104096D+00  0.838038D-01
     16  -0.309408D-01 -0.216724D-01  0.427566D-01 -0.170940D-01  0.570515D-02
               701           702           703           704           705 
      1  -0.145875D+03 -0.145849D+03 -0.145846D+03 -0.145839D+03 -0.145792D+03
      2  -0.344917D-01  0.265514D-01 -0.293665D-01 -0.214196D-01 -0.242068D-01
      3   0.748957D-01  0.368532D-01  0.267014D-01 -0.189644D-01 -0.291837D-01
      4   0.161535D-01  0.265417D-01 -0.174372D-01 -0.105035D-01  0.278743D-01
      5   0.125784D+00 -0.975219D-01  0.118257D+00  0.873962D-01  0.759587D-01
      6  -0.244901D+00 -0.132615D+00 -0.692392D-01  0.511536D-01  0.103610D+00
      7  -0.600377D-01 -0.995617D-01  0.628001D-01  0.357014D-01 -0.902570D-01
      8  -0.236567D-01 -0.145197D-01  0.146995D-01  0.593247D-01  0.154579D+00
      9   0.109987D+00  0.228598D+00 -0.141026D+00 -0.168069D+00 -0.820666D-01
     10  -0.310003D+00  0.307356D+00  0.205468D-01 -0.402688D-01  0.110518D+00
     11   0.110027D+00 -0.172577D+00  0.271388D+00 -0.294254D+00  0.438636D+00
     12   0.274045D+00  0.759747D-01  0.150845D+00  0.137713D+00 -0.869367D-01
     13  -0.582193D-01 -0.296661D-01 -0.841193D-01  0.386538D-01 -0.134807D-01
     14  -0.708740D+00 -0.127524D-01  0.198285D+00 -0.340801D+00  0.207623D+00
     15  -0.143631D+00 -0.967141D-01  0.455905D-01  0.164357D+00  0.231929D+00
     16  -0.156168D-01  0.457251D-01 -0.268000D-01  0.623530D-01  0.194507D+00
               706           707           708           709           710 
      1  -0.145767D+03 -0.145765D+03 -0.145734D+03 -0.145711D+03 -0.145699D+03
      2  -0.366451D-01  0.308258D-01  0.807745D-01 -0.191589D-02 -0.136179D-01
      3   0.341050D-01 -0.674115D-01  0.505460D-01  0.588000D-01 -0.156116D-02
      4  -0.290303D-02  0.114751D-01  0.662670D-01  0.428621D-02 -0.348594D-01
      5   0.124950D+00 -0.109363D+00 -0.286648D+00  0.255381D-01  0.642280D-01
      6  -0.135185D+00  0.249902D+00 -0.189288D+00 -0.186682D+00 -0.435177D-02
      7   0.109722D-01 -0.388655D-01 -0.227383D+00 -0.144624D-01  0.118176D+00
      8  -0.205848D-01 -0.358814D-01 -0.110834D+00 -0.380743D-01  0.175946D-01
      9  -0.900781D-01  0.100021D+00  0.514789D+00  0.103244D+00 -0.227105D+00
     10  -0.537371D+00 -0.148601D+00 -0.370169D+00  0.882885D-01 -0.110999D+00
     11   0.652731D+00  0.578777D+00 -0.975098D+00  0.483017D+00  0.315640D+00
     12  -0.229770D+00 -0.347646D+00  0.990514D-02  0.229632D+00 -0.616215D-01
     13  -0.573520D-02  0.366951D-01  0.627228D-01 -0.658778D-01  0.878824D-01
     14  -0.389254D+00 -0.110305D+00 -0.518719D+00 -0.856158D-01 -0.236738D+00
     15   0.684877D-02 -0.138636D+00 -0.331218D+00 -0.124673D+00  0.151531D+00
     16   0.111078D+00 -0.469169D-01  0.690091D-02  0.158526D-03  0.444581D-01
               711           712           713           714           715 
      1  -0.145674D+03 -0.145673D+03 -0.145658D+03 -0.145650D+03 -0.145578D+03
      2   0.947979D-01  0.932780D-02  0.100570D-02  0.161195D-01 -0.992625D-01
      3   0.588702D-01 -0.300530D-01 -0.100985D-01 -0.494898D-01 -0.590875D-01
      4  -0.171510D-01 -0.280112D-01 -0.331356D-01  0.805233D-02  0.166361D-01
      5  -0.355343D+00 -0.274930D-01  0.220236D-01 -0.599477D-01  0.398742D+00
      6  -0.204322D+00  0.105847D+00  0.604834D-01  0.168371D+00  0.234631D+00
      7   0.616353D-01  0.971180D-01  0.110794D+00 -0.280486D-01 -0.634496D-01
      8  -0.291713D-02  0.520913D-01  0.428958D-01  0.322881D-01  0.117848D-01
      9  -0.100529D+00 -0.242309D+00 -0.234369D+00  0.805390D-01  0.935645D-01
     10  -0.490587D+00  0.269908D+00  0.257784D+00  0.769969D+00  0.401913D+00
     11  -0.837682D+00  0.302555D+00  0.190597D+00 -0.942630D+00  0.110552D+01
     12   0.408554D+00  0.131974D+00 -0.166375D+00  0.448949D+00 -0.240506D+00
     13  -0.476122D-01 -0.720385D-01  0.114838D+00 -0.153063D-01 -0.236589D-01
     14  -0.104680D+00  0.111652D+00  0.253384D+00  0.381648D+00  0.389284D+00
     15   0.193943D+00  0.235165D+00  0.198370D+00  0.733758D-01 -0.246582D+00
     16   0.362118D-01 -0.217852D-01 -0.215202D-01 -0.154465D+00 -0.589075D-01
               716           717           718           719           720 
      1  -0.145527D+03 -0.145492D+03 -0.145406D+03 -0.145312D+03 -0.145225D+03
      2  -0.566958D-01 -0.245420D-02 -0.806233D-02 -0.446630D-02 -0.181640D-01
      3   0.527126D-01  0.184045D-01  0.202355D-02  0.368594D-01  0.482098D-02
      4  -0.122007D-01 -0.370644D-02  0.414918D-02  0.352522D-02 -0.680715D-02
      5   0.180867D+00 -0.951725D-02  0.118778D-01  0.445533D-01 -0.262388D-02
      6  -0.179919D+00 -0.547560D-01 -0.226365D-01 -0.120948D+00 -0.451530D-01
      7   0.416686D-01  0.106538D-01 -0.109132D-01 -0.164927D-01  0.294594D-01
      8   0.115384D-01 -0.320500D-01 -0.988221D-02 -0.131771D-01 -0.458327D-02
      9  -0.116099D+00  0.277515D-01  0.191184D-01 -0.489685D-02 -0.437269D-01
     10  -0.145359D+00 -0.285487D+00 -0.146872D+00 -0.381387D+00 -0.568303D-01
     11   0.155201D-01 -0.548912D+00  0.599065D+00  0.517823D+00  0.277449D+00
     12   0.224466D+00 -0.138096D+00  0.497098D+00 -0.170747D+00 -0.136390D+00
     13  -0.476650D-01  0.174049D-01 -0.879911D-01  0.261503D-01  0.208489D-01
     14  -0.250426D+00 -0.172312D+00  0.247570D+00 -0.305015D+00  0.537881D-01
     15   0.509516D-01 -0.185543D-01 -0.105802D+00 -0.618243D-01 -0.385159D-02
     16   0.886313D-01  0.609557D-01 -0.491781D-01  0.141411D+00  0.206019D-01
 Unable to Open any file for archive entry.
 1\1\GINC-HEL11\SP\RPBEPBE TD-FC\Gen\C1H4N2\SABYASACHI\21-Mar-2022\0\\#
 P TD(Nstates=10000) pbepbe/Gen SCF(maxcycles=100) Int(Grid=ultrafine)\
 \xGDB7_00001_tier4.com\\0,1\N,0,1.106441,0.142513,-0.090982\N,0,-0.080
 753,-0.51252,0.006066\C,0,-1.148696,0.167456,0.008166\H,0,1.854749,-0.
 409916,0.291533\H,0,1.109677,1.100453,0.242713\H,0,-2.089851,-0.366199
 ,0.035249\H,0,-1.162208,1.260974,-0.02408\\Version=EM64L-G16RevC.01\St
 ate=1-A\HF=-149.6855091\RMSD=6.985e-09\PG=C01 [X(C1H4N2)]\\@
 The archive entry for this job was punched.


 Human beings, who are almost unique in having the
 ability to learn from the experience of others, are
 also remarkable for their apparent disinclination to do so.
                               -- Douglas Adams,
                                Last Chance to See
 Job cpu time:       0 days  0 hours 10 minutes 19.9 seconds.
 Elapsed time:       0 days  0 hours  1 minutes 17.9 seconds.
 File lengths (MBytes):  RWF=    259 Int=      0 D2E=      0 Chk=    150 Scr=      1
 Normal termination of Gaussian 16 at Mon Mar 21 20:18:19 2022.
