 Entering Gaussian System, Link 0=g16
 Input=000006.com
 Output=000006.log
 Initial command:
 /home/sabyasachi/g16/l1.exe "/scratch/sabyasachi/PBS_7976437.helios/Gau-30061.inp" -scrdir="/scratch/sabyasachi/PBS_7976437.helios/"
 Entering Link 1 = /home/sabyasachi/g16/l1.exe PID=     30063.
  
 Copyright (c) 1988-2019, Gaussian, Inc.  All Rights Reserved.
  
 This is part of the Gaussian(R) 16 program.  It is based on
 the Gaussian(R) 09 system (copyright 2009, Gaussian, Inc.),
 the Gaussian(R) 03 system (copyright 2003, Gaussian, Inc.),
 the Gaussian(R) 98 system (copyright 1998, Gaussian, Inc.),
 the Gaussian(R) 94 system (copyright 1995, Gaussian, Inc.),
 the Gaussian 92(TM) system (copyright 1992, Gaussian, Inc.),
 the Gaussian 90(TM) system (copyright 1990, Gaussian, Inc.),
 the Gaussian 88(TM) system (copyright 1988, Gaussian, Inc.),
 the Gaussian 86(TM) system (copyright 1986, Carnegie Mellon
 University), and the Gaussian 82(TM) system (copyright 1983,
 Carnegie Mellon University). Gaussian is a federally registered
 trademark of Gaussian, Inc.
  
 This software contains proprietary and confidential information,
 including trade secrets, belonging to Gaussian, Inc.
  
 This software is provided under written license and may be
 used, copied, transmitted, or stored only in accord with that
 written license.
  
 The following legend is applicable only to US Government
 contracts under FAR:
  
                    RESTRICTED RIGHTS LEGEND
  
 Use, reproduction and disclosure by the US Government is
 subject to restrictions as set forth in subparagraphs (a)
 and (c) of the Commercial Computer Software - Restricted
 Rights clause in FAR 52.227-19.
  
 Gaussian, Inc.
 340 Quinnipiac St., Bldg. 40, Wallingford CT 06492
  
  
 ---------------------------------------------------------------
 Warning -- This program may not be used in any manner that
 competes with the business of Gaussian, Inc. or will provide
 assistance to any competitor of Gaussian, Inc.  The licensee
 of this program is prohibited from giving any competitor of
 Gaussian, Inc. access to this program.  By using this program,
 the user acknowledges that Gaussian, Inc. is engaged in the
 business of creating and licensing software in the field of
 computational chemistry and represents and warrants to the
 licensee that it is not a competitor of Gaussian, Inc. and that
 it will not use this program in any manner prohibited above.
 ---------------------------------------------------------------
  

 Cite this work as:
 Gaussian 16, Revision C.01,
 M. J. Frisch, G. W. Trucks, H. B. Schlegel, G. E. Scuseria, 
 M. A. Robb, J. R. Cheeseman, G. Scalmani, V. Barone, 
 G. A. Petersson, H. Nakatsuji, X. Li, M. Caricato, A. V. Marenich, 
 J. Bloino, B. G. Janesko, R. Gomperts, B. Mennucci, H. P. Hratchian, 
 J. V. Ortiz, A. F. Izmaylov, J. L. Sonnenberg, D. Williams-Young, 
 F. Ding, F. Lipparini, F. Egidi, J. Goings, B. Peng, A. Petrone, 
 T. Henderson, D. Ranasinghe, V. G. Zakrzewski, J. Gao, N. Rega, 
 G. Zheng, W. Liang, M. Hada, M. Ehara, K. Toyota, R. Fukuda, 
 J. Hasegawa, M. Ishida, T. Nakajima, Y. Honda, O. Kitao, H. Nakai, 
 T. Vreven, K. Throssell, J. A. Montgomery, Jr., J. E. Peralta, 
 F. Ogliaro, M. J. Bearpark, J. J. Heyd, E. N. Brothers, K. N. Kudin, 
 V. N. Staroverov, T. A. Keith, R. Kobayashi, J. Normand, 
 K. Raghavachari, A. P. Rendell, J. C. Burant, S. S. Iyengar, 
 J. Tomasi, M. Cossi, J. M. Millam, M. Klene, C. Adamo, R. Cammi, 
 J. W. Ochterski, R. L. Martin, K. Morokuma, O. Farkas, 
 J. B. Foresman, and D. J. Fox, Gaussian, Inc., Wallingford CT, 2019.
 
 ******************************************
 Gaussian 16:  EM64L-G16RevC.01  3-Jul-2019
                21-Mar-2022 
 ******************************************
 %mem=64gb
 %nproc=8
 Will use up to    8 processors via shared memory.
 ----------------------------------------------------------------------
 #P TD(Nstates=10000) pbepbe/Gen SCF(maxcycles=100) Int(Grid=ultrafine)
 ----------------------------------------------------------------------
 1/38=1,172=1/1;
 2/12=2,17=6,18=5,40=1/2;
 3/5=7,11=9,25=1,30=1,74=1009,75=-5/1,2,3,8;
 4//1;
 5/5=2,7=100,38=5/2;
 8/6=1,10=1,108=10000/1;
 9/41=10000,42=1,70=2/14;
 6/7=2,8=2,9=2,10=2/1;
 99/5=1,9=1/99;
 Leave Link    1 at Mon Mar 21 20:16:43 2022, MaxMem=  8589934592 cpu:               0.3 elap:               0.0
 (Enter /home/sabyasachi/g16/l101.exe)
 ---------------------
 xGDB7_00001_tier4.com
 ---------------------
 Symbolic Z-matrix:
 Charge =  0 Multiplicity = 1
 6                    -0.04908   0.70204   0. 
 7                    -0.04908  -0.75424   0. 
 1                     0.94611   1.1666    0. 
 1                    -0.58757   1.0626    0.87777 
 1                    -0.58757   1.0626   -0.87777 
 1                     0.43353  -1.11218   0.8125 
 1                     0.43353  -1.11218  -0.8125 
 
 ITRead=  0  0  0  0  0  0  0
 MicOpt= -1 -1 -1 -1 -1 -1 -1
 NAtoms=      7 NQM=        7 NQMF=       0 NMMI=      0 NMMIF=      0
                NMic=       0 NMicF=      0.
                    Isotopes and Nuclear Properties:
 (Nuclear quadrupole moments (NQMom) in fm**2, nuclear magnetic moments (NMagM)
  in nuclear magnetons)

  Atom         1           2           3           4           5           6           7
 IAtWgt=          12          14           1           1           1           1           1
 AtmWgt=  12.0000000  14.0030740   1.0078250   1.0078250   1.0078250   1.0078250   1.0078250
 NucSpn=           0           2           1           1           1           1           1
 AtZEff=  -0.0000000  -0.0000000  -0.0000000  -0.0000000  -0.0000000  -0.0000000  -0.0000000
 NQMom=    0.0000000   2.0440000   0.0000000   0.0000000   0.0000000   0.0000000   0.0000000
 NMagM=    0.0000000   0.4037610   2.7928460   2.7928460   2.7928460   2.7928460   2.7928460
 AtZNuc=   6.0000000   7.0000000   1.0000000   1.0000000   1.0000000   1.0000000   1.0000000
 Leave Link  101 at Mon Mar 21 20:16:43 2022, MaxMem=  8589934592 cpu:               0.6 elap:               0.1
 (Enter /home/sabyasachi/g16/l202.exe)
                          Input orientation:                          
 ---------------------------------------------------------------------
 Center     Atomic      Atomic             Coordinates (Angstroms)
 Number     Number       Type             X           Y           Z
 ---------------------------------------------------------------------
      1          6           0       -0.049078    0.702042    0.000000
      2          7           0       -0.049078   -0.754243    0.000000
      3          1           0        0.946109    1.166603    0.000000
      4          1           0       -0.587574    1.062597    0.877770
      5          1           0       -0.587574    1.062597   -0.877770
      6          1           0        0.433525   -1.112175    0.812504
      7          1           0        0.433525   -1.112175   -0.812504
 ---------------------------------------------------------------------
                    Distance matrix (angstroms):
                    1          2          3          4          5
     1  C    0.000000
     2  N    1.456285   0.000000
     3  H    1.098278   2.163342   0.000000
     4  H    1.091081   2.088388   1.770164   0.000000
     5  H    1.091081   2.088388   1.770164   1.755540   0.000000
     6  H    2.045593   1.010536   2.473001   2.403443   2.937567
     7  H    2.045593   1.010536   2.473001   2.937567   2.403443
                    6          7
     6  H    0.000000
     7  H    1.625008   0.000000
 Stoichiometry    CH5N
 Framework group  CS[SG(CHN),X(H4)]
 Deg. of freedom     9
 Full point group                 CS      NOp   2
 Largest Abelian subgroup         CS      NOp   2
 Largest concise Abelian subgroup CS      NOp   2
                         Standard orientation:                         
 ---------------------------------------------------------------------
 Center     Atomic      Atomic             Coordinates (Angstroms)
 Number     Number       Type             X           Y           Z
 ---------------------------------------------------------------------
      1          6           0       -0.049078    0.702042   -0.000000
      2          7           0       -0.049078   -0.754243    0.000000
      3          1           0        0.946109    1.166603   -0.000000
      4          1           0       -0.587574    1.062597    0.877770
      5          1           0       -0.587574    1.062597   -0.877770
      6          1           0        0.433525   -1.112175    0.812504
      7          1           0        0.433525   -1.112175   -0.812504
 ---------------------------------------------------------------------
 Rotational constants (GHZ):         104.1843361          22.9598117          22.0420045
 Leave Link  202 at Mon Mar 21 20:16:43 2022, MaxMem=  8589934592 cpu:               0.1 elap:               0.0
 (Enter /home/sabyasachi/g16/l301.exe)
 General basis read from cards:  (5D, 7F)
 Centers:       3      4      5      6      7
 S 3 1.00
     Exponent=  1.3010701000D+01 Coefficients=  1.9682158000D-02
     Exponent=  1.9622572000D+00 Coefficients=  1.3796524000D-01
     Exponent=  4.4453796000D-01 Coefficients=  4.7831935000D-01
 S 1 1.00
     Exponent=  1.2194962000D-01 Coefficients=  1.0000000000D+00
 P 1 1.00
     Exponent=  8.0000000000D-01 Coefficients=  1.0000000000D+00
 P 1 1.00
     Exponent=  1.1704099050D-01 Coefficients=  1.0000000000D+00
 ****
 Centers:       1
 S 5 1.00
     Exponent=  1.2384016938D+03 Coefficients=  5.4568832082D-03
     Exponent=  1.8629004992D+02 Coefficients=  4.0638409211D-02
     Exponent=  4.2251176346D+01 Coefficients=  1.8025593888D-01
     Exponent=  1.1676557932D+01 Coefficients=  4.6315121755D-01
     Exponent=  3.5930506482D+00 Coefficients=  4.4087173314D-01
 S 1 1.00
     Exponent=  4.0245147363D-01 Coefficients=  1.0000000000D+00
 S 1 1.00
     Exponent=  1.3090182668D-01 Coefficients=  1.0000000000D+00
 S 1 1.00
     Exponent=  6.7053540256D-02 Coefficients=  1.0000000000D+00
 P 3 1.00
     Exponent=  9.4680970621D+00 Coefficients=  3.8387871728D-02
     Exponent=  2.0103545142D+00 Coefficients=  2.1117025112D-01
     Exponent=  5.4771004707D-01 Coefficients=  5.1328172114D-01
 P 1 1.00
     Exponent=  1.5268613795D-01 Coefficients=  1.0000000000D+00
 D 1 1.00
     Exponent=  8.0000000000D-01 Coefficients=  1.0000000000D+00
 D 1 1.00
     Exponent=  1.1713185140D-01 Coefficients=  1.0000000000D+00
 ****
 Centers:       2
 S 5 1.00
     Exponent=  1.7128415853D+03 Coefficients= -5.3934125305D-03
     Exponent=  2.5764812677D+02 Coefficients= -4.0221581118D-02
     Exponent=  5.8458245853D+01 Coefficients= -1.7931144990D-01
     Exponent=  1.6198367905D+01 Coefficients= -4.6376317823D-01
     Exponent=  5.0052600809D+00 Coefficients= -4.4171422662D-01
 S 1 1.00
     Exponent=  5.8731856571D-01 Coefficients=  1.0000000000D+00
 S 1 1.00
     Exponent=  1.8764592253D-01 Coefficients=  1.0000000000D+00
 S 1 1.00
     Exponent=  9.6171241529D-02 Coefficients=  1.0000000000D+00
 P 3 1.00
     Exponent=  1.3571470233D+01 Coefficients= -4.0072398852D-02
     Exponent=  2.9257372874D+00 Coefficients= -2.1807045028D-01
     Exponent=  7.9927750754D-01 Coefficients= -5.1294466049D-01
 P 1 1.00
     Exponent=  2.1954348034D-01 Coefficients=  1.0000000000D+00
 D 1 1.00
     Exponent=  1.0000000000D+00 Coefficients=  1.0000000000D+00
 D 1 1.00
     Exponent=  1.6697708112D-01 Coefficients=  1.0000000000D+00
 ****
 Ernie: Thresh=  0.10000D-02 Tol=  0.10000D-05 Strict=F.
 There are    54 symmetry adapted cartesian basis functions of A'  symmetry.
 There are    30 symmetry adapted cartesian basis functions of A"  symmetry.
 There are    50 symmetry adapted basis functions of A'  symmetry.
 There are    30 symmetry adapted basis functions of A"  symmetry.
    80 basis functions,   114 primitive gaussians,    84 cartesian basis functions
     9 alpha electrons        9 beta electrons
       nuclear repulsion energy        42.1215507304 Hartrees.
 IExCor= 1009 DFT=T Ex=PBE Corr=PBE ExCW=0 ScaHFX=  0.000000
 ScaDFX=  1.000000  1.000000  1.000000  1.000000 ScalE2=  1.000000  1.000000
 IRadAn=      5 IRanWt=     -1 IRanGd=            0 ICorTp=0 IEmpDi=  4
 NAtoms=    7 NActive=    7 NUniq=    5 SFac= 1.96D+00 NAtFMM=   60 NAOKFM=F Big=F
 Integral buffers will be    131072 words long.
 Regular integral format.
 Two-electron integral symmetry is turned on.
 Leave Link  301 at Mon Mar 21 20:16:43 2022, MaxMem=  8589934592 cpu:               0.6 elap:               0.1
 (Enter /home/sabyasachi/g16/l302.exe)
 NPDir=0 NMtPBC=     1 NCelOv=     1 NCel=       1 NClECP=     1 NCelD=      1
         NCelK=      1 NCelE2=     1 NClLst=     1 CellRange=     0.0.
 One-electron integrals computed using PRISM.
 One-electron integral symmetry used in STVInt
 NBasis=    80 RedAO= T EigKep=  5.26D-04  NBF=    50    30
 NBsUse=    80 1.00D-06 EigRej= -1.00D+00 NBFU=    50    30
 Precomputing XC quadrature grid using
 IXCGrd= 4 IRadAn=           5 IRanWt=          -1 IRanGd=           0 AccXCQ= 0.00D+00.
 Generated NRdTot=       0 NPtTot=           0 NUsed=           0 NTot=          32
 NSgBfM=    84    84    84    84    84 MxSgAt=     7 MxSgA2=     7.
 Leave Link  302 at Mon Mar 21 20:16:43 2022, MaxMem=  8589934592 cpu:               0.9 elap:               0.1
 (Enter /home/sabyasachi/g16/l303.exe)
 DipDrv:  MaxL=1.
 Leave Link  303 at Mon Mar 21 20:16:43 2022, MaxMem=  8589934592 cpu:               0.2 elap:               0.0
 (Enter /home/sabyasachi/g16/l308.exe)
 Leave Link  308 at Mon Mar 21 20:16:43 2022, MaxMem=  8589934592 cpu:               0.2 elap:               0.0
 (Enter /home/sabyasachi/g16/l401.exe)
 ExpMin= 6.71D-02 ExpMax= 1.71D+03 ExpMxC= 2.58D+02 IAcc=3 IRadAn=         5 AccDes= 0.00D+00
 Harris functional with IExCor= 1009 and IRadAn=       5 diagonalized for initial guess.
 HarFok:  IExCor= 1009 AccDes= 0.00D+00 IRadAn=         5 IDoV= 1 UseB2=F ITyADJ=14
 ICtDFT=  3500011 ScaDFX=  1.000000  1.000000  1.000000  1.000000
 FoFCou: FMM=F IPFlag=           0 FMFlag=      100000 FMFlg1=           0
         NFxFlg=           0 DoJE=T BraDBF=F KetDBF=T FulRan=T
         wScrn=  0.000000 ICntrl=       500 IOpCl=  0 I1Cent=   200000004 NGrid=           0
         NMat0=    1 NMatS0=      1 NMatT0=    0 NMatD0=    1 NMtDS0=    0 NMtDT0=    0
 Petite list used in FoFCou.
 Harris En= -95.7260326013973    
 JPrj=0 DoOrth=F DoCkMO=F.
 Initial guess orbital symmetries:
       Occupied  (A') (A') (A') (A') (A") (A') (A') (A") (A')
       Virtual   (A') (A') (A") (A') (A") (A') (A') (A") (A') (A')
                 (A") (A') (A') (A") (A') (A') (A") (A') (A") (A")
                 (A') (A') (A") (A') (A') (A') (A") (A") (A') (A")
                 (A') (A") (A') (A') (A') (A") (A') (A') (A') (A")
                 (A') (A') (A") (A') (A") (A') (A') (A") (A") (A")
                 (A') (A") (A') (A') (A") (A') (A") (A') (A") (A')
                 (A') (A") (A') (A') (A') (A") (A') (A") (A') (A')
                 (A")
 The electronic state of the initial guess is 1-A'.
 Leave Link  401 at Mon Mar 21 20:16:43 2022, MaxMem=  8589934592 cpu:               1.6 elap:               0.2
 (Enter /home/sabyasachi/g16/l502.exe)
 Keep J ints in memory in symmetry-blocked form, NReq=12538712.
 FoFCou: FMM=F IPFlag=           0 FMFlag=           0 FMFlg1=           0
         NFxFlg=           0 DoJE=F BraDBF=F KetDBF=F FulRan=T
         wScrn=  0.000000 ICntrl=       600 IOpCl=  0 I1Cent=           0 NGrid=           0
         NMat0=    1 NMatS0=   3240 NMatT0=    0 NMatD0=    1 NMtDS0=    0 NMtDT0=    0
 Petite list used in FoFCou.
 Closed shell SCF:
 Using DIIS extrapolation, IDIIS=  1040.
 NGot=  8589934592 LenX=  8587270692 LenY=  8587263195
 Requested convergence on RMS density matrix=1.00D-08 within 100 cycles.
 Requested convergence on MAX density matrix=1.00D-06.
 Requested convergence on             energy=1.00D-06.
 No special actions if energy rises.
 Integral accuracy reduced to 1.0D-05 until final iterations.

 Cycle   1  Pass 0  IDiag  1:
 E= -95.5819388747298    
 DIIS: error= 3.43D-02 at cycle   1 NSaved=   1.
 NSaved= 1 IEnMin= 1 EnMin= -95.5819388747298     IErMin= 1 ErrMin= 3.43D-02
 ErrMax= 3.43D-02  0.00D+00 EMaxC= 1.00D-01 BMatC= 7.75D-02 BMatP= 7.75D-02
 IDIUse=3 WtCom= 6.57D-01 WtEn= 3.43D-01
 Coeff-Com:  0.100D+01
 Coeff-En:   0.100D+01
 Coeff:      0.100D+01
 Gap=     0.099 Goal=   None    Shift=    0.000
 GapD=    0.099 DampG=0.500 DampE=0.500 DampFc=0.2500 IDamp=-1.
 Damping current iteration by 2.50D-01
 RMSDP=2.53D-02 MaxDP=1.23D+00              OVMax= 2.47D-01

 Cycle   2  Pass 0  IDiag  1:
 E= -95.6120637940756     Delta-E=       -0.030124919346 Rises=F Damp=T
 DIIS: error= 1.22D-02 at cycle   2 NSaved=   2.
 NSaved= 2 IEnMin= 2 EnMin= -95.6120637940756     IErMin= 2 ErrMin= 1.22D-02
 ErrMax= 1.22D-02  0.00D+00 EMaxC= 1.00D-01 BMatC= 8.96D-03 BMatP= 7.75D-02
 IDIUse=3 WtCom= 8.78D-01 WtEn= 1.22D-01
 Coeff-Com: -0.431D+00 0.143D+01
 Coeff-En:   0.000D+00 0.100D+01
 Coeff:     -0.379D+00 0.138D+01
 Gap=     0.195 Goal=   None    Shift=    0.000
 RMSDP=3.00D-03 MaxDP=7.67D-02 DE=-3.01D-02 OVMax= 1.67D-01

 Cycle   3  Pass 0  IDiag  1:
 E= -95.6628398345797     Delta-E=       -0.050776040504 Rises=F Damp=F
 DIIS: error= 5.04D-03 at cycle   3 NSaved=   3.
 NSaved= 3 IEnMin= 3 EnMin= -95.6628398345797     IErMin= 3 ErrMin= 5.04D-03
 ErrMax= 5.04D-03  0.00D+00 EMaxC= 1.00D-01 BMatC= 1.71D-03 BMatP= 8.96D-03
 IDIUse=3 WtCom= 9.50D-01 WtEn= 5.04D-02
 Coeff-Com: -0.189D+00 0.656D+00 0.533D+00
 Coeff-En:   0.000D+00 0.000D+00 0.100D+01
 Coeff:     -0.180D+00 0.623D+00 0.557D+00
 Gap=     0.200 Goal=   None    Shift=    0.000
 RMSDP=7.06D-04 MaxDP=1.60D-02 DE=-5.08D-02 OVMax= 1.60D-02

 Cycle   4  Pass 0  IDiag  1:
 E= -95.6642450388072     Delta-E=       -0.001405204228 Rises=F Damp=F
 DIIS: error= 1.72D-03 at cycle   4 NSaved=   4.
 NSaved= 4 IEnMin= 4 EnMin= -95.6642450388072     IErMin= 4 ErrMin= 1.72D-03
 ErrMax= 1.72D-03  0.00D+00 EMaxC= 1.00D-01 BMatC= 3.25D-04 BMatP= 1.71D-03
 IDIUse=3 WtCom= 9.83D-01 WtEn= 1.72D-02
 Coeff-Com: -0.565D-01 0.198D+00 0.316D+00 0.543D+00
 Coeff-En:   0.000D+00 0.000D+00 0.127D+00 0.873D+00
 Coeff:     -0.555D-01 0.195D+00 0.313D+00 0.548D+00
 Gap=     0.201 Goal=   None    Shift=    0.000
 RMSDP=3.52D-04 MaxDP=1.27D-02 DE=-1.41D-03 OVMax= 5.20D-03

 Cycle   5  Pass 0  IDiag  1:
 E= -95.6645364511693     Delta-E=       -0.000291412362 Rises=F Damp=F
 DIIS: error= 2.59D-04 at cycle   5 NSaved=   5.
 NSaved= 5 IEnMin= 5 EnMin= -95.6645364511693     IErMin= 5 ErrMin= 2.59D-04
 ErrMax= 2.59D-04  0.00D+00 EMaxC= 1.00D-01 BMatC= 6.40D-06 BMatP= 3.25D-04
 IDIUse=3 WtCom= 9.97D-01 WtEn= 2.59D-03
 Coeff-Com: -0.194D-02 0.545D-02 0.494D-01 0.178D+00 0.769D+00
 Coeff-En:   0.000D+00 0.000D+00 0.000D+00 0.000D+00 0.100D+01
 Coeff:     -0.194D-02 0.543D-02 0.493D-01 0.178D+00 0.769D+00
 Gap=     0.201 Goal=   None    Shift=    0.000
 RMSDP=7.13D-05 MaxDP=2.71D-03 DE=-2.91D-04 OVMax= 6.63D-04

 Cycle   6  Pass 0  IDiag  1:
 E= -95.6645422508613     Delta-E=       -0.000005799692 Rises=F Damp=F
 DIIS: error= 1.44D-05 at cycle   6 NSaved=   6.
 NSaved= 6 IEnMin= 6 EnMin= -95.6645422508613     IErMin= 6 ErrMin= 1.44D-05
 ErrMax= 1.44D-05  0.00D+00 EMaxC= 1.00D-01 BMatC= 1.61D-08 BMatP= 6.40D-06
 IDIUse=1 WtCom= 1.00D+00 WtEn= 0.00D+00
 Coeff-Com:  0.206D-03-0.475D-03 0.628D-02 0.237D-01 0.130D+00 0.840D+00
 Coeff:      0.206D-03-0.475D-03 0.628D-02 0.237D-01 0.130D+00 0.840D+00
 Gap=     0.201 Goal=   None    Shift=    0.000
 RMSDP=5.41D-06 MaxDP=2.07D-04 DE=-5.80D-06 OVMax= 7.29D-05

 Initial convergence to 1.0D-05 achieved.  Increase integral accuracy.
 Cycle   7  Pass 1  IDiag  1:
 E= -95.6645380409097     Delta-E=        0.000004209952 Rises=F Damp=F
 DIIS: error= 3.71D-06 at cycle   1 NSaved=   1.
 NSaved= 1 IEnMin= 1 EnMin= -95.6645380409097     IErMin= 1 ErrMin= 3.71D-06
 ErrMax= 3.71D-06  0.00D+00 EMaxC= 1.00D-01 BMatC= 1.19D-09 BMatP= 1.19D-09
 IDIUse=1 WtCom= 1.00D+00 WtEn= 0.00D+00
 Coeff-Com:  0.100D+01
 Coeff:      0.100D+01
 Gap=     0.201 Goal=   None    Shift=    0.000
 RMSDP=5.41D-06 MaxDP=2.07D-04 DE= 4.21D-06 OVMax= 2.26D-05

 Cycle   8  Pass 1  IDiag  1:
 E= -95.6645380417968     Delta-E=       -0.000000000887 Rises=F Damp=F
 DIIS: error= 2.55D-06 at cycle   2 NSaved=   2.
 NSaved= 2 IEnMin= 2 EnMin= -95.6645380417968     IErMin= 2 ErrMin= 2.55D-06
 ErrMax= 2.55D-06  0.00D+00 EMaxC= 1.00D-01 BMatC= 5.95D-10 BMatP= 1.19D-09
 IDIUse=1 WtCom= 1.00D+00 WtEn= 0.00D+00
 Coeff-Com:  0.409D+00 0.591D+00
 Coeff:      0.409D+00 0.591D+00
 Gap=     0.201 Goal=   None    Shift=    0.000
 RMSDP=5.33D-07 MaxDP=6.05D-06 DE=-8.87D-10 OVMax= 9.04D-06

 Cycle   9  Pass 1  IDiag  1:
 E= -95.6645380424375     Delta-E=       -0.000000000641 Rises=F Damp=F
 DIIS: error= 6.67D-07 at cycle   3 NSaved=   3.
 NSaved= 3 IEnMin= 3 EnMin= -95.6645380424375     IErMin= 3 ErrMin= 6.67D-07
 ErrMax= 6.67D-07  0.00D+00 EMaxC= 1.00D-01 BMatC= 3.57D-11 BMatP= 5.95D-10
 IDIUse=1 WtCom= 1.00D+00 WtEn= 0.00D+00
 Coeff-Com:  0.150D+00 0.277D+00 0.573D+00
 Coeff:      0.150D+00 0.277D+00 0.573D+00
 Gap=     0.201 Goal=   None    Shift=    0.000
 RMSDP=1.80D-07 MaxDP=7.93D-06 DE=-6.41D-10 OVMax= 2.55D-06

 Cycle  10  Pass 1  IDiag  1:
 E= -95.6645380424654     Delta-E=       -0.000000000028 Rises=F Damp=F
 DIIS: error= 2.92D-07 at cycle   4 NSaved=   4.
 NSaved= 4 IEnMin= 4 EnMin= -95.6645380424654     IErMin= 4 ErrMin= 2.92D-07
 ErrMax= 2.92D-07  0.00D+00 EMaxC= 1.00D-01 BMatC= 8.04D-12 BMatP= 3.57D-11
 IDIUse=1 WtCom= 1.00D+00 WtEn= 0.00D+00
 Coeff-Com:  0.778D-02 0.474D-01 0.342D+00 0.602D+00
 Coeff:      0.778D-02 0.474D-01 0.342D+00 0.602D+00
 Gap=     0.201 Goal=   None    Shift=    0.000
 RMSDP=9.99D-08 MaxDP=4.50D-06 DE=-2.80D-11 OVMax= 1.05D-06

 Cycle  11  Pass 1  IDiag  1:
 E= -95.6645380424731     Delta-E=       -0.000000000008 Rises=F Damp=F
 DIIS: error= 7.00D-08 at cycle   5 NSaved=   5.
 NSaved= 5 IEnMin= 5 EnMin= -95.6645380424731     IErMin= 5 ErrMin= 7.00D-08
 ErrMax= 7.00D-08  0.00D+00 EMaxC= 1.00D-01 BMatC= 4.85D-13 BMatP= 8.04D-12
 IDIUse=1 WtCom= 1.00D+00 WtEn= 0.00D+00
 Coeff-Com: -0.140D-02 0.162D-01 0.169D+00 0.332D+00 0.484D+00
 Coeff:     -0.140D-02 0.162D-01 0.169D+00 0.332D+00 0.484D+00
 Gap=     0.201 Goal=   None    Shift=    0.000
 RMSDP=1.50D-08 MaxDP=6.03D-07 DE=-7.67D-12 OVMax= 1.85D-07

 Cycle  12  Pass 1  IDiag  1:
 E= -95.6645380424735     Delta-E=       -0.000000000000 Rises=F Damp=F
 DIIS: error= 1.93D-08 at cycle   6 NSaved=   6.
 NSaved= 6 IEnMin= 6 EnMin= -95.6645380424735     IErMin= 6 ErrMin= 1.93D-08
 ErrMax= 1.93D-08  0.00D+00 EMaxC= 1.00D-01 BMatC= 2.65D-14 BMatP= 4.85D-13
 IDIUse=1 WtCom= 1.00D+00 WtEn= 0.00D+00
 Coeff-Com: -0.146D-02 0.463D-02 0.620D-01 0.129D+00 0.259D+00 0.547D+00
 Coeff:     -0.146D-02 0.463D-02 0.620D-01 0.129D+00 0.259D+00 0.547D+00
 Gap=     0.201 Goal=   None    Shift=    0.000
 RMSDP=2.87D-09 MaxDP=6.70D-08 DE=-3.98D-13 OVMax= 5.73D-08

 SCF Done:  E(RPBE-PBE) =  -95.6645380425     A.U. after   12 cycles
            NFock= 12  Conv=0.29D-08     -V/T= 2.0108
 KE= 9.464383439772D+01 PE=-3.062012803409D+02 EE= 7.377135717029D+01
 Leave Link  502 at Mon Mar 21 20:16:44 2022, MaxMem=  8589934592 cpu:               7.8 elap:               1.0
 (Enter /home/sabyasachi/g16/l801.exe)
 DoSCS=F DFT=T ScalE2(SS,OS)=  1.000000  1.000000
 ExpMin= 6.71D-02 ExpMax= 1.71D+03 ExpMxC= 2.58D+02 IAcc=3 IRadAn=         5 AccDes= 0.00D+00
 HarFok:  IExCor=  205 AccDes= 0.00D+00 IRadAn=         5 IDoV=-2 UseB2=F ITyADJ=14
 ICtDFT= 12500011 ScaDFX=  1.000000  1.000000  1.000000  1.000000
 Largest valence mixing into a core orbital is  6.46D-05
 Largest core mixing into a valence orbital is  1.23D-05
 Range of M.O.s used for correlation:     3    80
 NBasis=    80 NAE=     9 NBE=     9 NFC=     2 NFV=     0
 NROrb=     78 NOA=     7 NOB=     7 NVA=    71 NVB=    71

 **** Warning!!: The largest alpha MO coefficient is  0.22327145D+02

 Leave Link  801 at Mon Mar 21 20:16:45 2022, MaxMem=  8589934592 cpu:               0.5 elap:               0.1
 (Enter /home/sabyasachi/g16/l914.exe)
 RHF ground state
 Keep J ints in memory in symmetry-blocked form, NReq=311419780.
 FoFCou: FMM=F IPFlag=           0 FMFlag=           0 FMFlg1=           0
         NFxFlg=           0 DoJE=F BraDBF=F KetDBF=F FulRan=T
         wScrn=  0.000000 ICntrl=       600 IOpCl=  0 I1Cent=           0 NGrid=           0
         NMat0=    1 NMatS0=   3240 NMatT0=    0 NMatD0=    1 NMtDS0=    0 NMtDT0=    0
 Petite list used in FoFCou.
 MDV=  8589934592 DFT=T DoStab=F Mixed=F DoRPA=T DoScal=T NonHer=F
 Making orbital integer symmetry assigments:
 Orbital symmetries:
       Occupied  (A') (A') (A') (A') (A") (A') (A') (A") (A')
       Virtual   (A') (A') (A") (A') (A") (A') (A') (A") (A') (A')
                 (A") (A') (A") (A') (A') (A') (A") (A") (A") (A')
                 (A') (A') (A") (A') (A') (A") (A') (A") (A') (A")
                 (A') (A") (A') (A') (A') (A") (A') (A') (A') (A")
                 (A') (A") (A') (A") (A') (A') (A') (A") (A") (A")
                 (A') (A") (A') (A') (A") (A') (A") (A') (A") (A')
                 (A') (A") (A') (A') (A') (A") (A') (A") (A') (A')
                 (A")
   497 initial guesses have been made.
 Convergence on wavefunction:    0.001000000000000
 Davidson Disk Diagonalization:  ConvIn= 1.00D-03 SkipCon=T Conv= 1.00D-03.
 Max sub-space:  1988 roots to seek:   994 dimension of matrix:          994
 *** WARNING: Number of orthogonal guesses is          497
 Iteration     1 Dimension   497 NMult     0 NNew    497
 CISAX will form   497 AO SS matrices at one time.
 NMat=   497 NSing=   497 JSym2X=-1.
 New state      7 was old state      8
 New state      8 was old state      7
 New state     14 was old state     15
 New state     15 was old state     14
 New state     19 was old state     20
 New state     20 was old state     19
 New state     23 was old state     25
 New state     25 was old state     26
 New state     26 was old state     27
 New state     27 was old state     23
 New state     29 was old state     30
 New state     30 was old state     29
 New state     34 was old state     35
 New state     35 was old state     34
 New state     36 was old state     38
 New state     38 was old state     36
 New state     41 was old state     44
 New state     42 was old state     45
 New state     43 was old state     42
 New state     44 was old state     46
 New state     45 was old state     48
 New state     46 was old state     47
 New state     47 was old state     49
 New state     48 was old state     43
 New state     49 was old state     51
 New state     50 was old state     53
 New state     51 was old state     50
 New state     52 was old state     55
 New state     53 was old state     41
 New state     55 was old state     52
 New state     58 was old state     59
 New state     59 was old state     60
 New state     60 was old state     58
 New state     62 was old state     63
 New state     63 was old state     65
 New state     65 was old state     62
 New state     68 was old state     69
 New state     69 was old state     70
 New state     70 was old state     71
 New state     71 was old state     73
 New state     73 was old state     68
 New state     75 was old state     77
 New state     76 was old state     78
 New state     77 was old state     75
 New state     78 was old state     76
 New state     79 was old state     80
 New state     80 was old state     81
 New state     81 was old state     82
 New state     82 was old state     83
 New state     83 was old state     79
 New state     87 was old state     90
 New state     88 was old state     93
 New state     89 was old state     92
 New state     90 was old state     91
 New state     91 was old state     88
 New state     92 was old state     95
 New state     93 was old state     94
 New state     94 was old state     89
 New state     95 was old state     97
 New state     97 was old state     99
 New state     98 was old state     87
 New state     99 was old state     98
 New state    100 was old state    102
 New state    102 was old state    106
 New state    103 was old state    107
 New state    104 was old state    103
 New state    105 was old state    100
 New state    106 was old state    105
 New state    107 was old state    108
 New state    108 was old state    112
 New state    109 was old state    104
 New state    110 was old state    109
 New state    112 was old state    110
 New state    114 was old state    117
 New state    115 was old state    114
 New state    116 was old state    118
 New state    117 was old state    122
 New state    118 was old state    119
 New state    119 was old state    121
 New state    121 was old state    123
 New state    122 was old state    116
 New state    123 was old state    115
 New state    126 was old state    127
 New state    127 was old state    128
 New state    128 was old state    131
 New state    129 was old state    126
 New state    130 was old state    134
 New state    131 was old state    135
 New state    132 was old state    129
 New state    133 was old state    130
 New state    134 was old state    139
 New state    135 was old state    136
 New state    136 was old state    140
 New state    137 was old state    138
 New state    138 was old state    137
 New state    139 was old state    144
 New state    140 was old state    141
 New state    141 was old state    142
 New state    142 was old state    143
 New state    143 was old state    146
 New state    144 was old state    145
 New state    145 was old state    149
 New state    146 was old state    151
 New state    147 was old state    150
 New state    149 was old state    147
 New state    150 was old state    152
 New state    151 was old state    153
 New state    152 was old state    154
 New state    153 was old state    156
 New state    154 was old state    155
 New state    155 was old state    158
 New state    156 was old state    159
 New state    157 was old state    161
 New state    158 was old state    157
 New state    159 was old state    164
 New state    161 was old state    162
 New state    162 was old state    163
 New state    163 was old state    166
 New state    164 was old state    165
 New state    165 was old state    167
 New state    166 was old state    174
 New state    167 was old state    169
 New state    169 was old state    171
 New state    170 was old state    178
 New state    171 was old state    170
 New state    172 was old state    173
 New state    173 was old state    172
 New state    174 was old state    175
 New state    175 was old state    177
 New state    176 was old state    179
 New state    177 was old state    176
 New state    178 was old state    180
 New state    179 was old state    183
 New state    180 was old state    182
 New state    182 was old state    184
 New state    183 was old state    191
 New state    184 was old state    188
 New state    185 was old state    186
 New state    186 was old state    185
 New state    187 was old state    189
 New state    188 was old state    192
 New state    189 was old state    187
 New state    191 was old state    199
 New state    192 was old state    194
 New state    194 was old state    201
 New state    199 was old state    200
 New state    200 was old state    213
 New state    201 was old state    205
 New state    202 was old state    203
 New state    203 was old state    202
 New state    205 was old state    206
 New state    206 was old state    211
 New state    207 was old state    208
 New state    208 was old state    209
 New state    209 was old state    207
 New state    211 was old state    212
 New state    212 was old state    222
 New state    213 was old state    214
 New state    214 was old state    215
 New state    215 was old state    216
 New state    216 was old state    217
 New state    217 was old state    224
 New state    218 was old state    220
 New state    219 was old state    218
 New state    220 was old state    221
 New state    221 was old state    225
 New state    222 was old state    219
 New state    223 was old state    226
 New state    224 was old state    223
 New state    225 was old state    227
 New state    226 was old state    228
 New state    227 was old state    230
 New state    228 was old state    231
 New state    230 was old state    232
 New state    231 was old state    236
 New state    232 was old state    233
 New state    233 was old state    234
 New state    234 was old state    235
 New state    235 was old state    237
 New state    236 was old state    238
 New state    237 was old state    240
 New state    238 was old state    241
 New state    239 was old state    242
 New state    240 was old state    239
 New state    241 was old state    251
 New state    242 was old state    250
 New state    244 was old state    245
 New state    245 was old state    244
 New state    246 was old state    247
 New state    247 was old state    246
 New state    250 was old state    252
 New state    251 was old state    253
 No map to state    252
 New state    253 was old state    254
 New state    254 was old state    256
 New state    256 was old state    257
 New state    257 was old state    258
 New state    258 was old state    259
 New state    259 was old state    260
 New state    260 was old state    261
 New state    261 was old state    263
 New state    263 was old state    264
 New state    264 was old state    265
 New state    265 was old state    271
 New state    267 was old state    269
 New state    269 was old state    270
 New state    270 was old state    273
 New state    271 was old state    272
 New state    272 was old state    274
 New state    273 was old state    276
 New state    274 was old state    267
 New state    276 was old state    277
 New state    277 was old state    280
 New state    280 was old state    284
 New state    284 was old state    285
 New state    285 was old state    287
 New state    287 was old state    288
 New state    288 was old state    289
 New state    289 was old state    291
 New state    291 was old state    293
 New state    292 was old state    295
 New state    293 was old state    294
 New state    294 was old state    292
 New state    295 was old state    297
 New state    297 was old state    298
 New state    298 was old state    300
 New state    300 was old state    301
 New state    301 was old state    302
 New state    302 was old state    305
 New state    305 was old state    306
 New state    306 was old state    307
 New state    307 was old state    310
 New state    310 was old state    311
 New state    311 was old state    312
 New state    312 was old state    313
 New state    313 was old state    314
 New state    314 was old state    315
 New state    315 was old state    316
 New state    316 was old state    317
 New state    317 was old state    319
 New state    319 was old state    320
 New state    320 was old state    327
 New state    322 was old state    324
 New state    323 was old state    322
 New state    324 was old state    323
 New state    325 was old state    326
 New state    326 was old state    325
 New state    327 was old state    328
 New state    328 was old state    329
 New state    329 was old state    331
 New state    330 was old state    332
 New state    331 was old state    330
 New state    332 was old state    333
 No map to state    333
 New state    338 was old state    339
 New state    339 was old state    338
 New state    342 was old state    343
 New state    343 was old state    342
 New state    346 was old state    347
 New state    347 was old state    349
 New state    348 was old state    346
 New state    349 was old state    348
 New state    354 was old state    357
 New state    355 was old state    354
 New state    357 was old state    355
 New state    362 was old state    363
 New state    363 was old state    362
 New state    365 was old state    367
 New state    366 was old state    365
 New state    367 was old state    369
 New state    368 was old state    371
 New state    369 was old state    368
 New state    370 was old state    366
 New state    371 was old state    372
 New state    372 was old state    373
 New state    373 was old state    375
 New state    375 was old state    370
 New state    379 was old state    381
 New state    380 was old state    379
 New state    381 was old state    380
 New state    393 was old state    395
 New state    394 was old state    393
 New state    395 was old state    394
 New state    396 was old state    398
 New state    397 was old state    396
 New state    398 was old state    399
 New state    399 was old state    397
 New state    402 was old state    403
 New state    403 was old state    402
 New state    405 was old state    407
 New state    406 was old state    405
 New state    407 was old state    406
 New state    408 was old state    409
 New state    409 was old state    408
 New state    415 was old state    416
 New state    416 was old state    415
 New state    417 was old state    419
 New state    418 was old state    417
 New state    419 was old state    418
 New state    429 was old state    431
 New state    431 was old state    429
 New state    436 was old state    437
 New state    437 was old state    436
 New state    439 was old state    440
 New state    440 was old state    439
 New state    445 was old state    446
 New state    446 was old state    449
 New state    447 was old state    448
 New state    448 was old state    447
 New state    449 was old state    450
 New state    450 was old state    445
 New state    458 was old state    459
 New state    459 was old state    460
 New state    460 was old state    458
 New state    473 was old state    474
 New state    474 was old state    473
 New state    481 was old state    482
 New state    482 was old state    481
 Excitation Energies [eV] at current iteration:
 Root      1 :     5.522119048034199
 Root      2 :     6.507322910815409
 Root      3 :     7.276764247749537
 Root      4 :     7.787511827645757
 Root      5 :     8.200116718223594
 Root      6 :     8.843728617340622
 Root      7 :     8.988647307018983
 Root      8 :     9.000739172628446
 Root      9 :     9.415351837510753
 Root     10 :    10.005860027458830
 Root     11 :    10.022336431727920
 Root     12 :    10.464030124112060
 Root     13 :    10.713485204066330
 Root     14 :    10.736500720102740
 Root     15 :    10.881361926560830
 Root     16 :    11.001832817270810
 Root     17 :    11.132215444659250
 Root     18 :    11.257274705973880
 Root     19 :    11.699923606731860
 Root     20 :    11.870428497155660
 Root     21 :    11.997789996866340
 Root     22 :    12.109614950194570
 Root     23 :    12.195854061738670
 Root     24 :    12.317814153243670
 Root     25 :    12.376950603244340
 Root     26 :    12.473547766640260
 Root     27 :    12.497323180938090
 Root     28 :    12.654959852940550
 Root     29 :    12.715524063572860
 Root     30 :    12.846234013319440
 Root     31 :    12.947908988185610
 Root     32 :    13.052846407643420
 Root     33 :    13.260498180926370
 Root     34 :    13.287306974618870
 Root     35 :    13.526513409365780
 Root     36 :    13.606739192488580
 Root     37 :    13.647302612148290
 Root     38 :    13.720549859210360
 Root     39 :    13.858048473422620
 Root     40 :    13.875792545453830
 Root     41 :    14.222555557706040
 Root     42 :    14.262197696988950
 Root     43 :    14.285848137973580
 Root     44 :    14.377598574021850
 Root     45 :    14.545090089968970
 Root     46 :    14.545904388624710
 Root     47 :    14.688585516315680
 Root     48 :    14.690265386063770
 Root     49 :    14.838788531889340
 Root     50 :    14.871002560992520
 Root     51 :    14.947275221588770
 Root     52 :    14.999729107923460
 Root     53 :    15.056578082209080
 Root     54 :    15.148942244570330
 Root     55 :    15.228609868085090
 Root     56 :    15.301737240329740
 Root     57 :    15.423611422054170
 Root     58 :    15.667475823571610
 Root     59 :    15.712363803310580
 Root     60 :    15.742306385780480
 Root     61 :    15.831120193071880
 Root     62 :    15.936766039043050
 Root     63 :    16.030919088265390
 Root     64 :    16.036405948361180
 Root     65 :    16.106897332575950
 Root     66 :    16.281355004665870
 Root     67 :    16.333504792823670
 Root     68 :    16.392971590858110
 Root     69 :    16.593344370955350
 Root     70 :    16.661175421419370
 Root     71 :    16.767142642729830
 Root     72 :    16.875715496406510
 Root     73 :    16.889243043420810
 Root     74 :    17.038479164617840
 Root     75 :    17.270809389360610
 Root     76 :    17.283350932826300
 Root     77 :    17.319261420336740
 Root     78 :    17.420049726400400
 Root     79 :    17.562050649059720
 Root     80 :    17.613311112221390
 Root     81 :    17.655168982461430
 Root     82 :    17.709660197630040
 Root     83 :    17.815763379633320
 Root     84 :    17.843352899250040
 Root     85 :    18.001251620184720
 Root     86 :    18.040959245495070
 Root     87 :    18.216264227805470
 Root     88 :    18.276451151891430
 Root     89 :    18.356981932168160
 Root     90 :    18.403832201738530
 Root     91 :    18.446855515602370
 Root     92 :    18.503167880944800
 Root     93 :    18.664912429490950
 Root     94 :    18.681957602393440
 Root     95 :    18.692405331634020
 Root     96 :    18.764096655149330
 Root     97 :    18.939911041495070
 Root     98 :    19.028710574352200
 Root     99 :    19.067514466314420
 Root    100 :    19.198795506642770
 Root    101 :    19.219757531743870
 Root    102 :    19.455365608471890
 Root    103 :    19.468779891827680
 Root    104 :    19.519867509740010
 Root    105 :    19.542216211828120
 Root    106 :    19.556637031428080
 Root    107 :    19.615479744509250
 Root    108 :    19.704294196794460
 Root    109 :    19.745088480887410
 Root    110 :    19.746413041177840
 Root    111 :    19.836708544789680
 Root    112 :    19.899810583357540
 Root    113 :    20.160150014074310
 Root    114 :    20.226663623932630
 Root    115 :    20.273184366409220
 Root    116 :    20.336719979879640
 Root    117 :    20.472702721763930
 Root    118 :    20.487093410645370
 Root    119 :    20.602805217335320
 Root    120 :    20.618618350916300
 Root    121 :    20.681996425643190
 Root    122 :    20.744269436309870
 Root    123 :    20.807901806905710
 Root    124 :    20.943918601625390
 Root    125 :    21.007638532770530
 Root    126 :    21.293085212282190
 Root    127 :    21.429389929256910
 Root    128 :    21.467842005438560
 Root    129 :    21.477165568468540
 Root    130 :    21.484977272314680
 Root    131 :    21.535713769153980
 Root    132 :    21.550165408657090
 Root    133 :    21.558308499463100
 Root    134 :    21.727952166511230
 Root    135 :    21.731397737401970
 Root    136 :    21.822276869949960
 Root    137 :    21.875108487147740
 Root    138 :    22.002858467323060
 Root    139 :    22.096171212365670
 Root    140 :    22.203399696357000
 Root    141 :    22.334372220416360
 Root    142 :    22.428693285267500
 Root    143 :    22.513649763792740
 Root    144 :    22.583026235308080
 Root    145 :    22.634626847810620
 Root    146 :    22.750193768168020
 Root    147 :    22.756629286485590
 Root    148 :    22.776908028010230
 Root    149 :    22.839412972102340
 Root    150 :    22.969560242473590
 Root    151 :    23.067074396365440
 Root    152 :    23.184578529974760
 Root    153 :    23.255580533281180
 Root    154 :    23.334584354392900
 Root    155 :    23.427183073781390
 Root    156 :    23.648164965534370
 Root    157 :    23.696936942009770
 Root    158 :    23.711717740253730
 Root    159 :    23.927799618128210
 Root    160 :    23.937320934144250
 Root    161 :    24.035298015143160
 Root    162 :    24.057588233224150
 Root    163 :    24.407768223786480
 Root    164 :    24.516545283495230
 Root    165 :    24.587939448783930
 Root    166 :    24.697934619031610
 Root    167 :    24.733768003790210
 Root    168 :    24.789834802064750
 Root    169 :    24.991606362999300
 Root    170 :    25.098116130593040
 Root    171 :    25.180742427166450
 Root    172 :    25.194033704074110
 Root    173 :    25.290952995625220
 Root    174 :    25.340991206049580
 Root    175 :    25.580971227795010
 Root    176 :    25.674464061609090
 Root    177 :    25.687539992806990
 Root    178 :    25.780529523667700
 Root    179 :    25.865097451811780
 Root    180 :    25.888589407189040
 Root    181 :    25.927452840676520
 Root    182 :    26.028605132342170
 Root    183 :    26.041693965125640
 Root    184 :    26.261073344407270
 Root    185 :    26.445198734422950
 Root    186 :    26.558370902619210
 Root    187 :    26.743644254398150
 Root    188 :    26.786335889324360
 Root    189 :    26.823740002154990
 Root    190 :    26.904560567449530
 Root    191 :    27.007638088847190
 Root    192 :    27.082999207889650
 Root    193 :    27.114687325950590
 Root    194 :    27.259157874619650
 Root    195 :    27.503365704771860
 Root    196 :    27.587223858524720
 Root    197 :    27.677505257037650
 Root    198 :    27.861981956822860
 Root    199 :    28.053626031051270
 Root    200 :    28.156278848028790
 Root    201 :    28.436686501137860
 Root    202 :    28.493024514208780
 Root    203 :    28.618073628833010
 Root    204 :    28.726805960398610
 Root    205 :    28.847870814452030
 Root    206 :    28.887255375864240
 Root    207 :    28.981599093218850
 Root    208 :    29.008429672454060
 Root    209 :    29.106450845870500
 Root    210 :    29.330658453484150
 Root    211 :    29.446229197810680
 Root    212 :    29.827880595995070
 Root    213 :    30.217228920152090
 Root    214 :    30.433095149896640
 Root    215 :    30.540035868560550
 Root    216 :    30.657164229291410
 Root    217 :    30.889968461366190
 Root    218 :    31.042665084665740
 Root    219 :    31.131313108586160
 Root    220 :    31.181623659674840
 Root    221 :    31.370982675910220
 Root    222 :    31.442664996674350
 Root    223 :    31.480871179810350
 Root    224 :    31.911471930220310
 Root    225 :    31.925218530278620
 Root    226 :    32.177593077727560
 Root    227 :    32.243489145241950
 Root    228 :    32.347318105364150
 Root    229 :    32.368147739437500
 Root    230 :    32.470227589698550
 Root    231 :    32.748791670402480
 Root    232 :    32.849063304677160
 Root    233 :    32.913330949888830
 Root    234 :    32.990818714249460
 Root    235 :    33.215351416103230
 Root    236 :    33.432340228863840
 Root    237 :    33.547731896248240
 Root    238 :    33.649021867647750
 Root    239 :    33.692613356775520
 Root    240 :    33.833055629842010
 Root    241 :    33.925472305539180
 Root    242 :    34.135491829171290
 Root    243 :    34.193958556094540
 Root    244 :    34.308819297858460
 Root    245 :    34.395144091147930
 Root    246 :    34.481289719595310
 Root    247 :    34.596898120111490
 Root    248 :    34.766649853749860
 Root    249 :    35.310715681278900
 Root    250 :    35.313029583542610
 Root    251 :    35.557563282155610
 Root    252 :    35.906601407873110
 Root    253 :    35.998138648625390
 Root    254 :    36.170383428655500
 Root    255 :    36.177408242425910
 Root    256 :    36.386108494676070
 Root    257 :    36.647728264945630
 Root    258 :    36.711243973516540
 Root    259 :    36.952161937711170
 Root    260 :    37.222846280304640
 Root    261 :    37.409011183711160
 Root    262 :    37.457893998430830
 Root    263 :    37.593408696443160
 Root    264 :    37.672438729668980
 Root    265 :    37.726404028530490
 Root    266 :    38.031127506107530
 Root    267 :    38.182918981018140
 Root    268 :    38.429081561998050
 Root    269 :    38.514949286257120
 Root    270 :    38.581067343856300
 Root    271 :    38.771239809002270
 Root    272 :    39.162795417863410
 Root    273 :    39.897697548260500
 Root    274 :    40.090626447771070
 Root    275 :    40.120568322500120
 Root    276 :    40.442101666375390
 Root    277 :    40.753248975094510
 Root    278 :    41.377417174243190
 Root    279 :    41.440956981403450
 Root    280 :    41.912412065369280
 Root    281 :    41.953092337962960
 Root    282 :    42.119897604430050
 Root    283 :    42.179942776058930
 Root    284 :    42.348380289421850
 Root    285 :    42.884458844334740
 Root    286 :    42.917361429713750
 Root    287 :    43.098386393407640
 Root    288 :    43.447111780669930
 Root    289 :    43.545662388380050
 Root    290 :    44.105785586248190
 Root    291 :    44.667612129700150
 Root    292 :    45.135550749039370
 Root    293 :    45.403278496756510
 Root    294 :    45.404821196607430
 Root    295 :    45.601829871618270
 Root    296 :    45.735209417133790
 Root    297 :    45.778922987218390
 Root    298 :    45.946625377040190
 Root    299 :    46.267939900098790
 Root    300 :    46.529790181978060
 Root    301 :    46.708233522830060
 Root    302 :    46.896086829189920
 Root    303 :    47.253671144134220
 Root    304 :    47.532019514345100
 Root    305 :    47.637476326362280
 Root    306 :    48.300152643048980
 Root    307 :    48.396528428738120
 Root    308 :    48.619434798682810
 Root    309 :    48.840828393283990
 Root    310 :    48.841661814780720
 Root    311 :    49.164034682158970
 Root    312 :    49.274578050845160
 Root    313 :    49.467380498379330
 Root    314 :    50.075283883190290
 Root    315 :    50.109901379375370
 Root    316 :    50.313421706905930
 Root    317 :    50.811519514347280
 Root    318 :    51.177268579426470
 Root    319 :    51.240886999376550
 Root    320 :    51.667246541085040
 Root    321 :    51.933210644516740
 Root    322 :    52.208417046311940
 Root    323 :    52.495868396500160
 Root    324 :    52.538972147309020
 Root    325 :    52.943234491185760
 Root    326 :    52.984398543987660
 Root    327 :    53.263284211486240
 Root    328 :    53.382217708004620
 Root    329 :    53.738282920167820
 Root    330 :    53.780110110366950
 Root    331 :    53.936515070670030
 Root    332 :    54.330350510895380
 Root    333 :    54.467130618696170
 Root    334 :    54.744758981849340
 Root    335 :    54.837562000733430
 Root    336 :    55.555144386879260
 Root    337 :    55.992369853168610
 Root    338 :    56.466084954438360
 Root    339 :    56.469916884694390
 Root    340 :    56.533118125370510
 Root    341 :    56.815522303911140
 Root    342 :    57.325004265931890
 Root    343 :    57.466387337474920
 Root    344 :    57.691700998834510
 Root    345 :    57.885990365567600
 Root    346 :    58.407965002652690
 Root    347 :    58.495125231720910
 Root    348 :    58.523794700510760
 Root    349 :    58.541559526487960
 Root    350 :    59.106176148884190
 Root    351 :    59.145963512577490
 Root    352 :    59.363178114442330
 Root    353 :    59.710516037496630
 Root    354 :    59.891172348923090
 Root    355 :    59.934748018341690
 Root    356 :    60.067715574840280
 Root    357 :    60.117961884335830
 Root    358 :    60.291536952633220
 Root    359 :    60.881129337485650
 Root    360 :    60.926217392403370
 Root    361 :    61.239611216471790
 Root    362 :    61.280527076421360
 Root    363 :    61.409138255141580
 Root    364 :    61.580412046946830
 Root    365 :    62.226537544084810
 Root    366 :    62.403809639690460
 Root    367 :    62.687563239993130
 Root    368 :    62.759900880667240
 Root    369 :    62.922031707464000
 Root    370 :    62.992365900878960
 Root    371 :    63.074053344195380
 Root    372 :    63.149696034429800
 Root    373 :    63.178009418683300
 Root    374 :    63.410289249689890
 Root    375 :    63.429782241745950
 Root    376 :    63.756772162905310
 Root    377 :    64.177410863273790
 Root    378 :    64.553747208297570
 Root    379 :    64.762027715869240
 Root    380 :    64.827965856635540
 Root    381 :    64.970301346275050
 Root    382 :    65.163824540858270
 Root    383 :    65.439623077676020
 Root    384 :    65.598993708258760
 Root    385 :    65.753970991472630
 Root    386 :    65.754432131195640
 Root    387 :    65.909363620092860
 Root    388 :    65.993451524103560
 Root    389 :    66.385400964948490
 Root    390 :    66.543036143211740
 Root    391 :    66.700165635659730
 Root    392 :    66.818732249042750
 Root    393 :    67.279439582805740
 Root    394 :    67.403597680433650
 Root    395 :    67.508003563524890
 Root    396 :    67.928136774596420
 Root    397 :    67.986997052505840
 Root    398 :    68.410040130239030
 Root    399 :    68.568309648660760
 Root    400 :    68.581855063202680
 Root    401 :    69.066786819558740
 Root    402 :    69.938248695671820
 Root    403 :    70.035471026638290
 Root    404 :    70.151066502718710
 Root    405 :    70.380799018769650
 Root    406 :    70.527821667417070
 Root    407 :    70.679398826745470
 Root    408 :    71.051411140396300
 Root    409 :    71.230139986062880
 Root    410 :    71.337067159608740
 Root    411 :    71.953853969516700
 Root    412 :    72.022634825391660
 Root    413 :    72.385798359479680
 Root    414 :    72.608355461255400
 Root    415 :    73.022862519972050
 Root    416 :    73.067145081902480
 Root    417 :    73.559261599229740
 Root    418 :    73.630577671027380
 Root    419 :    73.660383024493800
 Root    420 :    74.006809320432340
 Root    421 :    74.768115148621040
 Root    422 :    74.834520955822030
 Root    423 :    75.451136155233040
 Root    424 :    75.872396143872250
 Root    425 :    76.080037733631330
 Root    426 :    76.329169092196880
 Root    427 :    77.034458601854610
 Root    428 :    77.263323964152890
 Root    429 :    77.534833724372620
 Root    430 :    77.586160061115070
 Root    431 :    77.698417197857520
 Root    432 :    78.145486831705800
 Root    433 :    78.726302370679790
 Root    434 :    78.992164611966460
 Root    435 :    79.343297440121900
 Root    436 :    80.279431681157760
 Root    437 :    80.348033837785310
 Root    438 :    80.718964829060230
 Root    439 :    81.072349407125830
 Root    440 :    81.205223895442730
 Root    441 :    81.776703495853610
 Root    442 :    82.076067396456240
 Root    443 :    82.836114520226890
 Root    444 :    83.465389229861960
 Root    445 :    83.992026909866440
 Root    446 :    84.196050305589680
 Root    447 :    84.284047469125450
 Root    448 :    84.528533222882470
 Root    449 :    84.603191994958250
 Root    450 :    84.910384331057020
 Root    451 :    85.341589243701430
 Root    452 :    86.094475552718900
 Root    453 :    86.285000381019690
 Root    454 :    86.730299043615130
 Root    455 :    87.081870372093590
 Root    456 :    87.372583036612870
 Root    457 :    87.522377979418290
 Root    458 :    87.741292501135050
 Root    459 :    87.977621692662150
 Root    460 :    88.299432161354550
 Root    461 :    88.573876475354680
 Root    462 :    89.738992426110340
 Root    463 :    89.970242756164750
 Root    464 :    90.621310242847630
 Root    465 :    90.924499681203590
 Root    466 :    91.034841090341770
 Root    467 :    91.169436578061190
 Root    468 :    91.576873942526250
 Root    469 :    91.846114267636810
 Root    470 :    92.307767291176650
 Root    471 :    92.812808970649190
 Root    472 :    93.282472496444140
 Root    473 :    93.636189410147950
 Root    474 :    93.888569854285480
 Root    475 :    94.294505201959110
 Root    476 :    94.459068361857930
 Root    477 :    94.876025482470140
 Root    478 :    96.547844987707150
 Root    479 :    97.006717795711910
 Root    480 :    97.294566387070570
 Root    481 :    98.113894986493950
 Root    482 :    98.160407152622180
 Root    483 :    98.513005946038230
 Root    484 :    99.300806341660010
 Root    485 :   100.002350213228900
 Root    486 :   100.534633452911100
 Root    487 :   100.681051260080400
 Root    488 :   103.649209801599100
 Root    489 :   103.687526075187400
 Root    490 :   104.060626457557400
 Root    491 :   104.378576662849400
 Root    492 :   104.494325656910000
 Root    493 :   105.763576103908300
 Root    494 :   107.187661910013400
 Root    495 :   110.033078742534800
 Root    496 :   110.827759156337200
 Root    497 :   116.447668639067000
 Convergence achieved for final wavefunctions.
 ***********************************************************************
 Excited states from <AA,BB:AA,BB> singles matrix:
 ***********************************************************************
 
 1PDM for each excited state written to RWF  633
 Ground to excited state transition densities written to RWF  633
 Ground to excited state transition electric dipole moments (Au):
       state          X           Y           Z        Dip. S.      Osc.
         1         0.1547     -0.0759      0.0000      0.0297      0.0040
         2         0.4580      0.1422     -0.0000      0.2300      0.0367
         3        -0.0000      0.0000      0.1918      0.0368      0.0066
         4         0.2238      0.5975     -0.0000      0.4071      0.0777
         5         0.0000     -0.0000      0.0582      0.0034      0.0007
         6         0.1310      0.0347      0.0000      0.0184      0.0040
         7         0.0952      0.2443      0.0000      0.0688      0.0151
         8         0.0000     -0.0000     -0.1650      0.0272      0.0060
         9         0.0000     -0.0000      0.0530      0.0028      0.0006
        10        -0.0000      0.0000      0.5473      0.2995      0.0734
        11        -0.4039     -0.1625      0.0000      0.1895      0.0465
        12        -0.0997      0.0774      0.0000      0.0159      0.0041
        13        -0.0704      0.2413     -0.0000      0.0632      0.0166
        14        -0.0000     -0.0000      0.2141      0.0458      0.0121
        15         0.0991     -0.2682     -0.0000      0.0817      0.0218
        16         0.2368     -0.5282      0.0000      0.3351      0.0903
        17        -0.5678      0.2814      0.0000      0.4015      0.1095
        18         0.0000     -0.0000     -0.2708      0.0733      0.0202
        19         0.0000      0.0000      0.2134      0.0455      0.0131
        20        -0.0325      0.0540      0.0000      0.0040      0.0012
        21        -0.0790      0.6955     -0.0000      0.4900      0.1440
        22         0.7196      0.3032     -0.0000      0.6098      0.1809
        23         0.0000     -0.0000      0.1648      0.0271      0.0081
        24        -0.0000      0.0000      0.4882      0.2383      0.0719
        25         0.0000     -0.0000      0.3186      0.1015      0.0308
        26        -0.0000     -0.0000     -0.2264      0.0513      0.0157
        27        -0.1671      0.2709     -0.0000      0.1013      0.0310
        28        -0.0851      0.8151     -0.0000      0.6717      0.2082
        29         0.0000      0.0000      0.0811      0.0066      0.0021
        30        -0.0000      0.0000     -0.7961      0.6338      0.1995
        31         0.0084     -0.0466      0.0000      0.0022      0.0007
        32        -0.0358     -0.1022      0.0000      0.0117      0.0037
        33         0.0000     -0.0000      0.2187      0.0478      0.0155
        34        -0.2932     -0.0704      0.0000      0.0909      0.0296
        35         0.0815      0.2417     -0.0000      0.0651      0.0216
        36        -0.0000     -0.0000     -0.0806      0.0065      0.0022
        37        -0.0000     -0.0000     -0.1766      0.0312      0.0104
        38        -0.6709     -0.2342      0.0000      0.5050      0.1697
        39        -0.3205     -0.0366      0.0000      0.1041      0.0353
        40         0.0000     -0.0000     -0.0205      0.0004      0.0001
        41         0.0000      0.0000      0.0521      0.0027      0.0009
        42         0.1003      0.1909      0.0000      0.0465      0.0162
        43         0.0000      0.0000     -0.5873      0.3449      0.1207
        44         0.0129     -0.1223     -0.0000      0.0151      0.0053
        45        -0.3902      0.1604     -0.0000      0.1780      0.0634
        46         0.0000     -0.0000      0.6721      0.4517      0.1610
        47         0.0000     -0.0000      0.2420      0.0585      0.0211
        48         0.1293     -0.8227     -0.0000      0.6935      0.2496
        49        -0.0450     -0.1702      0.0000      0.0310      0.0113
        50        -0.0000      0.0000      0.3704      0.1372      0.0500
        51         0.0000      0.0000     -0.0742      0.0055      0.0020
        52        -0.2974      0.2686     -0.0000      0.1605      0.0590
        53         0.1081     -0.3902      0.0000      0.1639      0.0605
        54        -0.1833     -0.0594     -0.0000      0.0371      0.0138
        55         0.7683     -0.3432      0.0000      0.7081      0.2642
        56        -0.0000     -0.0000      0.2201      0.0485      0.0182
        57        -0.0000     -0.0000     -0.1172      0.0137      0.0052
        58         0.0000     -0.0000     -0.2158      0.0466      0.0179
        59         0.3592      0.2483     -0.0000      0.1906      0.0734
        60        -0.4584     -0.0317     -0.0000      0.2111      0.0814
        61         0.0000     -0.0000     -0.6292      0.3958      0.1535
        62         0.0000      0.0000      0.1918      0.0368      0.0144
        63        -0.0000     -0.0000     -0.0576      0.0033      0.0013
        64         0.1339     -0.1642      0.0000      0.0449      0.0176
        65         0.1034      0.4212     -0.0000      0.1881      0.0742
        66        -0.2324     -0.3606      0.0000      0.1840      0.0734
        67         0.0000     -0.0000     -0.5192      0.2696      0.1079
        68         0.1443      0.4715     -0.0000      0.2432      0.0977
        69         0.0000     -0.0000      0.5009      0.2509      0.1020
        70         0.0000     -0.0000      0.1463      0.0214      0.0087
        71         0.2081      0.1947      0.0000      0.0812      0.0334
        72         0.0000     -0.0000     -0.1040      0.0108      0.0045
        73        -0.1389     -0.1279      0.0000      0.0357      0.0148
        74        -0.1819      0.1921      0.0000      0.0700      0.0292
        75         0.0000     -0.0000      0.1468      0.0216      0.0091
        76         0.0288     -0.0544      0.0000      0.0038      0.0016
        77         0.0616      0.1278      0.0000      0.0201      0.0085
        78         0.0000     -0.0000     -0.2543      0.0647      0.0276
        79         0.1766     -0.1025     -0.0000      0.0417      0.0179
        80        -0.0358      0.1262     -0.0000      0.0172      0.0074
        81         0.0000      0.0000      0.1578      0.0249      0.0108
        82         0.1405     -0.0673     -0.0000      0.0243      0.0105
        83         0.4382     -0.3232      0.0000      0.2965      0.1294
        84        -0.0000     -0.0000      0.0257      0.0007      0.0003
        85         0.2040      0.0768      0.0000      0.0475      0.0209
        86        -0.0000      0.0000     -0.0464      0.0022      0.0010
        87        -0.1403     -0.2355      0.0000      0.0751      0.0335
        88        -0.0000      0.0000      0.0939      0.0088      0.0039
        89        -0.1072     -0.0103     -0.0000      0.0116      0.0052
        90         0.0000     -0.0000      0.1257      0.0158      0.0071
        91         0.1528     -0.3747     -0.0000      0.1638      0.0740
        92         0.0000     -0.0000      0.2146      0.0461      0.0209
        93        -0.0383     -0.5116     -0.0000      0.2632      0.1203
        94         0.4581      0.3018     -0.0000      0.3009      0.1377
        95         0.0000     -0.0000     -0.1786      0.0319      0.0146
        96         0.0000     -0.0000     -0.3057      0.0935      0.0430
        97         0.3130     -0.1827      0.0000      0.1314      0.0610
        98         0.0464      0.4363      0.0000      0.1925      0.0897
        99        -0.0000      0.0000      0.2005      0.0402      0.0188
       100        -0.0000      0.0000      0.1651      0.0272      0.0128
       101         0.0000      0.0000     -0.1028      0.0106      0.0050
       102         0.0000     -0.0000      0.2552      0.0651      0.0310
       103        -0.0223     -0.1838      0.0000      0.0343      0.0164
       104         0.3080     -0.4112      0.0000      0.2640      0.1262
       105        -0.0000      0.0000      0.2052      0.0421      0.0202
       106         0.1414      0.1729      0.0000      0.0499      0.0239
       107         0.1148     -0.3544      0.0000      0.1388      0.0667
       108        -0.0000      0.0000     -0.2167      0.0470      0.0227
       109         0.1091     -0.1309     -0.0000      0.0290      0.0140
       110         0.0000     -0.0000     -0.3388      0.1148      0.0555
       111         0.0515      0.3384      0.0000      0.1171      0.0569
       112         0.1557      0.3350      0.0000      0.1364      0.0665
       113        -0.0000     -0.0000     -0.1259      0.0159      0.0078
       114         0.0000      0.0000     -0.1192      0.0142      0.0070
       115        -0.0000     -0.0000      0.2506      0.0628      0.0312
       116         0.0000     -0.0000     -0.0090      0.0001      0.0000
       117         0.0000     -0.0000      0.0180      0.0003      0.0002
       118        -0.1364      0.0430     -0.0000      0.0204      0.0103
       119        -0.0000      0.0000     -0.1248      0.0156      0.0079
       120        -0.2246     -0.1617      0.0000      0.0766      0.0387
       121         0.0000      0.0000      0.3492      0.1219      0.0618
       122         0.1810     -0.0408      0.0000      0.0344      0.0175
       123         0.0000     -0.0000     -0.5425      0.2944      0.1501
       124        -0.2215     -0.0233     -0.0000      0.0496      0.0254
       125        -0.0423     -0.0819      0.0000      0.0085      0.0044
       126         0.0161     -0.0679      0.0000      0.0049      0.0025
       127        -0.0448     -0.2368      0.0000      0.0581      0.0305
       128         0.0000     -0.0000     -0.0147      0.0002      0.0001
       129         0.0330     -0.0054     -0.0000      0.0011      0.0006
       130         0.0000     -0.0000      0.0311      0.0010      0.0005
       131        -0.1672      0.1443      0.0000      0.0488      0.0257
       132        -0.1546      0.0395     -0.0000      0.0254      0.0134
       133        -0.0000     -0.0000      0.0580      0.0034      0.0018
       134         0.0974     -0.0553      0.0000      0.0125      0.0067
       135         0.0000      0.0000     -0.3559      0.1266      0.0674
       136         0.0231     -0.1385     -0.0000      0.0197      0.0105
       137        -0.0000      0.0000      0.2254      0.0508      0.0272
       138         0.1107     -0.0362      0.0000      0.0136      0.0073
       139         0.0799     -0.3423     -0.0000      0.1236      0.0669
       140         0.0000      0.0000      0.3544      0.1256      0.0683
       141         0.1623      0.0004     -0.0000      0.0263      0.0144
       142        -0.0000     -0.0000     -0.4900      0.2401      0.1319
       143         0.1643     -0.0440      0.0000      0.0289      0.0160
       144        -0.0858     -0.6223     -0.0000      0.3946      0.2183
       145        -0.3834      0.3303     -0.0000      0.2561      0.1420
       146        -0.0486      0.2847     -0.0000      0.0834      0.0465
       147        -0.0000      0.0000      0.0518      0.0027      0.0015
       148        -0.0000     -0.0000     -0.1758      0.0309      0.0172
       149        -0.2204      0.3097      0.0000      0.1445      0.0808
       150         0.0000      0.0000      0.0296      0.0009      0.0005
       151         0.5974      0.0142      0.0000      0.3571      0.2018
       152         0.0000     -0.0000      0.1245      0.0155      0.0088
       153        -0.0498     -0.1467     -0.0000      0.0240      0.0137
       154         0.0000     -0.0000     -0.0845      0.0071      0.0041
       155        -0.3081      0.1357     -0.0000      0.1134      0.0651
       156        -0.0000      0.0000      0.0214      0.0005      0.0003
       157        -0.0741      0.1599      0.0000      0.0311      0.0180
       158         0.0000     -0.0000     -0.3169      0.1004      0.0583
       159        -0.2380     -0.4558     -0.0000      0.2644      0.1550
       160         0.0000      0.0000     -0.2921      0.0854      0.0501
       161         0.2159     -0.0218     -0.0000      0.0471      0.0277
       162        -0.0000     -0.0000      0.0563      0.0032      0.0019
       163         0.3522      0.1142     -0.0000      0.1371      0.0820
       164        -0.0000      0.0000     -0.0811      0.0066      0.0040
       165        -0.3036      0.1899      0.0000      0.1282      0.0772
       166         0.4026      0.1323      0.0000      0.1796      0.1087
       167        -0.0000     -0.0000      0.0863      0.0075      0.0045
       168         0.0000     -0.0000      0.1629      0.0265      0.0161
       169        -0.0000     -0.0000      0.0021      0.0000      0.0000
       170        -0.0683      0.0954      0.0000      0.0138      0.0085
       171        -0.0000      0.0000      0.4864      0.2366      0.1460
       172        -0.0580      0.0856     -0.0000      0.0107      0.0066
       173         0.3041      0.0899     -0.0000      0.1005      0.0623
       174         0.0659      0.0076      0.0000      0.0044      0.0027
       175         0.0000      0.0000      0.2086      0.0435      0.0273
       176         0.2028      0.1452     -0.0000      0.0622      0.0391
       177         0.0000      0.0000     -0.0062      0.0000      0.0000
       178        -0.0000     -0.0000      0.0529      0.0028      0.0018
       179         0.0000      0.0000      0.2093      0.0438      0.0278
       180        -0.0000      0.0000     -0.1774      0.0315      0.0200
       181        -0.0037      0.1404     -0.0000      0.0197      0.0125
       182         0.0100      0.4438      0.0000      0.1970      0.1257
       183        -0.1833     -0.0233      0.0000      0.0341      0.0218
       184        -0.0603     -0.0620     -0.0000      0.0075      0.0048
       185        -0.0000     -0.0000      0.0304      0.0009      0.0006
       186         0.1670     -0.0620     -0.0000      0.0317      0.0207
       187         0.1059     -0.0386      0.0000      0.0127      0.0083
       188        -0.0000      0.0000      0.2959      0.0876      0.0575
       189        -0.0000     -0.0000     -0.3745      0.1402      0.0922
       190        -0.0154      0.0381      0.0000      0.0017      0.0011
       191         0.1286      0.0994     -0.0000      0.0264      0.0175
       192         0.1851      0.0306     -0.0000      0.0352      0.0234
       193        -0.0000      0.0000      0.0892      0.0079      0.0053
       194         0.0550     -0.2576     -0.0000      0.0694      0.0463
       195        -0.3369     -0.0238     -0.0000      0.1140      0.0768
       196        -0.0000      0.0000      0.3506      0.1229      0.0831
       197         0.1351     -0.0276     -0.0000      0.0190      0.0129
       198        -0.1220      0.0801      0.0000      0.0213      0.0145
       199         0.1689     -0.0420     -0.0000      0.0303      0.0208
       200        -0.5119      0.0432     -0.0000      0.2639      0.1821
       201        -0.1336      0.0879      0.0000      0.0256      0.0178
       202        -0.0000      0.0000      0.0451      0.0020      0.0014
       203        -0.0000      0.0000      0.4738      0.2245      0.1574
       204         0.0000     -0.0000     -0.1903      0.0362      0.0255
       205        -0.0096      0.0720      0.0000      0.0053      0.0037
       206        -0.0684     -0.0210      0.0000      0.0051      0.0036
       207        -0.0000     -0.0000     -0.1526      0.0233      0.0165
       208         0.0000     -0.0000      0.1913      0.0366      0.0260
       209         0.2441      0.2339      0.0000      0.1143      0.0815
       210         0.0000     -0.0000      0.2666      0.0711      0.0511
       211         0.0848     -0.0053     -0.0000      0.0072      0.0052
       212        -0.1833     -0.2314     -0.0000      0.0872      0.0637
       213         0.0000     -0.0000      0.2775      0.0770      0.0570
       214         0.0286      0.2519     -0.0000      0.0642      0.0479
       215         0.0000      0.0000      0.0070      0.0000      0.0000
       216        -0.0483      0.3328     -0.0000      0.1131      0.0849
       217         0.0865      0.1707      0.0000      0.0366      0.0277
       218         0.0000     -0.0000     -0.0184      0.0003      0.0003
       219         0.0000     -0.0000     -0.0319      0.0010      0.0008
       220        -0.0378      0.0290     -0.0000      0.0023      0.0017
       221         0.1177      0.0702      0.0000      0.0188      0.0144
       222         0.0000      0.0000     -0.1507      0.0227      0.0175
       223         0.2383     -0.0277     -0.0000      0.0576      0.0444
       224        -0.0000     -0.0000     -0.1985      0.0394      0.0308
       225        -0.0344     -0.0260      0.0000      0.0019      0.0015
       226        -0.0000      0.0000      0.1918      0.0368      0.0290
       227         0.0360      0.0239     -0.0000      0.0019      0.0015
       228         0.0000     -0.0000     -0.0454      0.0021      0.0016
       229        -0.0622     -0.0108     -0.0000      0.0040      0.0032
       230        -0.1452      0.0338      0.0000      0.0222      0.0177
       231         0.0309     -0.1692     -0.0000      0.0296      0.0237
       232         0.0000     -0.0000     -0.0519      0.0027      0.0022
       233         0.0000      0.0000      0.0058      0.0000      0.0000
       234         0.1613     -0.0180     -0.0000      0.0263      0.0213
       235        -0.0143      0.0455     -0.0000      0.0023      0.0019
       236         0.0000     -0.0000      0.0820      0.0067      0.0055
       237        -0.0877     -0.0615     -0.0000      0.0115      0.0094
       238        -0.0173     -0.1185      0.0000      0.0143      0.0118
       239        -0.0235     -0.1267      0.0000      0.0166      0.0137
       240        -0.0000     -0.0000      0.0337      0.0011      0.0009
       241        -0.0336     -0.1049     -0.0000      0.0121      0.0101
       242         0.2219      0.0355     -0.0000      0.0505      0.0422
       243        -0.0000     -0.0000     -0.0348      0.0012      0.0010
       244        -0.0000      0.0000     -0.0350      0.0012      0.0010
       245         0.0781     -0.0510     -0.0000      0.0087      0.0073
       246        -0.0000      0.0000     -0.1024      0.0105      0.0089
       247         0.0000      0.0000      0.0815      0.0066      0.0056
       248        -0.0000      0.0000      0.1231      0.0152      0.0129
       249        -0.0000      0.0000      0.2954      0.0872      0.0755
       250         0.0981      0.1348     -0.0000      0.0278      0.0240
       251         0.0573     -0.0020     -0.0000      0.0033      0.0029
       252         0.1242     -0.1827      0.0000      0.0488      0.0429
       253        -0.0809     -0.0507      0.0000      0.0091      0.0080
       254         0.0000     -0.0000      0.0616      0.0038      0.0034
       255        -0.0570     -0.1165     -0.0000      0.0168      0.0149
       256         0.0231      0.0347      0.0000      0.0017      0.0016
       257        -0.0000      0.0000      0.1151      0.0133      0.0119
       258        -0.0000     -0.0000      0.0455      0.0021      0.0019
       259        -0.1644     -0.0575      0.0000      0.0303      0.0275
       260         0.0000     -0.0000      0.0524      0.0028      0.0025
       261         0.0000     -0.0000      0.0348      0.0012      0.0011
       262         0.1188     -0.0891      0.0000      0.0221      0.0203
       263         0.0000      0.0000      0.0170      0.0003      0.0003
       264        -0.0000     -0.0000      0.1324      0.0175      0.0162
       265         0.0912     -0.2020     -0.0000      0.0491      0.0454
       266         0.1022     -0.0486     -0.0000      0.0128      0.0119
       267        -0.0169     -0.0124      0.0000      0.0004      0.0004
       268         0.0000      0.0000      0.0031      0.0000      0.0000
       269        -0.0000      0.0000     -0.1409      0.0199      0.0187
       270        -0.0840     -0.0087      0.0000      0.0071      0.0067
       271         0.0064      0.0221     -0.0000      0.0005      0.0005
       272        -0.0391     -0.0196      0.0000      0.0019      0.0018
       273         0.1330      0.0951      0.0000      0.0267      0.0261
       274        -0.0352      0.1864      0.0000      0.0360      0.0353
       275        -0.0000     -0.0000      0.2871      0.0824      0.0810
       276        -0.0000      0.0000      0.0459      0.0021      0.0021
       277         0.1472      0.1240     -0.0000      0.0370      0.0370
       278         0.2259     -0.0356     -0.0000      0.0523      0.0530
       279         0.0000     -0.0000      0.0115      0.0001      0.0001
       280        -0.1079      0.0379      0.0000      0.0131      0.0134
       281         0.0000     -0.0000     -0.1428      0.0204      0.0210
       282        -0.0000     -0.0000      0.1207      0.0146      0.0150
       283        -0.0931      0.1470     -0.0000      0.0303      0.0313
       284         0.1280      0.0005     -0.0000      0.0164      0.0170
       285        -0.0000     -0.0000      0.0853      0.0073      0.0076
       286         0.0095     -0.0013     -0.0000      0.0001      0.0001
       287        -0.0000     -0.0000      0.1264      0.0160      0.0169
       288         0.0599      0.1191     -0.0000      0.0178      0.0189
       289        -0.1254     -0.0423      0.0000      0.0175      0.0187
       290        -0.0554      0.0959     -0.0000      0.0123      0.0133
       291        -0.0000     -0.0000      0.0291      0.0008      0.0009
       292         0.0493      0.0610      0.0000      0.0062      0.0068
       293        -0.0000     -0.0000      0.0149      0.0002      0.0002
       294         0.0508      0.0728      0.0000      0.0079      0.0088
       295        -0.1537      0.0420      0.0000      0.0254      0.0284
       296         0.0000     -0.0000      0.0862      0.0074      0.0083
       297         0.0537      0.0309     -0.0000      0.0038      0.0043
       298         0.0266      0.1875     -0.0000      0.0359      0.0404
       299        -0.0000     -0.0000      0.0394      0.0016      0.0018
       300        -0.0709     -0.1179      0.0000      0.0189      0.0216
       301         0.0000      0.0000      0.0932      0.0087      0.0099
       302        -0.1882      0.0974      0.0000      0.0449      0.0516
       303        -0.2233      0.0522     -0.0000      0.0526      0.0609
       304        -0.0000      0.0000      0.1766      0.0312      0.0363
       305         0.0589      0.0177      0.0000      0.0038      0.0044
       306         0.0000     -0.0000      0.0347      0.0012      0.0014
       307        -0.0882     -0.0137      0.0000      0.0080      0.0094
       308         0.0000      0.0000      0.2585      0.0668      0.0796
       309         0.0125     -0.1363     -0.0000      0.0187      0.0224
       310         0.0000     -0.0000     -0.0902      0.0081      0.0097
[...]
      8   0.000000D+00 -0.150146D-01  0.000000D+00  0.000000D+00  0.110681D+00
      9   0.000000D+00  0.514507D-01  0.000000D+00  0.000000D+00  0.959959D-01
     10  -0.176715D-01  0.000000D+00  0.872084D-01  0.765207D-01  0.000000D+00
     11  -0.465288D-01  0.000000D+00  0.338767D+00 -0.836006D-01  0.000000D+00
     12  -0.198057D+00  0.000000D+00  0.398405D+00  0.611632D-01  0.000000D+00
     13   0.119136D+00  0.000000D+00  0.115894D+00 -0.483351D-01  0.000000D+00
     14  -0.736899D-01  0.000000D+00 -0.634620D-01  0.154588D+00  0.000000D+00
     15   0.000000D+00  0.491918D-01  0.000000D+00  0.000000D+00 -0.393134D-01
     16   0.000000D+00 -0.210274D+00  0.000000D+00  0.000000D+00 -0.525512D-01
               431           432           433           434           435 
      1  -0.928092D+02 -0.927927D+02 -0.927714D+02 -0.927616D+02 -0.927487D+02
      2   0.105009D+00 -0.323882D-01 -0.426546D-01  0.130158D-01  0.000000D+00
      3   0.399673D-02  0.687383D-01 -0.156185D-01 -0.317140D-01  0.000000D+00
      4   0.000000D+00  0.000000D+00  0.000000D+00  0.000000D+00 -0.557268D-01
      5  -0.275634D+00  0.930906D-01  0.103585D+00 -0.364041D-01  0.000000D+00
      6   0.738123D-02 -0.173863D+00  0.212589D-01  0.494059D-01  0.000000D+00
      7   0.000000D+00  0.000000D+00  0.000000D+00  0.000000D+00  0.197033D+00
      8   0.000000D+00  0.000000D+00  0.000000D+00  0.000000D+00 -0.265828D+00
      9   0.000000D+00  0.000000D+00  0.000000D+00  0.000000D+00 -0.760003D-02
     10  -0.479599D+00 -0.200449D+00  0.124578D-01  0.268712D+00  0.000000D+00
     11   0.315827D+00  0.361373D-01 -0.234345D+00 -0.394741D-01  0.000000D+00
     12   0.710236D-01  0.552974D-01  0.225115D+00 -0.153953D+00  0.000000D+00
     13   0.729447D-01 -0.338354D+00  0.208175D-01 -0.484875D-01  0.000000D+00
     14   0.544858D+00  0.145895D+00 -0.575720D-01 -0.221920D+00  0.000000D+00
     15   0.000000D+00  0.000000D+00  0.000000D+00  0.000000D+00 -0.415585D-01
     16   0.000000D+00  0.000000D+00  0.000000D+00  0.000000D+00 -0.296076D+00
               436           437           438           439           440 
      1  -0.927143D+02 -0.927118D+02 -0.926982D+02 -0.926852D+02 -0.926803D+02
      2   0.000000D+00 -0.464689D-01  0.000000D+00  0.000000D+00  0.000000D+00
      3   0.000000D+00  0.944585D-01  0.000000D+00  0.000000D+00  0.000000D+00
      4  -0.333096D-01  0.000000D+00 -0.345841D-01  0.126864D-01  0.117839D+00
      5   0.000000D+00  0.144338D+00  0.000000D+00  0.000000D+00  0.000000D+00
      6   0.000000D+00 -0.266322D+00  0.000000D+00  0.000000D+00  0.000000D+00
      7   0.618715D-01  0.000000D+00  0.688079D-01 -0.608843D-01 -0.319828D+00
      8   0.632979D-01  0.000000D+00  0.800095D-01  0.264765D+00  0.423191D+00
      9  -0.142968D+00  0.000000D+00  0.362386D-01  0.206775D-01  0.964132D-02
     10   0.000000D+00  0.263606D+00  0.000000D+00  0.000000D+00  0.000000D+00
     11   0.000000D+00 -0.212638D+00  0.000000D+00  0.000000D+00  0.000000D+00
     12   0.000000D+00  0.492171D+00  0.000000D+00  0.000000D+00  0.000000D+00
     13   0.000000D+00  0.156351D+00  0.000000D+00  0.000000D+00  0.000000D+00
     14   0.000000D+00 -0.280710D-01  0.000000D+00  0.000000D+00  0.000000D+00
     15  -0.133894D-01  0.000000D+00  0.690205D-01  0.295766D+00  0.109391D+00
     16   0.399954D-02  0.000000D+00  0.384186D+00  0.398937D+00  0.505142D+00
               441           442           443           444           445 
      1  -0.926593D+02 -0.926483D+02 -0.926204D+02 -0.925972D+02 -0.925779D+02
      2  -0.380249D-01  0.310026D-01 -0.376946D-01  0.000000D+00  0.000000D+00
      3   0.288087D-03 -0.166559D-01 -0.203936D-01  0.000000D+00  0.000000D+00
      4   0.000000D+00  0.000000D+00  0.000000D+00 -0.158663D-01 -0.158811D-01
      5   0.540132D-01 -0.776006D-01  0.766198D-01  0.000000D+00  0.000000D+00
      6   0.125075D-01  0.651566D-01  0.517935D-01  0.000000D+00  0.000000D+00
      7   0.000000D+00  0.000000D+00  0.000000D+00  0.138358D-01  0.727026D-01
      8   0.000000D+00  0.000000D+00  0.000000D+00  0.251720D+00 -0.142795D+00
      9   0.000000D+00  0.000000D+00  0.000000D+00 -0.529100D-01  0.802401D-01
     10   0.531405D-01 -0.118759D+00 -0.876248D-01  0.000000D+00  0.000000D+00
     11   0.244318D-01  0.819575D-01  0.212569D-01  0.000000D+00  0.000000D+00
     12   0.274297D+00 -0.832755D+00 -0.689671D+00  0.000000D+00  0.000000D+00
     13  -0.590108D-01  0.147125D+00  0.265880D+00  0.000000D+00  0.000000D+00
     14   0.803789D-01  0.221608D+00  0.193054D+00  0.000000D+00  0.000000D+00
     15   0.000000D+00  0.000000D+00  0.000000D+00 -0.613985D-01  0.523844D-01
     16   0.000000D+00  0.000000D+00  0.000000D+00  0.471346D+00 -0.101883D+00
               446           447           448           449           450 
      1  -0.925704D+02 -0.925672D+02 -0.925582D+02 -0.925554D+02 -0.925441D+02
      2  -0.826921D-01  0.914022D-01 -0.280106D-01 -0.243339D-01 -0.101437D+00
      3  -0.312863D-02  0.319424D-03 -0.378604D-01  0.101329D-01 -0.476031D-01
      4   0.000000D+00  0.000000D+00  0.000000D+00  0.000000D+00  0.000000D+00
      5   0.233473D+00 -0.247206D+00  0.593897D-01  0.640757D-01  0.296081D+00
      6   0.208227D-01  0.340356D-02  0.106914D+00 -0.224725D-01  0.125020D+00
      7   0.000000D+00  0.000000D+00  0.000000D+00  0.000000D+00  0.000000D+00
      8   0.000000D+00  0.000000D+00  0.000000D+00  0.000000D+00  0.000000D+00
      9   0.000000D+00  0.000000D+00  0.000000D+00  0.000000D+00  0.000000D+00
     10   0.561006D-01 -0.939702D-01  0.775019D-02  0.147090D+00  0.504173D+00
     11  -0.915313D-01 -0.234546D+00 -0.665052D-01 -0.701780D-01 -0.214823D+00
     12   0.211241D-01  0.657044D-01 -0.386554D-03  0.146232D-01 -0.662417D+00
     13   0.581625D-01  0.354192D+00  0.578919D-01 -0.214594D-01 -0.501607D-01
     14   0.152307D+00  0.153835D+00  0.126188D-01 -0.313453D-01 -0.662278D+00
     15   0.000000D+00  0.000000D+00  0.000000D+00  0.000000D+00  0.000000D+00
     16   0.000000D+00  0.000000D+00  0.000000D+00  0.000000D+00  0.000000D+00
               451           452           453           454           455 
      1  -0.925283D+02 -0.925006D+02 -0.924936D+02 -0.924773D+02 -0.924643D+02
      2   0.000000D+00  0.178148D+00  0.000000D+00  0.000000D+00  0.000000D+00
      3   0.000000D+00  0.194010D-02  0.000000D+00  0.000000D+00  0.000000D+00
      4  -0.929740D-01  0.000000D+00 -0.302322D-01  0.302117D-02  0.148447D+00
      5   0.000000D+00 -0.514115D+00  0.000000D+00  0.000000D+00  0.000000D+00
      6   0.000000D+00  0.224401D-01  0.000000D+00  0.000000D+00  0.000000D+00
      7   0.266931D+00  0.000000D+00  0.812109D-01 -0.116581D-01 -0.421332D+00
      8  -0.283918D+00  0.000000D+00  0.410211D+00  0.288157D-01  0.308780D+00
      9   0.250697D-01  0.000000D+00  0.297453D-01 -0.689436D-01 -0.102667D+00
     10   0.000000D+00 -0.560534D+00  0.000000D+00  0.000000D+00  0.000000D+00
     11   0.000000D+00  0.357265D+00  0.000000D+00  0.000000D+00  0.000000D+00
     12   0.000000D+00 -0.476003D+00  0.000000D+00  0.000000D+00  0.000000D+00
     13   0.000000D+00 -0.239499D+00  0.000000D+00  0.000000D+00  0.000000D+00
     14   0.000000D+00  0.357068D+00  0.000000D+00  0.000000D+00  0.000000D+00
     15  -0.583476D-01  0.000000D+00 -0.176554D+00  0.240465D-01 -0.385498D-01
     16  -0.105616D+00  0.000000D+00  0.212389D+00  0.100635D+00  0.213590D+00
               456           457           458           459           460 
      1  -0.924537D+02 -0.924481D+02 -0.924401D+02 -0.924314D+02 -0.924196D+02
      2   0.000000D+00  0.000000D+00  0.112942D+00 -0.694941D-01  0.820421D-01
      3   0.000000D+00  0.000000D+00  0.324870D-01 -0.330413D-01  0.589948D-01
      4   0.120891D-01 -0.831603D-01  0.000000D+00  0.000000D+00  0.000000D+00
      5   0.000000D+00  0.000000D+00 -0.327917D+00  0.193631D+00 -0.229079D+00
      6   0.000000D+00  0.000000D+00 -0.895442D-01  0.118753D+00 -0.187554D+00
      7  -0.422315D-01  0.255473D+00  0.000000D+00  0.000000D+00  0.000000D+00
      8   0.979949D-01 -0.242633D+00  0.000000D+00  0.000000D+00  0.000000D+00
      9  -0.102978D-01  0.206785D-01  0.000000D+00  0.000000D+00  0.000000D+00
     10   0.000000D+00  0.000000D+00 -0.129571D-01  0.319878D+00 -0.200299D+00
     11   0.000000D+00  0.000000D+00  0.221961D+00 -0.226768D-01  0.240176D+00
     12   0.000000D+00  0.000000D+00 -0.309060D+00 -0.893745D+00  0.193258D+00
     13   0.000000D+00  0.000000D+00 -0.900680D-01 -0.793090D-01  0.568180D-01
     14   0.000000D+00  0.000000D+00  0.293530D-01 -0.427931D+00  0.180319D+00
     15  -0.364288D-01 -0.173437D+00  0.000000D+00  0.000000D+00  0.000000D+00
     16  -0.703048D-01 -0.443435D+00  0.000000D+00  0.000000D+00  0.000000D+00
               461           462           463           464           465 
      1  -0.924095D+02 -0.923667D+02 -0.923582D+02 -0.923343D+02 -0.923231D+02
      2   0.431388D-01  0.242289D-01 -0.513436D-01  0.000000D+00 -0.111504D+00
      3  -0.483641D-01  0.103543D+00  0.841392D-01  0.000000D+00  0.425436D-01
      4   0.000000D+00  0.000000D+00  0.000000D+00  0.343883D-01  0.000000D+00
      5  -0.132975D+00 -0.690140D-01  0.138933D+00  0.000000D+00  0.320324D+00
      6   0.130820D+00 -0.303679D+00 -0.274602D+00  0.000000D+00 -0.141034D+00
      7   0.000000D+00  0.000000D+00  0.000000D+00 -0.762216D-01  0.000000D+00
      8   0.000000D+00  0.000000D+00  0.000000D+00  0.121691D+00  0.000000D+00
      9   0.000000D+00  0.000000D+00  0.000000D+00 -0.457457D-01  0.000000D+00
     10  -0.581121D+00 -0.178142D+00  0.130439D-01  0.000000D+00  0.120712D+00
     11   0.104382D+00  0.599700D-01  0.636414D-01  0.000000D+00 -0.174842D+00
     12  -0.346622D-01  0.296375D+00  0.380539D+00  0.000000D+00  0.876731D-01
     13   0.404532D-01  0.122584D-01 -0.818839D-01  0.000000D+00  0.241094D+00
     14   0.663094D+00  0.333876D+00  0.123932D+00  0.000000D+00 -0.874824D-01
     15   0.000000D+00  0.000000D+00  0.000000D+00 -0.142410D+00  0.000000D+00
     16   0.000000D+00  0.000000D+00  0.000000D+00 -0.124720D+00  0.000000D+00
               466           467           468           469           470 
      1  -0.923191D+02 -0.923141D+02 -0.922991D+02 -0.922893D+02 -0.922723D+02
      2  -0.117567D+00  0.000000D+00  0.000000D+00  0.000000D+00  0.708591D-01
      3   0.274457D-01  0.000000D+00  0.000000D+00  0.000000D+00  0.634935D-01
      4   0.000000D+00 -0.733128D-01 -0.821861D-01 -0.811961D-01  0.000000D+00
      5   0.337009D+00  0.000000D+00  0.000000D+00  0.000000D+00 -0.209982D+00
      6  -0.724157D-01  0.000000D+00  0.000000D+00  0.000000D+00 -0.188615D+00
      7   0.000000D+00  0.220785D+00  0.225635D+00  0.213029D+00  0.000000D+00
      8   0.000000D+00  0.215396D+00  0.484875D-01  0.556967D+00  0.000000D+00
      9   0.000000D+00  0.741635D-01  0.308793D-01  0.152028D-03  0.000000D+00
     10  -0.184797D+00  0.000000D+00  0.000000D+00  0.000000D+00 -0.184247D+00
     11  -0.126061D+00  0.000000D+00  0.000000D+00  0.000000D+00 -0.281522D-01
     12  -0.721234D+00  0.000000D+00  0.000000D+00  0.000000D+00 -0.384280D+00
     13  -0.321224D-01  0.000000D+00  0.000000D+00  0.000000D+00  0.104239D-01
     14  -0.662611D-01  0.000000D+00  0.000000D+00  0.000000D+00  0.409550D+00
     15   0.000000D+00 -0.114900D-01 -0.399458D-01  0.581478D-01  0.000000D+00
     16   0.000000D+00  0.130547D-01 -0.892737D-01  0.503045D+00  0.000000D+00
               471           472           473           474           475 
      1  -0.922537D+02 -0.922365D+02 -0.922235D+02 -0.922142D+02 -0.921993D+02
      2   0.000000D+00  0.690378D-02 -0.931480D-02  0.515890D-02  0.251065D-01
      3   0.000000D+00  0.188105D-01 -0.772240D-01  0.105607D+00 -0.125082D+00
      4  -0.258123D-01  0.000000D+00  0.000000D+00  0.000000D+00  0.000000D+00
      5   0.000000D+00 -0.502044D-02  0.302785D-01 -0.147203D-01 -0.584395D-01
      6   0.000000D+00 -0.691215D-01  0.227795D+00 -0.326557D+00  0.389611D+00
      7   0.741581D-01  0.000000D+00  0.000000D+00  0.000000D+00  0.000000D+00
      8  -0.208429D+00  0.000000D+00  0.000000D+00  0.000000D+00  0.000000D+00
      9  -0.912904D-02  0.000000D+00  0.000000D+00  0.000000D+00  0.000000D+00
     10   0.000000D+00  0.577700D+00 -0.205760D+00  0.177553D+00  0.100634D+00
     11   0.000000D+00 -0.879532D-01  0.538743D-01  0.174194D+00 -0.139713D+00
     12   0.000000D+00 -0.563254D+00 -0.478170D+00  0.923137D+00 -0.195550D+00
     13   0.000000D+00  0.106089D+00  0.447865D-01 -0.828776D-01  0.703391D-01
     14   0.000000D+00 -0.580596D+00  0.247143D+00 -0.177980D+00 -0.248978D+00
     15  -0.784974D-01  0.000000D+00  0.000000D+00  0.000000D+00  0.000000D+00
     16  -0.320542D+00  0.000000D+00  0.000000D+00  0.000000D+00  0.000000D+00
               476           477           478           479           480 
      1  -0.921932D+02 -0.921779D+02 -0.921165D+02 -0.920996D+02 -0.920890D+02
      2   0.000000D+00  0.241023D-01 -0.275218D-01  0.000000D+00  0.000000D+00
      3   0.000000D+00 -0.229004D-01 -0.102286D-01  0.000000D+00  0.000000D+00
      4   0.227472D-01  0.000000D+00  0.000000D+00 -0.850669D-01 -0.359662D-01
      5   0.000000D+00 -0.489076D-01  0.673865D-01  0.000000D+00  0.000000D+00
      6   0.000000D+00  0.919270D-01  0.464045D-01  0.000000D+00  0.000000D+00
      7  -0.418972D-01  0.000000D+00  0.000000D+00  0.261133D+00  0.112029D+00
      8  -0.212956D+00  0.000000D+00  0.000000D+00 -0.104309D+00 -0.854681D-02
      9   0.270961D-01  0.000000D+00  0.000000D+00  0.856919D-02  0.135125D-01
     10   0.000000D+00  0.202930D+00 -0.118859D+00  0.000000D+00  0.000000D+00
     11   0.000000D+00  0.931548D-01 -0.106343D+00  0.000000D+00  0.000000D+00
     12   0.000000D+00 -0.126096D+01 -0.154373D+00  0.000000D+00  0.000000D+00
     13   0.000000D+00  0.118856D+00  0.755891D-01  0.000000D+00  0.000000D+00
     14   0.000000D+00 -0.976339D-01  0.964862D-01  0.000000D+00  0.000000D+00
     15   0.521164D-02  0.000000D+00  0.000000D+00 -0.643336D-01  0.670719D-01
     16  -0.331991D+00  0.000000D+00  0.000000D+00 -0.296029D-01 -0.152647D-01
               481           482           483           484           485 
      1  -0.920589D+02 -0.920572D+02 -0.920443D+02 -0.920153D+02 -0.919895D+02
      2   0.000000D+00 -0.373735D-01 -0.469208D-01  0.609471D-01  0.000000D+00
      3   0.000000D+00 -0.903721D-01 -0.356798D-01  0.139167D+00  0.000000D+00
      4  -0.540656D-01  0.000000D+00  0.000000D+00  0.000000D+00  0.654482D-01
      5   0.000000D+00  0.117326D+00  0.126385D+00 -0.183667D+00  0.000000D+00
      6   0.000000D+00  0.300722D+00  0.122109D+00 -0.481653D+00  0.000000D+00
      7   0.150968D+00  0.000000D+00  0.000000D+00  0.000000D+00 -0.208792D+00
      8   0.300490D+00  0.000000D+00  0.000000D+00  0.000000D+00  0.156888D+00
      9   0.172443D-01  0.000000D+00  0.000000D+00  0.000000D+00 -0.626214D-04
     10   0.000000D+00  0.723416D-01 -0.338333D+00 -0.294986D+00  0.000000D+00
     11   0.000000D+00 -0.160795D+00 -0.895092D-01 -0.502182D-01  0.000000D+00
     12   0.000000D+00 -0.731770D+00 -0.356790D+00  0.694113D+00  0.000000D+00
     13   0.000000D+00  0.119969D+00  0.101038D+00  0.169876D+00  0.000000D+00
     14   0.000000D+00 -0.735301D-01  0.269431D+00  0.479993D+00  0.000000D+00
     15   0.144022D+00  0.000000D+00  0.000000D+00  0.000000D+00 -0.600254D-01
     16   0.193109D+00  0.000000D+00  0.000000D+00  0.000000D+00 -0.419832D-01
               486           487           488           489           490 
      1  -0.919700D+02 -0.919646D+02 -0.918555D+02 -0.918541D+02 -0.918404D+02
      2   0.752337D-01  0.000000D+00  0.578628D-01  0.000000D+00 -0.372665D-01
      3   0.213582D-01  0.000000D+00 -0.425949D-01  0.000000D+00  0.100812D-01
      4   0.000000D+00 -0.153819D+00  0.000000D+00 -0.411506D-01  0.000000D+00
      5  -0.242489D+00  0.000000D+00 -0.206984D+00  0.000000D+00  0.114015D+00
      6  -0.358991D-01  0.000000D+00  0.137127D+00  0.000000D+00 -0.361719D-01
      7   0.000000D+00  0.486073D+00  0.000000D+00  0.116578D+00  0.000000D+00
      8   0.000000D+00 -0.734324D+00  0.000000D+00  0.276715D+00  0.000000D+00
      9   0.000000D+00  0.200903D-01  0.000000D+00  0.102013D-01  0.000000D+00
     10  -0.209735D+00  0.000000D+00 -0.247358D+00  0.000000D+00 -0.241584D+00
     11  -0.118941D+00  0.000000D+00  0.490471D-01  0.000000D+00 -0.162017D+00
     12  -0.785422D-03  0.000000D+00 -0.379226D+00  0.000000D+00  0.134280D+00
     13   0.581811D-01  0.000000D+00  0.778492D-01  0.000000D+00  0.127170D+00
     14   0.162683D+00  0.000000D+00  0.100820D+00  0.000000D+00  0.197186D+00
     15   0.000000D+00 -0.218685D+00  0.000000D+00  0.108537D+00  0.000000D+00
     16   0.000000D+00 -0.698383D+00  0.000000D+00  0.257339D+00  0.000000D+00
               491           492           493           494           495 
      1  -0.918287D+02 -0.918244D+02 -0.917778D+02 -0.917255D+02 -0.916209D+02
      2  -0.218729D-01  0.000000D+00  0.000000D+00  0.109175D+00 -0.477857D-01
      3  -0.751489D-02  0.000000D+00  0.000000D+00 -0.702633D-01  0.349663D-01
      4   0.000000D+00  0.282483D-01 -0.122479D+00  0.000000D+00  0.000000D+00
      5   0.583081D-01  0.000000D+00  0.000000D+00 -0.377394D+00  0.159676D+00
      6   0.618428D-01  0.000000D+00  0.000000D+00  0.252478D+00 -0.731643D-01
      7   0.000000D+00 -0.106220D+00  0.416347D+00  0.000000D+00  0.000000D+00
      8   0.000000D+00  0.687702D-01 -0.622679D+00  0.000000D+00  0.000000D+00
      9   0.000000D+00 -0.260880D-01  0.973795D-02  0.000000D+00  0.000000D+00
     10   0.134010D-01  0.000000D+00  0.000000D+00 -0.559207D+00  0.182190D+00
     11   0.494445D-01  0.000000D+00  0.000000D+00  0.193916D+00  0.354791D-02
     12  -0.119356D+01  0.000000D+00  0.000000D+00 -0.819997D+00  0.179963D+00
     13   0.295630D-01  0.000000D+00  0.000000D+00  0.803572D-01 -0.885950D-01
     14  -0.108108D+00  0.000000D+00  0.000000D+00  0.427062D+00 -0.757611D-01
     15   0.000000D+00  0.116985D+00 -0.198975D+00  0.000000D+00  0.000000D+00
     16   0.000000D+00  0.855040D-01 -0.630543D+00  0.000000D+00  0.000000D+00
               496           497 
      1  -0.915917D+02 -0.913852D+02
      2   0.000000D+00  0.000000D+00
      3   0.000000D+00  0.000000D+00
      4   0.269212D-01  0.692308D-01
      5   0.000000D+00  0.000000D+00
      6   0.000000D+00  0.000000D+00
      7  -0.927791D-01 -0.232452D+00
      8   0.489886D-01  0.280385D+00
      9  -0.771015D-02 -0.798253D-02
     10   0.000000D+00  0.000000D+00
     11   0.000000D+00  0.000000D+00
     12   0.000000D+00  0.000000D+00
     13   0.000000D+00  0.000000D+00
     14   0.000000D+00  0.000000D+00
     15   0.102506D-01  0.174451D+00
     16   0.113070D+00  0.220337D+00
 Unable to Open any file for archive entry.
 1\1\GINC-HEL11\SP\RPBEPBE TD-FC\Gen\C1H5N1\SABYASACHI\21-Mar-2022\0\\#
 P TD(Nstates=10000) pbepbe/Gen SCF(maxcycles=100) Int(Grid=ultrafine)\
 \xGDB7_00001_tier4.com\\0,1\C,0,-0.049078,0.702042,0.\N,0,-0.049078,-0
 .754243,0.\H,0,0.946109,1.166603,0.\H,0,-0.587574,1.062597,0.87777\H,0
 ,-0.587574,1.062597,-0.87777\H,0,0.433525,-1.112175,0.812504\H,0,0.433
 525,-1.112175,-0.812504\\Version=EM64L-G16RevC.01\State=1-A'\HF=-95.66
 4538\RMSD=2.875e-09\PG=CS [SG(C1H1N1),X(H4)]\\@
 The archive entry for this job was punched.


 THE TEST OF A FIRST RATE INTELLIGENCE IS THE ABILITY TO HOLD TWO OPPOSED
 IDEAS IN THE MIND AT THE SAME TIME, AND STILL RETAIN THE ABILITY TO FUNCTION.
 ONE SHOULD, FOR EXAMPLE, BE ABLE TO SEE THAT THINGS ARE HOPELESS AND YET BE
 DETERMINED TO MAKE THEM OTHERWISE.

                                                       -- F. SCOTT FITZGERALD
 Job cpu time:       0 days  0 hours  3 minutes  2.2 seconds.
 Elapsed time:       0 days  0 hours  0 minutes 23.1 seconds.
 File lengths (MBytes):  RWF=    127 Int=      0 D2E=      0 Chk=     78 Scr=      1
 Normal termination of Gaussian 16 at Mon Mar 21 20:17:06 2022.
