 Entering Gaussian System, Link 0=g16
 Input=000010.com
 Output=000010.log
 Initial command:
 /home/sabyasachi/g16/l1.exe "/scratch/sabyasachi/PBS_7976441.helios/Gau-159131.inp" -scrdir="/scratch/sabyasachi/PBS_7976441.helios/"
 Entering Link 1 = /home/sabyasachi/g16/l1.exe PID=    159132.
  
 Copyright (c) 1988-2019, Gaussian, Inc.  All Rights Reserved.
  
 This is part of the Gaussian(R) 16 program.  It is based on
 the Gaussian(R) 09 system (copyright 2009, Gaussian, Inc.),
 the Gaussian(R) 03 system (copyright 2003, Gaussian, Inc.),
 the Gaussian(R) 98 system (copyright 1998, Gaussian, Inc.),
 the Gaussian(R) 94 system (copyright 1995, Gaussian, Inc.),
 the Gaussian 92(TM) system (copyright 1992, Gaussian, Inc.),
 the Gaussian 90(TM) system (copyright 1990, Gaussian, Inc.),
 the Gaussian 88(TM) system (copyright 1988, Gaussian, Inc.),
 the Gaussian 86(TM) system (copyright 1986, Carnegie Mellon
 University), and the Gaussian 82(TM) system (copyright 1983,
 Carnegie Mellon University). Gaussian is a federally registered
 trademark of Gaussian, Inc.
  
 This software contains proprietary and confidential information,
 including trade secrets, belonging to Gaussian, Inc.
  
 This software is provided under written license and may be
 used, copied, transmitted, or stored only in accord with that
 written license.
  
 The following legend is applicable only to US Government
 contracts under FAR:
  
                    RESTRICTED RIGHTS LEGEND
  
 Use, reproduction and disclosure by the US Government is
 subject to restrictions as set forth in subparagraphs (a)
 and (c) of the Commercial Computer Software - Restricted
 Rights clause in FAR 52.227-19.
  
 Gaussian, Inc.
 340 Quinnipiac St., Bldg. 40, Wallingford CT 06492
  
  
 ---------------------------------------------------------------
 Warning -- This program may not be used in any manner that
 competes with the business of Gaussian, Inc. or will provide
 assistance to any competitor of Gaussian, Inc.  The licensee
 of this program is prohibited from giving any competitor of
 Gaussian, Inc. access to this program.  By using this program,
 the user acknowledges that Gaussian, Inc. is engaged in the
 business of creating and licensing software in the field of
 computational chemistry and represents and warrants to the
 licensee that it is not a competitor of Gaussian, Inc. and that
 it will not use this program in any manner prohibited above.
 ---------------------------------------------------------------
  

 Cite this work as:
 Gaussian 16, Revision C.01,
 M. J. Frisch, G. W. Trucks, H. B. Schlegel, G. E. Scuseria, 
 M. A. Robb, J. R. Cheeseman, G. Scalmani, V. Barone, 
 G. A. Petersson, H. Nakatsuji, X. Li, M. Caricato, A. V. Marenich, 
 J. Bloino, B. G. Janesko, R. Gomperts, B. Mennucci, H. P. Hratchian, 
 J. V. Ortiz, A. F. Izmaylov, J. L. Sonnenberg, D. Williams-Young, 
 F. Ding, F. Lipparini, F. Egidi, J. Goings, B. Peng, A. Petrone, 
 T. Henderson, D. Ranasinghe, V. G. Zakrzewski, J. Gao, N. Rega, 
 G. Zheng, W. Liang, M. Hada, M. Ehara, K. Toyota, R. Fukuda, 
 J. Hasegawa, M. Ishida, T. Nakajima, Y. Honda, O. Kitao, H. Nakai, 
 T. Vreven, K. Throssell, J. A. Montgomery, Jr., J. E. Peralta, 
 F. Ogliaro, M. J. Bearpark, J. J. Heyd, E. N. Brothers, K. N. Kudin, 
 V. N. Staroverov, T. A. Keith, R. Kobayashi, J. Normand, 
 K. Raghavachari, A. P. Rendell, J. C. Burant, S. S. Iyengar, 
 J. Tomasi, M. Cossi, J. M. Millam, M. Klene, C. Adamo, R. Cammi, 
 J. W. Ochterski, R. L. Martin, K. Morokuma, O. Farkas, 
 J. B. Foresman, and D. J. Fox, Gaussian, Inc., Wallingford CT, 2019.
 
 ******************************************
 Gaussian 16:  EM64L-G16RevC.01  3-Jul-2019
                21-Mar-2022 
 ******************************************
 %mem=64gb
 %nproc=8
 Will use up to    8 processors via shared memory.
 ----------------------------------------------------------------------
 #P TD(Nstates=10000) pbepbe/Gen SCF(maxcycles=100) Int(Grid=ultrafine)
 ----------------------------------------------------------------------
 1/38=1,172=1/1;
 2/12=2,17=6,18=5,40=1/2;
 3/5=7,11=9,25=1,30=1,74=1009,75=-5/1,2,3,8;
 4//1;
 5/5=2,7=100,38=5/2;
 8/6=1,10=1,108=10000/1;
 9/41=10000,42=1,70=2/14;
 6/7=2,8=2,9=2,10=2/1;
 99/5=1,9=1/99;
 Leave Link    1 at Mon Mar 21 20:20:00 2022, MaxMem=  8589934592 cpu:               0.4 elap:               0.1
 (Enter /home/sabyasachi/g16/l101.exe)
 ---------------------
 xGDB7_00001_tier4.com
 ---------------------
 Symbolic Z-matrix:
 Charge =  0 Multiplicity = 1
 6                     0.        0.        0.66087 
 6                     0.        0.       -0.66087 
 1                     0.        0.92259   1.22926 
 1                     0.       -0.92259   1.22926 
 1                     0.        0.92259  -1.22926 
 1                     0.       -0.92259  -1.22926 
 
 ITRead=  0  0  0  0  0  0
 MicOpt= -1 -1 -1 -1 -1 -1
 NAtoms=      6 NQM=        6 NQMF=       0 NMMI=      0 NMMIF=      0
                NMic=       0 NMicF=      0.
                    Isotopes and Nuclear Properties:
 (Nuclear quadrupole moments (NQMom) in fm**2, nuclear magnetic moments (NMagM)
  in nuclear magnetons)

  Atom         1           2           3           4           5           6
 IAtWgt=          12          12           1           1           1           1
 AtmWgt=  12.0000000  12.0000000   1.0078250   1.0078250   1.0078250   1.0078250
 NucSpn=           0           0           1           1           1           1
 AtZEff=  -0.0000000  -0.0000000  -0.0000000  -0.0000000  -0.0000000  -0.0000000
 NQMom=    0.0000000   0.0000000   0.0000000   0.0000000   0.0000000   0.0000000
 NMagM=    0.0000000   0.0000000   2.7928460   2.7928460   2.7928460   2.7928460
 AtZNuc=   6.0000000   6.0000000   1.0000000   1.0000000   1.0000000   1.0000000
 Leave Link  101 at Mon Mar 21 20:20:00 2022, MaxMem=  8589934592 cpu:               0.6 elap:               0.1
 (Enter /home/sabyasachi/g16/l202.exe)
                          Input orientation:                          
 ---------------------------------------------------------------------
 Center     Atomic      Atomic             Coordinates (Angstroms)
 Number     Number       Type             X           Y           Z
 ---------------------------------------------------------------------
      1          6           0        0.000000    0.000000    0.660866
      2          6           0        0.000000    0.000000   -0.660866
      3          1           0        0.000000    0.922586    1.229258
      4          1           0        0.000000   -0.922586    1.229258
      5          1           0        0.000000    0.922586   -1.229258
      6          1           0        0.000000   -0.922586   -1.229258
 ---------------------------------------------------------------------
                    Distance matrix (angstroms):
                    1          2          3          4          5
     1  C    0.000000
     2  C    1.321732   0.000000
     3  H    1.083621   2.103267   0.000000
     4  H    1.083621   2.103267   1.845172   0.000000
     5  H    2.103267   1.083621   2.458516   3.073916   0.000000
     6  H    2.103267   1.083621   3.073916   2.458516   1.845172
                    6
     6  H    0.000000
 Stoichiometry    C2H4
 Framework group  D2H[C2"(C.C),SG(H4)]
 Deg. of freedom     3
 Full point group                 D2H     NOp   8
 Largest Abelian subgroup         D2H     NOp   8
 Largest concise Abelian subgroup D2      NOp   4
                         Standard orientation:                         
 ---------------------------------------------------------------------
 Center     Atomic      Atomic             Coordinates (Angstroms)
 Number     Number       Type             X           Y           Z
 ---------------------------------------------------------------------
      1          6           0        0.000000    0.000000    0.660866
      2          6           0        0.000000    0.000000   -0.660866
      3          1           0        0.000000    0.922586    1.229258
      4          1           0       -0.000000   -0.922586    1.229258
      5          1           0        0.000000    0.922586   -1.229258
      6          1           0       -0.000000   -0.922586   -1.229258
 ---------------------------------------------------------------------
 Rotational constants (GHZ):         147.2849410          30.4932883          25.2629480
 Leave Link  202 at Mon Mar 21 20:20:00 2022, MaxMem=  8589934592 cpu:               0.1 elap:               0.0
 (Enter /home/sabyasachi/g16/l301.exe)
 General basis read from cards:  (5D, 7F)
 Centers:       3      4      5      6
 S 3 1.00
     Exponent=  1.3010701000D+01 Coefficients=  1.9682158000D-02
     Exponent=  1.9622572000D+00 Coefficients=  1.3796524000D-01
     Exponent=  4.4453796000D-01 Coefficients=  4.7831935000D-01
 S 1 1.00
     Exponent=  1.2194962000D-01 Coefficients=  1.0000000000D+00
 P 1 1.00
     Exponent=  8.0000000000D-01 Coefficients=  1.0000000000D+00
 P 1 1.00
     Exponent=  1.1704099050D-01 Coefficients=  1.0000000000D+00
 ****
 Centers:       1      2
 S 5 1.00
     Exponent=  1.2384016938D+03 Coefficients=  5.4568832082D-03
     Exponent=  1.8629004992D+02 Coefficients=  4.0638409211D-02
     Exponent=  4.2251176346D+01 Coefficients=  1.8025593888D-01
     Exponent=  1.1676557932D+01 Coefficients=  4.6315121755D-01
     Exponent=  3.5930506482D+00 Coefficients=  4.4087173314D-01
 S 1 1.00
     Exponent=  4.0245147363D-01 Coefficients=  1.0000000000D+00
 S 1 1.00
     Exponent=  1.3090182668D-01 Coefficients=  1.0000000000D+00
 S 1 1.00
     Exponent=  6.7053540256D-02 Coefficients=  1.0000000000D+00
 P 3 1.00
     Exponent=  9.4680970621D+00 Coefficients=  3.8387871728D-02
     Exponent=  2.0103545142D+00 Coefficients=  2.1117025112D-01
     Exponent=  5.4771004707D-01 Coefficients=  5.1328172114D-01
 P 1 1.00
     Exponent=  1.5268613795D-01 Coefficients=  1.0000000000D+00
 D 1 1.00
     Exponent=  8.0000000000D-01 Coefficients=  1.0000000000D+00
 D 1 1.00
     Exponent=  1.1713185140D-01 Coefficients=  1.0000000000D+00
 ****
 Ernie: Thresh=  0.10000D-02 Tol=  0.10000D-05 Strict=F.
 There are    18 symmetry adapted cartesian basis functions of AG  symmetry.
 There are     4 symmetry adapted cartesian basis functions of B1G symmetry.
 There are     6 symmetry adapted cartesian basis functions of B2G symmetry.
 There are    10 symmetry adapted cartesian basis functions of B3G symmetry.
 There are     4 symmetry adapted cartesian basis functions of AU  symmetry.
 There are    18 symmetry adapted cartesian basis functions of B1U symmetry.
 There are    10 symmetry adapted cartesian basis functions of B2U symmetry.
 There are     6 symmetry adapted cartesian basis functions of B3U symmetry.
 There are    16 symmetry adapted basis functions of AG  symmetry.
 There are     4 symmetry adapted basis functions of B1G symmetry.
 There are     6 symmetry adapted basis functions of B2G symmetry.
 There are    10 symmetry adapted basis functions of B3G symmetry.
 There are     4 symmetry adapted basis functions of AU  symmetry.
 There are    16 symmetry adapted basis functions of B1U symmetry.
 There are    10 symmetry adapted basis functions of B2U symmetry.
 There are     6 symmetry adapted basis functions of B3U symmetry.
    72 basis functions,   104 primitive gaussians,    76 cartesian basis functions
     8 alpha electrons        8 beta electrons
       nuclear repulsion energy        33.5201042511 Hartrees.
 IExCor= 1009 DFT=T Ex=PBE Corr=PBE ExCW=0 ScaHFX=  0.000000
 ScaDFX=  1.000000  1.000000  1.000000  1.000000 ScalE2=  1.000000  1.000000
 IRadAn=      5 IRanWt=     -1 IRanGd=            0 ICorTp=0 IEmpDi=  4
 NAtoms=    6 NActive=    6 NUniq=    2 SFac= 4.00D+00 NAtFMM=   60 NAOKFM=F Big=F
 Integral buffers will be    131072 words long.
 Regular integral format.
 Two-electron integral symmetry is turned on.
 Leave Link  301 at Mon Mar 21 20:20:00 2022, MaxMem=  8589934592 cpu:               0.5 elap:               0.1
 (Enter /home/sabyasachi/g16/l302.exe)
 NPDir=0 NMtPBC=     1 NCelOv=     1 NCel=       1 NClECP=     1 NCelD=      1
         NCelK=      1 NCelE2=     1 NClLst=     1 CellRange=     0.0.
 One-electron integrals computed using PRISM.
 One-electron integral symmetry used in STVInt
 NBasis=    72 RedAO= T EigKep=  8.68D-05  NBF=    16     4     6    10     4    16    10     6
 NBsUse=    72 1.00D-06 EigRej= -1.00D+00 NBFU=    16     4     6    10     4    16    10     6
 Precomputing XC quadrature grid using
 IXCGrd= 4 IRadAn=           5 IRanWt=          -1 IRanGd=           0 AccXCQ= 0.00D+00.
 Generated NRdTot=       0 NPtTot=           0 NUsed=           0 NTot=          32
 NSgBfM=    76    76    76    76    76 MxSgAt=     6 MxSgA2=     6.
 Leave Link  302 at Mon Mar 21 20:20:00 2022, MaxMem=  8589934592 cpu:               1.0 elap:               0.1
 (Enter /home/sabyasachi/g16/l303.exe)
 DipDrv:  MaxL=1.
 Leave Link  303 at Mon Mar 21 20:20:00 2022, MaxMem=  8589934592 cpu:               0.2 elap:               0.0
 (Enter /home/sabyasachi/g16/l308.exe)
 Leave Link  308 at Mon Mar 21 20:20:00 2022, MaxMem=  8589934592 cpu:               0.2 elap:               0.0
 (Enter /home/sabyasachi/g16/l401.exe)
 ExpMin= 6.71D-02 ExpMax= 1.24D+03 ExpMxC= 1.86D+02 IAcc=3 IRadAn=         5 AccDes= 0.00D+00
 Harris functional with IExCor= 1009 and IRadAn=       5 diagonalized for initial guess.
 HarFok:  IExCor= 1009 AccDes= 0.00D+00 IRadAn=         5 IDoV= 1 UseB2=F ITyADJ=14
 ICtDFT=  3500011 ScaDFX=  1.000000  1.000000  1.000000  1.000000
 FoFCou: FMM=F IPFlag=           0 FMFlag=      100000 FMFlg1=           0
         NFxFlg=           0 DoJE=T BraDBF=F KetDBF=T FulRan=T
         wScrn=  0.000000 ICntrl=       500 IOpCl=  0 I1Cent=   200000004 NGrid=           0
         NMat0=    1 NMatS0=      1 NMatT0=    0 NMatD0=    1 NMtDS0=    0 NMtDT0=    0
 Petite list used in FoFCou.
 Harris En= -78.4877733314639    
 JPrj=0 DoOrth=F DoCkMO=F.
 Initial guess orbital symmetries:
       Occupied  (AG) (B1U) (AG) (B1U) (B2U) (AG) (B3G) (B3U)
       Virtual   (B2G) (AG) (B2U) (B1U) (AG) (B3G) (AG) (B3U) (B1G)
                 (B1U) (B2U) (B2G) (B1U) (AU) (AG) (B2U) (B3U)
                 (B1U) (B3G) (B1U) (AG) (B3G) (B2U) (AG) (B1G)
                 (B1U) (B2G) (B1U) (AU) (B3G) (AG) (B3U) (B3G)
                 (B2G) (B2U) (AG) (B1U) (B1U) (AG) (B2U) (B1U)
                 (B3G) (B3U) (B1G) (AU) (B2U) (AG) (B2G) (AG) (B2U)
                 (B1U) (B3U) (B3G) (B1G) (B3G) (B1U) (AU) (AG)
                 (B2G) (AG) (B2U) (B1U) (B1U) (B3G)
 The electronic state of the initial guess is 1-AG.
 Leave Link  401 at Mon Mar 21 20:20:00 2022, MaxMem=  8589934592 cpu:               1.2 elap:               0.2
 (Enter /home/sabyasachi/g16/l502.exe)
 Keep J ints in memory in symmetry-blocked form, NReq=10678306.
 FoFCou: FMM=F IPFlag=           0 FMFlag=           0 FMFlg1=           0
         NFxFlg=           0 DoJE=F BraDBF=F KetDBF=F FulRan=T
         wScrn=  0.000000 ICntrl=       600 IOpCl=  0 I1Cent=           0 NGrid=           0
         NMat0=    1 NMatS0=   2628 NMatT0=    0 NMatD0=    1 NMtDS0=    0 NMtDT0=    0
 Petite list used in FoFCou.
 Closed shell SCF:
 Using DIIS extrapolation, IDIIS=  1040.
 NGot=  8589934592 LenX=  8589457632 LenY=  8589451415
 Requested convergence on RMS density matrix=1.00D-08 within 100 cycles.
 Requested convergence on MAX density matrix=1.00D-06.
 Requested convergence on             energy=1.00D-06.
 No special actions if energy rises.
 Integral accuracy reduced to 1.0D-05 until final iterations.

 Cycle   1  Pass 0  IDiag  1:
 E= -78.3392690009038    
 DIIS: error= 4.18D-02 at cycle   1 NSaved=   1.
 NSaved= 1 IEnMin= 1 EnMin= -78.3392690009038     IErMin= 1 ErrMin= 4.18D-02
 ErrMax= 4.18D-02  0.00D+00 EMaxC= 1.00D-01 BMatC= 6.30D-02 BMatP= 6.30D-02
 IDIUse=3 WtCom= 5.82D-01 WtEn= 4.18D-01
 Coeff-Com:  0.100D+01
 Coeff-En:   0.100D+01
 Coeff:      0.100D+01
 Gap=     0.172 Goal=   None    Shift=    0.000
 GapD=    0.172 DampG=1.000 DampE=0.500 DampFc=0.5000 IDamp=-1.
 Damping current iteration by 5.00D-01
 RMSDP=8.31D-03 MaxDP=1.30D-01              OVMax= 2.03D-01

 Cycle   2  Pass 0  IDiag  1:
 E= -78.3650051603578     Delta-E=       -0.025736159454 Rises=F Damp=T
 DIIS: error= 7.66D-03 at cycle   2 NSaved=   2.
 NSaved= 2 IEnMin= 2 EnMin= -78.3650051603578     IErMin= 2 ErrMin= 7.66D-03
 ErrMax= 7.66D-03  0.00D+00 EMaxC= 1.00D-01 BMatC= 3.66D-03 BMatP= 6.30D-02
 IDIUse=3 WtCom= 9.23D-01 WtEn= 7.66D-02
 Coeff-Com:  0.175D+00 0.825D+00
 Coeff-En:   0.297D+00 0.703D+00
 Coeff:      0.184D+00 0.816D+00
 Gap=     0.222 Goal=   None    Shift=    0.000
 RMSDP=1.72D-03 MaxDP=2.80D-02 DE=-2.57D-02 OVMax= 1.23D-01

 Cycle   3  Pass 0  IDiag  1:
 E= -78.4156849352222     Delta-E=       -0.050679774864 Rises=F Damp=F
 DIIS: error= 1.13D-03 at cycle   3 NSaved=   3.
 NSaved= 3 IEnMin= 3 EnMin= -78.4156849352222     IErMin= 3 ErrMin= 1.13D-03
 ErrMax= 1.13D-03  0.00D+00 EMaxC= 1.00D-01 BMatC= 3.56D-05 BMatP= 3.66D-03
 IDIUse=3 WtCom= 9.89D-01 WtEn= 1.13D-02
 Coeff-Com:  0.123D-01 0.100D+00 0.887D+00
 Coeff-En:   0.000D+00 0.000D+00 0.100D+01
 Coeff:      0.121D-01 0.992D-01 0.889D+00
 Gap=     0.215 Goal=   None    Shift=    0.000
 RMSDP=4.57D-04 MaxDP=8.96D-03 DE=-5.07D-02 OVMax= 2.98D-03

 Cycle   4  Pass 0  IDiag  1:
 E= -78.4157254454988     Delta-E=       -0.000040510277 Rises=F Damp=F
 DIIS: error= 2.32D-04 at cycle   4 NSaved=   4.
 NSaved= 4 IEnMin= 4 EnMin= -78.4157254454988     IErMin= 4 ErrMin= 2.32D-04
 ErrMax= 2.32D-04  0.00D+00 EMaxC= 1.00D-01 BMatC= 2.47D-06 BMatP= 3.56D-05
 IDIUse=3 WtCom= 9.98D-01 WtEn= 2.32D-03
 Coeff-Com: -0.988D-04 0.158D-01 0.239D+00 0.746D+00
 Coeff-En:   0.000D+00 0.000D+00 0.000D+00 0.100D+01
 Coeff:     -0.986D-04 0.158D-01 0.238D+00 0.746D+00
 Gap=     0.215 Goal=   None    Shift=    0.000
 RMSDP=6.50D-05 MaxDP=1.16D-03 DE=-4.05D-05 OVMax= 6.22D-04

 Cycle   5  Pass 0  IDiag  1:
 E= -78.4157282453251     Delta-E=       -0.000002799826 Rises=F Damp=F
 DIIS: error= 1.83D-05 at cycle   5 NSaved=   5.
 NSaved= 5 IEnMin= 5 EnMin= -78.4157282453251     IErMin= 5 ErrMin= 1.83D-05
 ErrMax= 1.83D-05  0.00D+00 EMaxC= 1.00D-01 BMatC= 2.00D-08 BMatP= 2.47D-06
 IDIUse=1 WtCom= 1.00D+00 WtEn= 0.00D+00
 Coeff-Com: -0.360D-03 0.153D-03 0.242D-01 0.129D+00 0.847D+00
 Coeff:     -0.360D-03 0.153D-03 0.242D-01 0.129D+00 0.847D+00
 Gap=     0.215 Goal=   None    Shift=    0.000
 RMSDP=6.24D-06 MaxDP=5.85D-05 DE=-2.80D-06 OVMax= 5.42D-05

 Initial convergence to 1.0D-05 achieved.  Increase integral accuracy.
 Cycle   6  Pass 1  IDiag  1:
 E= -78.4157304121407     Delta-E=       -0.000002166816 Rises=F Damp=F
 DIIS: error= 2.25D-06 at cycle   1 NSaved=   1.
 NSaved= 1 IEnMin= 1 EnMin= -78.4157304121407     IErMin= 1 ErrMin= 2.25D-06
 ErrMax= 2.25D-06  0.00D+00 EMaxC= 1.00D-01 BMatC= 1.82D-10 BMatP= 1.82D-10
 IDIUse=1 WtCom= 1.00D+00 WtEn= 0.00D+00
 Coeff-Com:  0.100D+01
 Coeff:      0.100D+01
 Gap=     0.215 Goal=   None    Shift=    0.000
 RMSDP=6.24D-06 MaxDP=5.85D-05 DE=-2.17D-06 OVMax= 1.10D-05

 Cycle   7  Pass 1  IDiag  1:
 E= -78.4157304122213     Delta-E=       -0.000000000081 Rises=F Damp=F
 DIIS: error= 2.30D-06 at cycle   2 NSaved=   2.
 NSaved= 2 IEnMin= 2 EnMin= -78.4157304122213     IErMin= 1 ErrMin= 2.25D-06
 ErrMax= 2.30D-06  0.00D+00 EMaxC= 1.00D-01 BMatC= 2.10D-10 BMatP= 1.82D-10
 IDIUse=1 WtCom= 1.00D+00 WtEn= 0.00D+00
 Coeff-Com:  0.521D+00 0.479D+00
 Coeff:      0.521D+00 0.479D+00
 Gap=     0.215 Goal=   None    Shift=    0.000
 RMSDP=2.47D-07 MaxDP=3.69D-06 DE=-8.06D-11 OVMax= 5.18D-06

 Cycle   8  Pass 1  IDiag  1:
 E= -78.4157304124593     Delta-E=       -0.000000000238 Rises=F Damp=F
 DIIS: error= 2.82D-07 at cycle   3 NSaved=   3.
 NSaved= 3 IEnMin= 3 EnMin= -78.4157304124593     IErMin= 3 ErrMin= 2.82D-07
 ErrMax= 2.82D-07  0.00D+00 EMaxC= 1.00D-01 BMatC= 5.13D-12 BMatP= 1.82D-10
 IDIUse=1 WtCom= 1.00D+00 WtEn= 0.00D+00
 Coeff-Com:  0.212D-01 0.141D+00 0.838D+00
 Coeff:      0.212D-01 0.141D+00 0.838D+00
 Gap=     0.215 Goal=   None    Shift=    0.000
 RMSDP=5.03D-08 MaxDP=5.88D-07 DE=-2.38D-10 OVMax= 5.91D-07

 Cycle   9  Pass 1  IDiag  1:
 E= -78.4157304124633     Delta-E=       -0.000000000004 Rises=F Damp=F
 DIIS: error= 2.25D-08 at cycle   4 NSaved=   4.
 NSaved= 4 IEnMin= 4 EnMin= -78.4157304124633     IErMin= 4 ErrMin= 2.25D-08
 ErrMax= 2.25D-08  0.00D+00 EMaxC= 1.00D-01 BMatC= 1.70D-14 BMatP= 5.13D-12
 IDIUse=1 WtCom= 1.00D+00 WtEn= 0.00D+00
 Coeff-Com: -0.617D-03 0.211D-01 0.102D+00 0.878D+00
 Coeff:     -0.617D-03 0.211D-01 0.102D+00 0.878D+00
 Gap=     0.215 Goal=   None    Shift=    0.000
 RMSDP=9.31D-09 MaxDP=8.64D-08 DE=-3.98D-12 OVMax= 4.77D-08

 SCF Done:  E(RPBE-PBE) =  -78.4157304125     A.U. after    9 cycles
            NFock=  9  Conv=0.93D-08     -V/T= 2.0115
 KE= 7.752131030247D+01 PE=-2.479843565583D+02 EE= 5.852721159224D+01
 Leave Link  502 at Mon Mar 21 20:20:01 2022, MaxMem=  8589934592 cpu:               2.3 elap:               0.3
 (Enter /home/sabyasachi/g16/l801.exe)
 DoSCS=F DFT=T ScalE2(SS,OS)=  1.000000  1.000000
 ExpMin= 6.71D-02 ExpMax= 1.24D+03 ExpMxC= 1.86D+02 IAcc=3 IRadAn=         5 AccDes= 0.00D+00
 HarFok:  IExCor=  205 AccDes= 0.00D+00 IRadAn=         5 IDoV=-2 UseB2=F ITyADJ=14
 ICtDFT= 12500011 ScaDFX=  1.000000  1.000000  1.000000  1.000000
 Largest valence mixing into a core orbital is  6.65D-05
 Largest core mixing into a valence orbital is  1.26D-05
 Range of M.O.s used for correlation:     3    72
 NBasis=    72 NAE=     8 NBE=     8 NFC=     2 NFV=     0
 NROrb=     70 NOA=     6 NOB=     6 NVA=    64 NVB=    64

 **** Warning!!: The largest alpha MO coefficient is  0.36490128D+02

 Leave Link  801 at Mon Mar 21 20:20:01 2022, MaxMem=  8589934592 cpu:               0.4 elap:               0.1
 (Enter /home/sabyasachi/g16/l914.exe)
 RHF ground state
 Keep J ints in memory in symmetry-blocked form, NReq=205710798.
 FoFCou: FMM=F IPFlag=           0 FMFlag=           0 FMFlg1=           0
         NFxFlg=           0 DoJE=F BraDBF=F KetDBF=F FulRan=T
         wScrn=  0.000000 ICntrl=       600 IOpCl=  0 I1Cent=           0 NGrid=           0
         NMat0=    1 NMatS0=   2628 NMatT0=    0 NMatD0=    1 NMtDS0=    0 NMtDT0=    0
 Petite list used in FoFCou.
 MDV=  8589934592 DFT=T DoStab=F Mixed=F DoRPA=T DoScal=T NonHer=F
 Making orbital integer symmetry assigments:
 Orbital symmetries:
       Occupied  (AG) (B1U) (AG) (B1U) (B2U) (AG) (B3G) (B3U)
       Virtual   (B2G) (AG) (B1U) (B2U) (AG) (B3G) (AG) (B3U) (B1G)
                 (B1U) (B2U) (B2G) (B1U) (AU) (AG) (B2U) (B3U)
                 (B1U) (B3G) (AG) (B2U) (B3G) (B1U) (AG) (B1G)
                 (B2G) (B1U) (B1U) (AU) (B3G) (AG) (B3U) (B3G)
                 (B2G) (B2U) (AG) (B1U) (AG) (B1U) (B2U) (B1U)
                 (B3G) (B1G) (B3U) (AU) (B2U) (B2G) (AG) (B3G)
                 (B2U) (AG) (B1U) (B3U) (B1G) (B3G) (B1U) (AU)
                 (AG) (B2G) (AG) (B2U) (B1U) (B1U) (B3G)
   384 initial guesses have been made.
 Convergence on wavefunction:    0.001000000000000
 Davidson Disk Diagonalization:  ConvIn= 1.00D-03 SkipCon=T Conv= 1.00D-03.
 Max sub-space:  1536 roots to seek:   768 dimension of matrix:          768
 *** WARNING: Number of orthogonal guesses is          384
 Iteration     1 Dimension   384 NMult     0 NNew    384
 CISAX will form   384 AO SS matrices at one time.
 NMat=   384 NSing=   384 JSym2X=-1.
 New state      1 was old state      2
 New state      2 was old state      3
 New state      3 was old state      1
 New state     18 was old state     19
 New state     19 was old state     18
 New state     21 was old state     22
 New state     22 was old state     21
 New state     25 was old state     26
 New state     26 was old state     25
 New state     28 was old state     31
 New state     29 was old state     32
 New state     30 was old state     29
 New state     31 was old state     34
 New state     32 was old state     30
 New state     33 was old state     36
 New state     34 was old state     33
 New state     35 was old state     28
 New state     36 was old state     35
 New state     37 was old state     38
 New state     38 was old state     41
 New state     39 was old state     37
 New state     40 was old state     42
 New state     41 was old state     40
 New state     42 was old state     39
 New state     44 was old state     45
 New state     45 was old state     44
 New state     46 was old state     48
 New state     47 was old state     50
 New state     48 was old state     51
 New state     49 was old state     46
 New state     50 was old state     52
 New state     51 was old state     47
 New state     52 was old state     49
 New state     53 was old state     54
 New state     54 was old state     56
 New state     56 was old state     57
 New state     57 was old state     53
 New state     61 was old state     63
 New state     62 was old state     61
 New state     63 was old state     62
 New state     65 was old state     66
 New state     66 was old state     67
 New state     67 was old state     65
 New state     68 was old state     69
 New state     69 was old state     72
 New state     70 was old state     73
 New state     72 was old state     68
 New state     73 was old state     74
 New state     74 was old state     76
 New state     75 was old state     77
 New state     76 was old state     78
 New state     77 was old state     75
 New state     78 was old state     80
 New state     79 was old state     82
 New state     80 was old state     79
 New state     81 was old state     70
 New state     82 was old state     81
 New state     84 was old state     86
 New state     85 was old state     87
 New state     86 was old state     84
 New state     87 was old state     85
 New state     90 was old state     91
 New state     91 was old state     90
 New state     93 was old state     94
 New state     94 was old state     96
 New state     95 was old state    100
 New state     96 was old state     95
 New state     97 was old state     93
 New state     98 was old state     99
 New state     99 was old state     98
 New state    100 was old state     97
 New state    101 was old state    104
 New state    102 was old state    105
 New state    103 was old state    102
 New state    104 was old state    107
 New state    105 was old state    108
 New state    107 was old state    109
 New state    108 was old state    110
 New state    109 was old state    103
 New state    110 was old state    116
 New state    111 was old state    112
 New state    112 was old state    114
 New state    113 was old state    117
 New state    114 was old state    111
 New state    116 was old state    113
 New state    117 was old state    119
 New state    119 was old state    135
 New state    120 was old state    122
 New state    121 was old state    120
 New state    122 was old state    123
 New state    123 was old state    121
 New state    124 was old state    125
 New state    125 was old state    124
 New state    126 was old state    131
 New state    128 was old state    129
 New state    129 was old state    126
 New state    130 was old state    133
 New state    131 was old state    132
 New state    132 was old state    134
 New state    133 was old state    128
 New state    134 was old state    138
 New state    135 was old state    137
 New state    136 was old state    139
 New state    137 was old state    140
 New state    138 was old state    157
 New state    139 was old state    130
 New state    140 was old state    142
 New state    142 was old state    136
 New state    146 was old state    147
 New state    147 was old state    149
 New state    148 was old state    146
 New state    149 was old state    148
 New state    150 was old state    152
 New state    151 was old state    150
 New state    152 was old state    155
 New state    153 was old state    156
 New state    155 was old state    153
 New state    156 was old state    151
 New state    157 was old state    158
 New state    158 was old state    159
 New state    159 was old state    162
 New state    160 was old state    161
 New state    161 was old state    163
 New state    162 was old state    160
 New state    163 was old state    164
 New state    164 was old state    166
 New state    165 was old state    174
 New state    166 was old state    167
 New state    167 was old state    168
 New state    168 was old state    165
 New state    169 was old state    170
 New state    170 was old state    169
 New state    171 was old state    172
 New state    172 was old state    173
 New state    173 was old state    171
 New state    174 was old state    175
 New state    175 was old state    188
 New state    181 was old state    183
 New state    182 was old state    184
 New state    183 was old state    182
 New state    184 was old state    185
 New state    185 was old state    181
 New state    188 was old state    189
 New state    189 was old state    191
 New state    191 was old state    192
 New state    192 was old state    206
 New state    193 was old state    195
 New state    194 was old state    193
 New state    195 was old state    197
 New state    197 was old state    194
 New state    198 was old state    200
 New state    199 was old state    198
 New state    200 was old state    199
 New state    201 was old state    202
 New state    202 was old state    203
 New state    203 was old state    204
 New state    204 was old state    205
 New state    205 was old state    201
 New state    206 was old state    208
 New state    207 was old state    209
 New state    208 was old state    210
 New state    209 was old state    207
 New state    210 was old state    230
 New state    211 was old state    212
 New state    212 was old state    215
 New state    213 was old state    217
 New state    214 was old state    216
 New state    215 was old state    211
 New state    216 was old state    214
 New state    217 was old state    213
 New state    218 was old state    219
 New state    219 was old state    218
 New state    223 was old state    225
 New state    224 was old state    223
 New state    225 was old state    224
 New state    226 was old state    228
 New state    227 was old state    229
 New state    228 was old state    231
 New state    229 was old state    227
 New state    230 was old state    232
 New state    231 was old state    226
 New state    232 was old state    244
 New state    233 was old state    234
 New state    234 was old state    233
 New state    237 was old state    239
 New state    238 was old state    240
 New state    239 was old state    237
 New state    240 was old state    238
 New state    244 was old state    245
 New state    245 was old state    246
 New state    246 was old state    248
 New state    247 was old state    249
 New state    248 was old state    247
 New state    249 was old state    250
 New state    250 was old state    253
 No map to state    253
 New state    254 was old state    255
 New state    255 was old state    257
 New state    256 was old state    258
 New state    257 was old state    259
 New state    258 was old state    256
 New state    259 was old state    254
 New state    260 was old state    261
 New state    261 was old state    260
 New state    267 was old state    268
 New state    268 was old state    269
 New state    269 was old state    267
 New state    274 was old state    276
 New state    275 was old state    274
 New state    276 was old state    275
 New state    282 was old state    283
 New state    283 was old state    284
 New state    284 was old state    285
 New state    285 was old state    282
 New state    287 was old state    289
 New state    289 was old state    287
 New state    290 was old state    291
 New state    291 was old state    290
 New state    295 was old state    299
 New state    296 was old state    295
 New state    297 was old state    296
 New state    298 was old state    297
 New state    299 was old state    298
 New state    302 was old state    303
 New state    303 was old state    304
 New state    304 was old state    305
 New state    305 was old state    302
 New state    306 was old state    307
 New state    307 was old state    308
 New state    308 was old state    309
 New state    309 was old state    311
 New state    311 was old state    312
 New state    312 was old state    306
 New state    314 was old state    315
 New state    315 was old state    314
 New state    321 was old state    323
 New state    323 was old state    321
 New state    330 was old state    331
 New state    331 was old state    330
 New state    335 was old state    336
 New state    336 was old state    335
 New state    340 was old state    342
 New state    342 was old state    343
 New state    343 was old state    340
 New state    356 was old state    357
 New state    357 was old state    356
 New state    358 was old state    359
 New state    359 was old state    358
 New state    362 was old state    363
 New state    363 was old state    362
 Excitation Energies [eV] at current iteration:
 Root      1 :     7.389956638646340
 Root      2 :     7.747910777066293
 Root      3 :     7.911449182316075
 Root      4 :     8.002969929118859
 Root      5 :     8.752731105430128
 Root      6 :     9.078447847706887
 Root      7 :     9.483844893063557
 Root      8 :     9.710673581876481
 Root      9 :     9.898527368133193
 Root     10 :    10.363984427656520
 Root     11 :    10.643183617588450
 Root     12 :    10.755974526412840
 Root     13 :    10.914717500748380
 Root     14 :    10.935903622463590
 Root     15 :    11.353446263424690
 Root     16 :    11.363477555980620
 Root     17 :    11.480540696161860
 Root     18 :    11.591279583519050
 Root     19 :    11.657985286986160
 Root     20 :    11.993387079424660
 Root     21 :    12.131795259387420
 Root     22 :    12.348375465598840
 Root     23 :    12.355136423490660
 Root     24 :    12.484592202650920
 Root     25 :    12.671908123053190
 Root     26 :    12.724691099948900
 Root     27 :    12.983936874567400
 Root     28 :    13.332751910975710
 Root     29 :    13.470738605139950
 Root     30 :    13.558885279422930
 Root     31 :    13.572675503631170
 Root     32 :    13.590443978744290
 Root     33 :    13.792524590199640
 Root     34 :    13.834698095104130
 Root     35 :    14.014481551295760
 Root     36 :    14.113555398526110
 Root     37 :    14.598127646398240
 Root     38 :    14.672663001623600
 Root     39 :    14.695425539281100
 Root     40 :    14.805905049018520
 Root     41 :    14.806145953388450
 Root     42 :    14.878931675507110
 Root     43 :    15.033803261489230
 Root     44 :    15.109558368830750
 Root     45 :    15.150476545714950
 Root     46 :    15.317792838777950
 Root     47 :    15.470344366912750
 Root     48 :    15.566778930257380
 Root     49 :    15.617802426397350
 Root     50 :    15.731185348239130
 Root     51 :    15.741497891107540
 Root     52 :    15.812248926673780
 Root     53 :    15.904342817988980
 Root     54 :    15.987495300878420
 Root     55 :    16.092872548945060
 Root     56 :    16.156921216198910
 Root     57 :    16.249177511336410
 Root     58 :    16.365256883168230
 Root     59 :    16.540011026783740
 Root     60 :    16.920989654031510
 Root     61 :    16.962440091469880
 Root     62 :    16.984202020626540
 Root     63 :    17.010956247022680
 Root     64 :    17.271044509496250
 Root     65 :    17.541310326565650
 Root     66 :    17.612233645921290
 Root     67 :    17.670107465453260
 Root     68 :    17.677172960383400
 Root     69 :    17.851650845386210
 Root     70 :    17.862209934945980
 Root     71 :    17.870696171211940
 Root     72 :    17.876573849369390
 Root     73 :    18.020187409318260
 Root     74 :    18.145824078032160
 Root     75 :    18.164090369514060
 Root     76 :    18.182664589832500
 Root     77 :    18.187156372548920
 Root     78 :    18.338416492194940
 Root     79 :    18.342438941490020
 Root     80 :    18.365585955899920
 Root     81 :    18.530558869965180
 Root     82 :    18.538218043199720
 Root     83 :    18.615102659630400
 Root     84 :    18.936061143374070
 Root     85 :    18.962352810392170
 Root     86 :    19.077978254310370
 Root     87 :    19.207644320705960
 Root     88 :    19.419270599787230
 Root     89 :    19.480904430311670
 Root     90 :    19.520311718506750
 Root     91 :    19.553733775783210
 Root     92 :    19.589650910884000
 Root     93 :    19.766791139338830
 Root     94 :    19.865897313148390
 Root     95 :    19.970136134136440
 Root     96 :    20.107242911612410
 Root     97 :    20.114751912864810
 Root     98 :    20.115972977516570
 Root     99 :    20.399398922864770
 Root    100 :    20.581311091920370
 Root    101 :    20.589490073331800
 Root    102 :    20.615038340398080
 Root    103 :    20.627327747363100
 Root    104 :    20.662228400838020
 Root    105 :    20.713539268804900
 Root    106 :    20.774221469558230
 Root    107 :    20.888025825429410
 Root    108 :    20.902975399609310
 Root    109 :    21.031948112804290
 Root    110 :    21.229700202128430
 Root    111 :    21.498844688355820
 Root    112 :    21.605276177085350
 Root    113 :    21.769633507973680
 Root    114 :    21.820931148770810
 Root    115 :    21.848811021898970
 Root    116 :    21.878863311273960
 Root    117 :    22.075605017890300
 Root    118 :    22.092231302214760
 Root    119 :    22.121551672052270
 Root    120 :    22.142585458109280
 Root    121 :    22.393754787913510
 Root    122 :    22.398696791037220
 Root    123 :    22.592150703586820
 Root    124 :    22.803185334756180
 Root    125 :    22.897783548307960
 Root    126 :    22.912708765947620
 Root    127 :    22.982606802332520
 Root    128 :    23.018587864246580
 Root    129 :    23.094645762729260
 Root    130 :    23.246635097015780
 Root    131 :    23.280144362551990
 Root    132 :    23.406260983948750
 Root    133 :    23.445139857396340
 Root    134 :    23.461793636998410
 Root    135 :    23.578468578200620
 Root    136 :    23.631490943454360
 Root    137 :    23.708084780656360
 Root    138 :    23.749241169448260
 Root    139 :    23.796830173732870
 Root    140 :    24.120241567441770
 Root    141 :    24.154606709956790
 Root    142 :    24.317294315595760
 Root    143 :    24.598696428218450
 Root    144 :    24.726257811580800
 Root    145 :    24.733032019160670
 Root    146 :    25.300843945183520
 Root    147 :    25.384069304069030
 Root    148 :    25.414565513464240
 Root    149 :    25.436091623947150
 Root    150 :    25.461249141693230
 Root    151 :    25.546760706587930
 Root    152 :    25.658902630375580
 Root    153 :    25.703410758155580
 Root    154 :    25.738567889389290
 Root    155 :    26.001412502997250
 Root    156 :    26.281847970111080
 Root    157 :    26.290358723798860
 Root    158 :    26.384527234721420
 Root    159 :    26.430316578655050
 Root    160 :    26.731843991021380
 Root    161 :    27.140498939427480
 Root    162 :    27.281038358859360
 Root    163 :    27.347970759989320
 Root    164 :    27.382209440820760
 Root    165 :    27.584303501193170
 Root    166 :    27.708287820877420
 Root    167 :    27.882907828727960
 Root    168 :    27.954134347031990
 Root    169 :    28.086895222106880
 Root    170 :    28.168299823305000
 Root    171 :    29.194588312549270
 Root    172 :    29.211088789692820
 Root    173 :    29.360839139459160
 Root    174 :    29.409602657718870
 Root    175 :    29.495020714940130
 Root    176 :    29.662449750495950
 Root    177 :    29.756060629043140
 Root    178 :    29.963276128535070
 Root    179 :    30.005342329849510
 Root    180 :    30.164701440070510
 Root    181 :    30.245330444264220
 Root    182 :    30.306202673252130
 Root    183 :    30.420654363585590
 Root    184 :    30.423951728837500
 Root    185 :    30.447869033212650
 Root    186 :    30.472576009040510
 Root    187 :    30.926149764013750
 Root    188 :    31.293257122775060
 Root    189 :    31.945104005229300
 Root    190 :    32.092948616204980
 Root    191 :    32.398249203989760
 Root    192 :    32.499134404116400
 Root    193 :    32.777270026824380
 Root    194 :    32.829707300655730
 Root    195 :    33.001646059233840
 Root    196 :    33.102736730782630
 Root    197 :    33.126467175828060
 Root    198 :    33.983994881912490
 Root    199 :    33.987188383544410
 Root    200 :    34.048902362608970
 Root    201 :    34.192652148184870
 Root    202 :    34.313363300046210
 Root    203 :    34.726774504634070
 Root    204 :    34.901981458447800
 Root    205 :    34.982217609813620
 Root    206 :    35.230127987822670
 Root    207 :    35.302966307627750
 Root    208 :    35.388110556293200
 Root    209 :    35.580592404144380
 Root    210 :    36.231311344942160
 Root    211 :    36.707849806244030
 Root    212 :    36.961950068598850
 Root    213 :    37.038239223940270
 Root    214 :    37.189419620717570
 Root    215 :    37.248326130257770
 Root    216 :    37.267239217245040
 Root    217 :    37.540697852490100
 Root    218 :    37.691520681331550
 Root    219 :    37.796190728330730
 Root    220 :    37.800572178457130
 Root    221 :    38.028109381389900
 Root    222 :    38.340989371380880
 Root    223 :    39.165724090002550
 Root    224 :    39.255962638506300
 Root    225 :    39.368376888003650
 Root    226 :    40.066684224395380
 Root    227 :    40.216870808735370
 Root    228 :    40.472232664463640
 Root    229 :    40.660644344746890
 Root    230 :    40.780937412633780
 Root    231 :    40.885622232644210
 Root    232 :    40.993372775535700
 Root    233 :    41.619346677513090
 Root    234 :    41.642473450865320
 Root    235 :    41.967452183532850
 Root    236 :    42.589569100171990
 Root    237 :    42.747837827120810
 Root    238 :    42.873500270632060
 Root    239 :    42.963373030741120
 Root    240 :    43.236866298219470
 Root    241 :    43.501765504469930
 Root    242 :    43.957386201976320
 Root    243 :    44.423690692024080
 Root    244 :    44.569370980571280
 Root    245 :    44.926005608989260
 Root    246 :    45.145914433723110
 Root    247 :    45.299116987893000
 Root    248 :    45.407184382982190
 Root    249 :    45.866956854763920
 Root    250 :    46.149222508734510
 Root    251 :    46.675942339486870
 Root    252 :    47.236046622358580
 Root    253 :    47.443294188281030
 Root    254 :    47.629140427329210
 Root    255 :    48.137703991188400
 Root    256 :    48.355159053243880
 Root    257 :    48.463993911458670
 Root    258 :    48.622689668571480
 Root    259 :    49.294726513211810
 Root    260 :    50.414316514727220
 Root    261 :    50.789727547308960
 Root    262 :    50.823388548234770
 Root    263 :    51.044718919941050
 Root    264 :    51.607411369883490
 Root    265 :    52.145259613623300
 Root    266 :    52.705597623333600
 Root    267 :    52.823621949501030
 Root    268 :    52.880801950510030
 Root    269 :    53.319037702797440
 Root    270 :    54.196744926362140
 Root    271 :    54.330104708486130
 Root    272 :    54.907261809697780
 Root    273 :    55.163008916529750
 Root    274 :    55.861644591194330
 Root    275 :    55.892382811460680
 Root    276 :    56.030925372149610
 Root    277 :    56.280382915131770
 Root    278 :    56.525422694471690
 Root    279 :    56.782810199295320
 Root    280 :    56.896553899306600
 Root    281 :    56.991372152114460
 Root    282 :    57.324544769661200
 Root    283 :    57.416226082880390
 Root    284 :    57.677305158968090
 Root    285 :    57.788383433351260
 Root    286 :    57.841965010172880
 Root    287 :    58.643602979059400
 Root    288 :    58.856616329280020
 Root    289 :    58.915234326171390
 Root    290 :    58.929379174411680
 Root    291 :    59.001026027135740
 Root    292 :    59.699657481546040
 Root    293 :    60.154105475851440
 Root    294 :    60.205010369988630
 Root    295 :    60.364021560259430
 Root    296 :    60.392437008013690
 Root    297 :    60.423790595531130
 Root    298 :    60.772391931841630
 Root    299 :    60.798160433398650
 Root    300 :    61.299660146181190
 Root    301 :    61.756769632908290
 Root    302 :    61.794660457698440
 Root    303 :    62.018582238489050
 Root    304 :    62.022287534573720
 Root    305 :    62.057401765667620
 Root    306 :    64.049761876973010
 Root    307 :    64.343204280467730
 Root    308 :    64.385169674336850
 Root    309 :    64.396162493907400
 Root    310 :    64.445242483997600
 Root    311 :    64.543032933606770
 Root    312 :    64.587080073538670
 Root    313 :    64.599541893219170
 Root    314 :    65.067066906315030
 Root    315 :    65.069750906911450
 Root    316 :    66.845039849532240
 Root    317 :    67.933989249746600
 Root    318 :    68.389751040165880
 Root    319 :    68.453244838604040
 Root    320 :    68.810882992895710
 Root    321 :    69.095921995077600
 Root    322 :    69.162937901683550
 Root    323 :    69.238952523429120
 Root    324 :    69.660489674088570
 Root    325 :    69.938348525533810
 Root    326 :    70.103131243477620
 Root    327 :    70.645344114449710
 Root    328 :    70.869492460420970
 Root    329 :    71.738521381598600
 Root    330 :    71.849768760894120
 Root    331 :    71.875954037429070
 Root    332 :    72.706399717855210
 Root    333 :    72.822545908216450
 Root    334 :    73.143181886962320
 Root    335 :    73.665443908202900
 Root    336 :    73.720162288571300
 Root    337 :    74.141920194891280
 Root    338 :    74.870440058182650
 Root    339 :    75.475144916536790
 Root    340 :    75.562530642125570
 Root    341 :    75.586727938222910
 Root    342 :    75.723219962425260
 Root    343 :    76.118797578488230
 Root    344 :    76.692918814058520
 Root    345 :    77.232229109681770
 Root    346 :    77.910860230719890
 Root    347 :    78.110016804108540
 Root    348 :    79.210478106350140
 Root    349 :    79.989190570255970
 Root    350 :    80.358873109649410
 Root    351 :    80.417220104274560
 Root    352 :    80.749905164687380
 Root    353 :    81.978146453983970
 Root    354 :    82.589258890501280
 Root    355 :    82.764736041229410
 Root    356 :    83.828811264660170
 Root    357 :    84.326000170357820
 Root    358 :    84.341969814148600
 Root    359 :    84.476047709425020
 Root    360 :    85.198821120787290
 Root    361 :    85.280838643375400
 Root    362 :    86.074551910568130
 Root    363 :    86.316052729437490
 Root    364 :    87.619379279592200
 Root    365 :    87.705067747647390
 Root    366 :    88.574694944939520
 Root    367 :    89.111397501582060
 Root    368 :    89.927685702633010
 Root    369 :    91.337637257275130
 Root    370 :    91.865678028277290
 Root    371 :    92.453712309936800
 Root    372 :    93.054417325908160
 Root    373 :    94.844414263704120
 Root    374 :    94.902058732809080
 Root    375 :    96.129576434761670
 Root    376 :    96.754767944261230
 Root    377 :    97.684732760081730
 Root    378 :    98.770588404378370
 Root    379 :    99.623975231884100
 Root    380 :   101.334444526031600
 Root    381 :   102.561355338388500
 Root    382 :   103.270534992778400
 Root    383 :   105.085797110490200
 Root    384 :   109.662077246051700
 Convergence achieved for final wavefunctions.
 ***********************************************************************
 Excited states from <AA,BB:AA,BB> singles matrix:
 ***********************************************************************
 
 1PDM for each excited state written to RWF  633
 Ground to excited state transition densities written to RWF  633
 Ground to excited state transition electric dipole moments (Au):
       state          X           Y           Z        Dip. S.      Osc.
         1        -0.5827      0.0000     -0.0000      0.3396      0.0615
         2        -0.0000      0.0000      0.0000      0.0000      0.0000
         3         0.0000     -0.0000     -1.3102      1.7166      0.3327
         4        -0.0000     -0.0000     -0.0000      0.0000      0.0000
         5        -0.0000      0.0000      0.0000      0.0000      0.0000
         6        -0.0000     -0.0000      0.0000      0.0000      0.0000
         7        -0.0000      0.0000      0.0000      0.0000      0.0000
         8         0.0000     -0.6149      0.0000      0.3781      0.0900
         9         0.4451     -0.0000     -0.0000      0.1981      0.0481
        10        -0.0000      0.0000     -0.0000      0.0000      0.0000
        11         0.0000      0.0000     -0.7979      0.6367      0.1660
        12         0.0000      0.0000     -0.0000      0.0000      0.0000
        13        -0.0000     -0.0000      0.0000      0.0000      0.0000
        14         0.7940      0.0000     -0.0000      0.6305      0.1689
        15        -0.0000     -0.0000      0.0000      0.0000      0.0000
        16         0.0000     -0.5221      0.0000      0.2725      0.0759
        17         0.0000     -0.0000     -0.9561      0.9141      0.2571
        18         0.0000     -0.0000     -0.0000      0.0000      0.0000
        19         0.0000      0.0000      0.0000      0.0000      0.0000
        20         0.0000      0.0000      0.0000      0.0000      0.0000
        21         0.0000     -0.4086     -0.0000      0.1669      0.0496
        22         0.0000      0.0000      0.0000      0.0000      0.0000
        23         0.0000     -0.8392     -0.0000      0.7043      0.2132
        24         0.0000      0.0000     -0.0000      0.0000      0.0000
        25         0.0000     -0.0000     -0.0000      0.0000      0.0000
        26        -0.0000     -0.0000      0.0000      0.0000      0.0000
        27         0.0000     -0.0000      0.0000      0.0000      0.0000
        28         0.0000     -0.0000      0.0000      0.0000      0.0000
        29         0.0000     -0.0000     -0.0000      0.0000      0.0000
        30         0.0000     -0.0000      0.2691      0.0724      0.0240
        31         0.0000     -0.0000     -0.0000      0.0000      0.0000
        32         0.0000      1.0249      0.0000      1.0505      0.3498
        33         0.0000     -0.0000     -0.0000      0.0000      0.0000
        34        -0.0000      0.0000     -0.0000      0.0000      0.0000
        35        -0.4122     -0.0000      0.0000      0.1699      0.0584
        36         0.0000      0.0000     -0.9932      0.9865      0.3411
        37         0.5253      0.0000     -0.0000      0.2760      0.0987
        38        -0.0000     -0.0000     -0.0000      0.0000      0.0000
        39        -0.0000     -0.0000     -0.0000      0.0000      0.0000
        40         0.0000      0.0000      0.0000      0.0000      0.0000
        41         0.0000     -0.0000      0.0212      0.0004      0.0002
        42        -0.0000     -0.9464     -0.0000      0.8957      0.3265
        43         0.2802      0.0000     -0.0000      0.0785      0.0289
        44         0.0000     -0.0239     -0.0000      0.0006      0.0002
        45        -0.0000      0.0000     -0.2753      0.0758      0.0281
        46        -0.6893      0.0000      0.0000      0.4752      0.1783
        47         0.0000      0.0160      0.0000      0.0003      0.0001
        48        -0.0000      0.0000      0.0000      0.0000      0.0000
        49         0.0000     -0.0000      0.1969      0.0388      0.0148
        50        -0.0000      0.0000     -0.0000      0.0000      0.0000
        51        -0.0000      0.0000     -0.0000      0.0000      0.0000
        52        -0.0000     -0.7880     -0.0000      0.6209      0.2405
        53         0.0000      0.0000      0.0000      0.0000      0.0000
        54         0.0000     -0.0000     -0.0000      0.0000      0.0000
        55        -0.0000      0.0000      0.0000      0.0000      0.0000
        56         0.0000      0.0000     -0.0000      0.0000      0.0000
        57        -0.9484      0.0000      0.0000      0.8994      0.3580
        58        -0.0000     -0.0000      0.0000      0.0000      0.0000
        59        -0.0000      0.0000      0.0000      0.0000      0.0000
        60        -0.0000      0.0000     -0.0000      0.0000      0.0000
        61         0.0000      0.0000      0.0000      0.0000      0.0000
        62        -0.0000     -0.0000      0.0000      0.0000      0.0000
        63        -0.0000     -0.0000      0.5762      0.3320      0.1384
        64        -0.0000      0.0000      0.5575      0.3108      0.1315
        65        -0.7168      0.0000      0.0000      0.5138      0.2208
        66         0.0000     -0.0000     -0.0000      0.0000      0.0000
        67         0.0000     -0.0000     -0.6983      0.4876      0.2111
        68         0.0000      0.0510     -0.0000      0.0026      0.0011
        69         0.0000     -0.0000      0.0000      0.0000      0.0000
        70         0.0000      0.0000      0.0000      0.0000      0.0000
        71         0.0000      0.0000     -0.0000      0.0000      0.0000
        72        -0.0000      0.5392     -0.0000      0.2907      0.1273
        73        -0.0000      0.0000     -0.0000      0.0000      0.0000
        74        -0.0000      0.0000      0.0000      0.0000      0.0000
        75        -0.0000      0.0000      0.0000      0.0000      0.0000
        76        -0.0000     -0.0000      0.0000      0.0000      0.0000
        77        -0.0000     -0.0000     -0.6724      0.4522      0.2015
        78        -0.0000      0.0000      0.0000      0.0000      0.0000
        79         0.0000      0.3137     -0.0000      0.0984      0.0442
        80         0.4708      0.0000      0.0000      0.2216      0.0997
        81        -0.0000     -0.0000     -0.0000      0.0000      0.0000
        82        -0.0000      0.0000     -0.0000      0.0000      0.0000
        83         0.0000      0.0000      0.0000      0.0000      0.0000
        84        -0.0000      0.0000      0.0000      0.0000      0.0000
        85        -0.0000     -0.0000     -0.1910      0.0365      0.0169
        86        -0.0000      0.0000     -0.0000      0.0000      0.0000
        87        -0.0000     -0.2666     -0.0000      0.0711      0.0335
        88        -0.0000      0.0000      0.0000      0.0000      0.0000
        89        -0.0000     -0.0000     -0.0000      0.0000      0.0000
        90         0.0000     -0.0000      0.3885      0.1509      0.0722
        91        -0.7585      0.0000     -0.0000      0.5754      0.2756
        92         0.0000      0.0000      0.0000      0.0000      0.0000
        93         0.0000      0.3207      0.0000      0.1028      0.0498
        94        -0.0000      0.0000     -0.4845      0.2348      0.1143
        95         0.0000     -0.0000     -0.0000      0.0000      0.0000
        96        -0.0000      0.0000     -0.0000      0.0000      0.0000
        97        -0.0000     -0.0000      0.2147      0.0461      0.0227
        98        -0.0000     -0.0000      0.0000      0.0000      0.0000
        99        -0.0000      0.0000     -0.0000      0.0000      0.0000
       100         0.0000      0.8876     -0.0000      0.7879      0.3973
       101        -0.0000     -0.0000     -0.0000      0.0000      0.0000
       102         0.0000      0.0000      0.0000      0.0000      0.0000
       103        -0.0033      0.0000     -0.0000      0.0000      0.0000
       104        -0.0000      0.0000      0.0000      0.0000      0.0000
       105         0.0000     -0.0000     -0.0000      0.0000      0.0000
       106        -0.0000      0.0000     -0.0000      0.0000      0.0000
       107         0.0000     -0.0000     -0.0000      0.0000      0.0000
       108         0.0000     -0.0000     -0.3508      0.1231      0.0630
       109         0.0000      0.0715     -0.0000      0.0051      0.0026
       110        -0.0000      0.0000      0.0000      0.0000      0.0000
       111         0.0000      0.0000      0.0000      0.0000      0.0000
       112         0.0000      0.2581     -0.0000      0.0666      0.0353
       113        -0.0000     -0.0000     -0.0000      0.0000      0.0000
       114         0.0000     -0.5090      0.0000      0.2590      0.1385
       115         0.0000     -0.0000     -0.0000      0.0000      0.0000
       116         0.0000      0.0000     -0.5653      0.3196      0.1713
       117         0.0000      0.2686     -0.0000      0.0721      0.0390
       118        -0.0000      0.0000      0.0000      0.0000      0.0000
       119        -0.0000      0.0000      0.0000      0.0000      0.0000
       120        -0.0000     -0.0000      0.0000      0.0000      0.0000
       121         0.0000     -0.0000      0.0000      0.0000      0.0000
       122         0.0000      0.0000      0.0000      0.0000      0.0000
       123         0.0000     -0.0000     -0.0437      0.0019      0.0011
       124         0.0000      0.0000     -0.0000      0.0000      0.0000
       125        -0.0000     -0.0000      0.0000      0.0000      0.0000
       126        -0.0000      0.0000     -0.0000      0.0000      0.0000
       127         0.0000      0.0000      0.0000      0.0000      0.0000
       128         0.3491      0.0000     -0.0000      0.1218      0.0687
       129         0.0000     -0.0000     -0.4281      0.1832      0.1037
       130        -0.0000     -0.0000     -0.0000      0.0000      0.0000
       131         0.0396      0.0000     -0.0000      0.0016      0.0009
       132         0.0000     -0.0000      0.0000      0.0000      0.0000
       133        -0.0000     -0.0000     -0.0000      0.0000      0.0000
       134        -0.0000     -0.1464     -0.0000      0.0214      0.0123
       135        -0.0000     -0.0000      0.2485      0.0617      0.0357
       136        -0.0000      0.5005     -0.0000      0.2505      0.1450
       137        -0.0000      0.0000     -0.0000      0.0000      0.0000
       138        -0.0000      0.0000      0.0000      0.0000      0.0000
       139         0.0000     -0.6592      0.0000      0.4345      0.2533
       140        -0.4694     -0.0000     -0.0000      0.2203      0.1302
       141        -0.0000      0.4791     -0.0000      0.2296      0.1359
       142         0.0000     -0.0000     -0.4110      0.1689      0.1006
       143         0.0000      0.0000     -0.0013      0.0000      0.0000
       144         0.0000      0.0000      0.0000      0.0000      0.0000
       145         0.0000     -0.0000     -0.0000      0.0000      0.0000
       146         0.0000     -0.0000      0.0000      0.0000      0.0000
       147        -0.0000     -0.0000      0.1221      0.0149      0.0093
       148        -0.6963     -0.0000     -0.0000      0.4848      0.3019
       149         0.0000      0.0000     -0.0000      0.0000      0.0000
       150        -0.0000      0.0000      0.0000      0.0000      0.0000
       151        -0.0000     -0.2926     -0.0000      0.0856      0.0536
       152        -0.0000     -0.0000      0.0000      0.0000      0.0000
       153        -0.0000     -0.0000     -0.0000      0.0000      0.0000
       154         0.0000     -0.0000      0.5333      0.2844      0.1793
       155        -0.0000     -0.0000     -0.0000      0.0000      0.0000
       156         0.0000     -0.0000      0.5513      0.3039      0.1957
       157         0.0101     -0.0000      0.0000      0.0001      0.0001
       158         0.0000     -0.0000     -0.0000      0.0000      0.0000
       159        -0.0000      0.0000     -0.0000      0.0000      0.0000
       160         0.0000     -0.0000     -0.0000      0.0000      0.0000
       161         0.0000      0.0000      0.0000      0.0000      0.0000
       162        -0.0000      0.0000     -0.0000      0.0000      0.0000
       163        -0.0000      0.0000      0.0000      0.0000      0.0000
       164         0.0000     -0.0000     -0.0000      0.0000      0.0000
       165        -0.0000      0.0000     -0.0000      0.0000      0.0000
       166         0.0000      0.0000      0.1337      0.0179      0.0121
       167         0.0554     -0.0000     -0.0000      0.0031      0.0021
       168        -0.0000     -0.0379      0.0000      0.0014      0.0010
       169         0.0000     -0.0000      0.0000      0.0000      0.0000
       170        -0.0000     -0.0000     -0.0893      0.0080      0.0055
       171        -0.1329     -0.0000     -0.0000      0.0177      0.0126
       172        -0.0000      0.0000      0.0000      0.0000      0.0000
       173         0.0000      0.0000      0.0000      0.0000      0.0000
       174        -0.0000      0.0000     -0.0000      0.0000      0.0000
       175        -0.0000      0.0000     -0.0000      0.0000      0.0000
       176        -0.0000      0.0000      0.0000      0.0000      0.0000
       177         0.0000      0.1427     -0.0000      0.0204      0.0149
       178         0.0000      0.0000     -0.0547      0.0030      0.0022
       179        -0.0000     -0.0520      0.0000      0.0027      0.0020
       180         0.0000     -0.0000      0.0000      0.0000      0.0000
       181         0.0000     -0.0000     -0.0000      0.0000      0.0000
       182        -0.0000     -0.2074      0.0000      0.0430      0.0319
       183        -0.0000      0.0000      0.0000      0.0000      0.0000
       184        -0.0000     -0.0000     -0.0000      0.0000      0.0000
       185         0.0000     -0.0000      0.0329      0.0011      0.0008
       186         0.0000      0.0000      0.0000      0.0000      0.0000
       187         0.0000      0.0000      0.0000      0.0000      0.0000
       188        -0.0000      0.0000      0.0000      0.0000      0.0000
       189        -0.2481      0.0000     -0.0000      0.0615      0.0482
       190         0.0000     -0.0000     -0.0346      0.0012      0.0009
       191         0.0000      0.0000      0.4386      0.1924      0.1527
       192         0.0000      0.0000     -0.0000      0.0000      0.0000
       193        -0.0000     -0.0000     -0.0000      0.0000      0.0000
       194        -0.0000     -0.0000     -0.0016      0.0000      0.0000
       195         0.0000      0.0000      0.0000      0.0000      0.0000
       196         0.0000      0.0000      0.0000      0.0000      0.0000
       197         0.0000     -0.0000      0.0000      0.0000      0.0000
       198        -0.0000      0.0744     -0.0000      0.0055      0.0046
       199        -0.0000     -0.0000      0.0000      0.0000      0.0000
       200         0.0000      0.0000     -0.2737      0.0749      0.0625
       201        -0.0000     -0.0000     -0.0000      0.0000      0.0000
       202        -0.0000     -0.0000      0.0000      0.0000      0.0000
       203        -0.0000     -0.1019     -0.0000      0.0104      0.0088
       204         0.0000      0.0000     -0.0000      0.0000      0.0000
       205         0.0000     -0.0000      0.1606      0.0258      0.0221
       206        -0.0903      0.0000      0.0000      0.0081      0.0070
       207        -0.0000     -0.0000     -0.0000      0.0000      0.0000
       208         0.0000      0.0000      0.0000      0.0000      0.0000
       209        -0.0000     -0.0000     -0.0000      0.0000      0.0000
       210        -0.0000      0.0000     -0.0000      0.0000      0.0000
       211        -0.0000     -0.1065      0.0000      0.0114      0.0102
       212        -0.2916     -0.0000     -0.0000      0.0850      0.0770
       213        -0.0000      0.0621     -0.0000      0.0039      0.0035
       214        -0.0000      0.0000      0.0000      0.0000      0.0000
       215        -0.0000     -0.0000     -0.1894      0.0359      0.0327
       216         0.0000     -0.0000      0.0000      0.0000      0.0000
       217        -0.0000      0.3579      0.0000      0.1281      0.1178
       218        -0.0000     -0.0000      0.0000      0.0000      0.0000
       219        -0.0000      0.0000     -0.1697      0.0288      0.0267
       220        -0.3095     -0.0000     -0.0000      0.0958      0.0887
       221         0.0000     -0.0000     -0.0000      0.0000      0.0000
       222        -0.0000     -0.0000     -0.0000      0.0000      0.0000
       223        -0.0000     -0.1514     -0.0000      0.0229      0.0220
       224        -0.0000     -0.0000     -0.0000      0.0000      0.0000
       225         0.0000     -0.0000     -0.1558      0.0243      0.0234
       226         0.0000     -0.0031     -0.0000      0.0000      0.0000
       227         0.0000      0.0000     -0.0000      0.0000      0.0000
       228        -0.0000     -0.0000     -0.0000      0.0000      0.0000
       229         0.0000      0.2104      0.0000      0.0443      0.0441
       230        -0.0000      0.0000     -0.0000      0.0000      0.0000
       231        -0.0000      0.0000      0.1731      0.0299      0.0300
       232        -0.0000     -0.0000      0.0000      0.0000      0.0000
       233         0.0000      0.0000      0.0000      0.0000      0.0000
       234         0.0000      0.0000     -0.0000      0.0000      0.0000
       235        -0.0000      0.0000      0.0494      0.0024      0.0025
       236        -0.0000      0.3249      0.0000      0.1055      0.1101
       237         0.0000      0.0000     -0.0000      0.0000      0.0000
       238        -0.0000      0.0000     -0.0000      0.0000      0.0000
       239         0.0000      0.0000      0.0000      0.0000      0.0000
       240        -0.0000     -0.0000     -0.2583      0.0667      0.0707
       241        -0.0000     -0.0000      0.0000      0.0000      0.0000
       242        -0.0000     -0.5133     -0.0000      0.2634      0.2837
       243         0.0000      0.0000     -0.0000      0.0000      0.0000
       244         0.0000     -0.0000     -0.0000      0.0000      0.0000
       245         0.0000     -0.0000     -0.2567      0.0659      0.0725
       246        -0.0000      0.0000      0.0000      0.0000      0.0000
       247        -0.0000     -0.0000      0.0000      0.0000      0.0000
       248         0.0000     -0.0000     -0.0000      0.0000      0.0000
       249         0.0000      0.0000     -0.0850      0.0072      0.0081
       250        -0.0000      0.0000      0.0000      0.0000      0.0000
       251         0.0000     -0.0000     -0.0000      0.0000      0.0000
       252        -0.1704     -0.0000      0.0000      0.0291      0.0336
       253        -0.0000      0.0000      0.0000      0.0000      0.0000
       254        -0.0000      0.1667     -0.0000      0.0278      0.0324
       255         0.0000     -0.0000     -0.0000      0.0000      0.0000
       256        -0.0000      0.0000     -0.0000      0.0000      0.0000
       257        -0.0000      0.1905     -0.0000      0.0363      0.0431
       258        -0.3862     -0.0000     -0.0000      0.1491      0.1777
       259         0.0000      0.0000      0.2946      0.0868      0.1048
       260        -0.0000      0.0000     -0.0526      0.0028      0.0034
       261         0.7065     -0.0000     -0.0000      0.4991      0.6211
       262         0.0000     -0.0000      0.0000      0.0000      0.0000
       263         0.0000      0.0000     -0.0000      0.0000      0.0000
       264        -0.0000     -0.0000     -0.0000      0.0000      0.0000
       265         0.0000      0.0000      0.0000      0.0000      0.0000
       266        -0.0000      0.0000      0.0972      0.0094      0.0122
       267         0.0000     -0.0000     -0.0000      0.0000      0.0000
       268         0.1240      0.0000      0.0000      0.0154      0.0199
       269         0.0000      0.0000      0.0000      0.0000      0.0000
       270         0.0000      0.0000      0.2456      0.0603      0.0801
       271        -0.0000     -0.0000     -0.0000      0.0000      0.0000
       272        -0.0000      0.0000      0.0000      0.0000      0.0000
       273         0.0000      0.0000      0.0000      0.0000      0.0000
       274        -0.0000     -0.0018     -0.0000      0.0000      0.0000
       275        -0.0375      0.0000      0.0000      0.0014      0.0019
       276         0.0000      0.0000      0.0000      0.0000      0.0000
       277         0.0000      0.0000      0.0000      0.0000      0.0000
       278        -0.0000      0.0000     -0.0000      0.0000      0.0000
       279        -0.0000      0.0000     -0.0000      0.0000      0.0000
       280        -0.0000     -0.0000     -0.0000      0.0000      0.0000
       281         0.0000      0.0000     -0.0000      0.0000      0.0000
       282         0.0000      0.0000      0.0000      0.0000      0.0000
       283         0.0000     -0.0000      0.0000      0.0000      0.0000
       284         0.0000     -0.0000      0.0000      0.0000      0.0000
       285         0.4561     -0.0000     -0.0000      0.2081      0.2946
       286         0.0000     -0.1539     -0.0000      0.0237      0.0335
       287         0.0000     -0.0000     -0.0000      0.0000      0.0000
       288         0.0000      0.0000      0.0377      0.0014      0.0020
       289         0.0000      0.0000     -0.0000      0.0000      0.0000
       290        -0.0000      0.0000     -0.0000      0.0000      0.0000
       291        -0.0000      0.1129      0.0000      0.0127      0.0184
       292         0.0000      0.0000     -0.0000      0.0000      0.0000
       293         0.3151     -0.0000     -0.0000      0.0993      0.1463
       294         0.0000     -0.0000     -0.0000      0.0000      0.0000
       295         0.0000     -0.0000     -0.1732      0.0300      0.0444
       296         0.0000      0.0000      0.0838      0.0070      0.0104
       297         0.0000      0.0000      0.0000      0.0000      0.0000
       298         0.0000     -0.1417     -0.0000      0.0201      0.0299
       299         0.0000      0.0000     -0.0000      0.0000      0.0000
       300         0.2962     -0.0000     -0.0000      0.0877      0.1318
       301         0.0000      0.0000     -0.1970      0.0388      0.0587
       302        -0.0000     -0.0392      0.0000      0.0015      0.0023
       303         0.0000     -0.0000      0.0000      0.0000      0.0000
       304         0.0000     -0.0000     -0.0000      0.0000      0.0000
       305        -0.0000      0.0000      0.0000      0.0000      0.0000
       306        -0.0000      0.1034     -0.0000      0.0107      0.0168
       307        -0.0000     -0.0002     -0.0000      0.0000      0.0000
       308        -0.0000     -0.0000      0.0000      0.0000      0.0000
       309         0.0000     -0.0000      0.0000      0.0000      0.0000
       310        -0.0000     -0.0000     -0.0734      0.0054      0.0085
       311         0.0000      0.0000      0.0000      0.0000      0.0000
       312         0.0000     -0.3233      0.0000      0.1045      0.1654
       313        -0.0000     -0.0000     -0.0000      0.0000      0.0000
       314        -0.0000     -0.0000      0.0000      0.0000      0.0000
       315        -0.0000     -0.0000     -0.0000      0.0000      0.0000
       316        -0.0000      0.0000     -0.0000      0.0000      0.0000
       317        -0.0000      0.0000     -0.0000      0.0000      0.0000
       318        -0.0905      0.0000     -0.0000      0.0082      0.0137
       319        -0.0000      0.0000      0.0000      0.0000      0.0000
       320         0.0000      0.0000      0.0000      0.0000      0.0000
       321         0.0000      0.0000     -0.0673      0.0045      0.0077
       322         0.0000     -0.0000      0.0000      0.0000      0.0000
       323         0.0000      0.0746     -0.0000      0.0056      0.0094
       324        -0.2532      0.0000     -0.0000      0.0641      0.1094
       325         0.0000      0.0000      0.0000      0.0000      0.0000
       326        -0.0000      0.0798      0.0000      0.0064      0.0109
       327         0.0000     -0.0000      0.0000      0.0000      0.0000
       328        -0.0000     -0.0000     -0.0000      0.0000      0.0000
       329         0.0000     -0.0000      0.0000      0.0000      0.0000
       330         0.1244      0.0000     -0.0000      0.0155      0.0272
       331         0.0000     -0.0000     -0.0671      0.0045      0.0079
       332        -0.1474     -0.0000      0.0000      0.0217      0.0387
       333         0.0000      0.0000      0.0910      0.0083      0.0148
       334         0.0000     -0.0000      0.0000      0.0000      0.0000
       335        -0.0000     -0.0000      0.0000      0.0000      0.0000
       336         0.0000     -0.0000     -0.2030      0.0412      0.0744
       337        -0.0000      0.0000     -0.0000      0.0000      0.0000
       338         0.0000     -0.0000      0.0000      0.0000      0.0000
       339        -0.0000     -0.0771     -0.0000      0.0059      0.0110
       340        -0.0000      0.0000      0.0000      0.0000      0.0000
       341         0.0000     -0.0000     -0.0000      0.0000      0.0000
       342         0.0000      0.0000     -0.0000      0.0000      0.0000
       343         0.0000      0.0000     -0.0000      0.0000      0.0000
       344         0.0000      0.0611     -0.0000      0.0037      0.0070
       345        -0.0000     -0.0000     -0.0000      0.0000      0.0000
       346         0.0000     -0.0000     -0.0000      0.0000      0.0000
       347         0.0000      0.0000      0.0000      0.0000      0.0000
       348        -0.0000     -0.0000     -0.0013      0.0000      0.0000
       349         0.0000     -0.0000      0.0000      0.0000      0.0000
       350         0.0000     -0.0000     -0.0965      0.0093      0.0183
       351         0.1485      0.0000      0.0000      0.0220      0.0434
       352        -0.0846      0.0000     -0.0000      0.0072      0.0141
       353        -0.0000      0.0000      0.0000      0.0000      0.0000
       354         0.0000      0.0000      0.0000      0.0000      0.0000
       355         0.0000     -0.0000     -0.0000      0.0000      0.0000
       356        -0.0000     -0.0000     -0.0000      0.0000      0.0000
       357        -0.0000      0.0000     -0.0000      0.0000      0.0000
       358        -0.0000     -0.0000     -0.0000      0.0000      0.0000
       359         0.0000     -0.0000      0.1136      0.0129      0.0267
       360         0.0000     -0.0879     -0.0000      0.0077      0.0161
       361         0.0000     -0.0000     -0.0000      0.0000      0.0000
       362         0.0000     -0.0304     -0.0000      0.0009      0.0020
       363        -0.0000      0.1724     -0.0000      0.0297      0.0628
       364         0.0000     -0.0000     -0.0000      0.0000      0.0000
       365         0.0000     -0.0000      0.0242      0.0006      0.0013
       366         0.0000     -0.0000     -0.1377      0.0190      0.0411
       367        -0.0000     -0.0000      0.0000      0.0000      0.0000
       368         0.0000      0.0000     -0.0000      0.0000      0.0000
       369        -0.0000     -0.0000     -0.0000      0.0000      0.0000
       370        -0.0000      0.0000     -0.0000      0.0000      0.0000
       371        -0.0000     -0.0000      0.0000      0.0000      0.0000
       372         0.0000     -0.0839     -0.0000      0.0070      0.0160
       373        -0.0000     -0.1872      0.0000      0.0351      0.0814
       374        -0.0000      0.0000      0.0472      0.0022      0.0052
       375        -0.0000      0.0000     -0.0000      0.0000      0.0000
       376         0.0000     -0.0000     -0.0459      0.0021      0.0050
       377        -0.0000      0.0000     -0.0000      0.0000      0.0000
       378        -0.0000     -0.0000      0.0000      0.0000      0.0000
       379         0.0000     -0.0000     -0.0000      0.0000      0.0000
       380         0.0000      0.0000      0.0000      0.0000      0.0000
       381         0.0000     -0.0000      0.0949      0.0090      0.0226
       382         0.0000     -0.0000      0.0666      0.0044      0.0112
       383        -0.0000     -0.0075     -0.0000      0.0001      0.0001
       384         0.0000      0.0000      0.0000      0.0000      0.0000
 Ground to excited state transition velocity dipole moments (Au):
       state          X           Y           Z        Dip. S.      Osc.
         1         0.1880     -0.0000      0.0000      0.0353      0.0868
         2        -0.0000      0.0000      0.0000      0.0000      0.0000
         3        -0.0000      0.0000      0.3798      0.1443      0.3308
         4        -0.0000      0.0000      0.0000      0.0000      0.0000
         5        -0.0000     -0.0000     -0.0000      0.0000      0.0000
         6         0.0000     -0.0000     -0.0000      0.0000      0.0000
         7         0.0000      0.0000     -0.0000      0.0000      0.0000
         8        -0.0000      0.2298     -0.0000      0.0528      0.0986
         9        -0.1795      0.0000      0.0000      0.0322      0.0590
        10        -0.0000     -0.0000      0.0000      0.0000      0.0000
        11        -0.0000      0.0000      0.3088      0.0954      0.1625
        12         0.0000     -0.0000      0.0000      0.0000      0.0000
        13         0.0000      0.0000     -0.0000      0.0000      0.0000
        14        -0.3340     -0.0000     -0.0000      0.1116      0.1851
        15         0.0000     -0.0000     -0.0000      0.0000      0.0000
        16         0.0000      0.2184     -0.0000      0.0477      0.0761
        17        -0.0000     -0.0000      0.4137      0.1711      0.2704
        18         0.0000      0.0000      0.0000      0.0000      0.0000
        19        -0.0000     -0.0000      0.0000      0.0000      0.0000
        20         0.0000     -0.0000     -0.0000      0.0000      0.0000
        21        -0.0000      0.1893      0.0000      0.0358      0.0536
        22        -0.0000      0.0000     -0.0000      0.0000      0.0000
        23        -0.0000      0.3836      0.0000      0.1471      0.2160
        24         0.0000      0.0000      0.0000      0.0000      0.0000
        25         0.0000      0.0000     -0.0000      0.0000      0.0000
        26         0.0000      0.0000     -0.0000      0.0000      0.0000
        27        -0.0000     -0.0000     -0.0000      0.0000      0.0000
        28        -0.0000     -0.0000      0.0000      0.0000      0.0000
        29        -0.0000      0.0000      0.0000      0.0000      0.0000
        30        -0.0000      0.0000     -0.1477      0.0218      0.0292
        31        -0.0000      0.0000      0.0000      0.0000      0.0000
        32        -0.0000     -0.5077     -0.0000      0.2577      0.3440
        33        -0.0000     -0.0000      0.0000      0.0000      0.0000
        34         0.0000     -0.0000      0.0000      0.0000      0.0000
        35         0.2169     -0.0000     -0.0000      0.0471      0.0609
        36        -0.0000      0.0000      0.5217      0.2722      0.3499
        37        -0.2920      0.0000     -0.0000      0.0852      0.1059
        38         0.0000     -0.0000     -0.0000      0.0000      0.0000
        39         0.0000      0.0000     -0.0000      0.0000      0.0000
        40         0.0000      0.0000      0.0000      0.0000      0.0000
        41        -0.0000     -0.0000     -0.0103      0.0001      0.0001
        42         0.0000      0.5173      0.0000      0.2676      0.3263
        43        -0.1292     -0.0000      0.0000      0.0167      0.0201
        44        -0.0000      0.0098      0.0000      0.0001      0.0001
        45         0.0000      0.0000      0.1417      0.0201      0.0240
        46         0.3975      0.0000      0.0000      0.1580      0.1871
        47        -0.0000     -0.0078      0.0000      0.0001      0.0001
[...]
     10   0.000000D+00  0.000000D+00  0.000000D+00  0.000000D+00  0.000000D+00
     11   0.000000D+00  0.000000D+00  0.000000D+00  0.000000D+00 -0.164389D+00
     12   0.000000D+00  0.000000D+00  0.000000D+00  0.000000D+00  0.355580D+00
     13   0.000000D+00  0.000000D+00  0.000000D+00  0.000000D+00 -0.494274D+00
     14   0.000000D+00  0.000000D+00  0.000000D+00  0.000000D+00  0.000000D+00
     15  -0.584376D+00  0.000000D+00  0.280762D+00 -0.693831D+00  0.000000D+00
     16   0.000000D+00  0.000000D+00  0.000000D+00  0.000000D+00  0.000000D+00
               316           317           318           319           320 
      1  -0.759592D+02 -0.759192D+02 -0.759025D+02 -0.759001D+02 -0.758870D+02
      2   0.000000D+00  0.000000D+00 -0.904987D-01  0.000000D+00  0.000000D+00
      3   0.000000D+00  0.000000D+00  0.000000D+00  0.000000D+00  0.000000D+00
      4   0.000000D+00  0.000000D+00  0.000000D+00  0.000000D+00  0.000000D+00
      5   0.000000D+00  0.000000D+00  0.200561D+00  0.000000D+00  0.000000D+00
      6   0.000000D+00  0.000000D+00  0.000000D+00  0.000000D+00  0.000000D+00
      7   0.000000D+00  0.000000D+00  0.000000D+00  0.000000D+00  0.000000D+00
      8   0.000000D+00  0.000000D+00  0.000000D+00  0.000000D+00  0.361069D+00
      9   0.000000D+00  0.000000D+00  0.000000D+00 -0.291288D+00  0.000000D+00
     10   0.277711D+00  0.000000D+00  0.000000D+00  0.000000D+00  0.000000D+00
     11   0.000000D+00  0.000000D+00  0.000000D+00  0.000000D+00  0.000000D+00
     12   0.000000D+00  0.000000D+00  0.000000D+00  0.000000D+00  0.000000D+00
     13   0.000000D+00  0.000000D+00  0.000000D+00  0.000000D+00  0.000000D+00
     14  -0.936830D+00  0.000000D+00  0.000000D+00  0.000000D+00  0.000000D+00
     15   0.000000D+00  0.000000D+00  0.000000D+00 -0.502919D+00  0.000000D+00
     16   0.000000D+00  0.000000D+00  0.000000D+00  0.000000D+00 -0.421561D-01
               321           322           323           324           325 
      1  -0.758765D+02 -0.758740D+02 -0.758712D+02 -0.758558D+02 -0.758455D+02
      2   0.000000D+00  0.000000D+00  0.000000D+00 -0.253203D+00  0.000000D+00
      3   0.000000D+00  0.000000D+00  0.746002D-01  0.000000D+00  0.000000D+00
      4  -0.673135D-01  0.000000D+00  0.000000D+00  0.000000D+00  0.000000D+00
      5   0.000000D+00  0.000000D+00  0.000000D+00  0.528722D+00  0.000000D+00
      6   0.000000D+00  0.000000D+00 -0.155715D+00  0.000000D+00  0.000000D+00
      7   0.129232D+00  0.000000D+00  0.000000D+00  0.000000D+00  0.000000D+00
      8   0.000000D+00  0.000000D+00  0.000000D+00  0.000000D+00  0.000000D+00
      9   0.000000D+00  0.000000D+00  0.000000D+00  0.000000D+00  0.000000D+00
     10   0.000000D+00  0.000000D+00  0.000000D+00  0.000000D+00  0.000000D+00
     11   0.000000D+00 -0.426798D+00  0.000000D+00  0.000000D+00 -0.142347D+00
     12   0.000000D+00  0.906995D-01  0.000000D+00  0.000000D+00 -0.421567D+00
     13   0.000000D+00 -0.163444D+00  0.000000D+00  0.000000D+00 -0.693895D+00
     14   0.000000D+00  0.000000D+00  0.000000D+00  0.000000D+00  0.000000D+00
     15   0.000000D+00  0.000000D+00  0.000000D+00  0.000000D+00  0.000000D+00
     16   0.000000D+00  0.000000D+00  0.000000D+00  0.000000D+00  0.000000D+00
               326           327           328           329           330 
      1  -0.758395D+02 -0.758196D+02 -0.758113D+02 -0.757794D+02 -0.757753D+02
      2   0.000000D+00  0.000000D+00  0.000000D+00  0.000000D+00  0.124406D+00
      3   0.798256D-01  0.000000D+00  0.000000D+00  0.000000D+00  0.000000D+00
      4   0.000000D+00  0.000000D+00  0.000000D+00  0.000000D+00  0.000000D+00
      5   0.000000D+00  0.000000D+00  0.000000D+00  0.000000D+00 -0.255440D+00
      6  -0.125245D+00  0.000000D+00  0.000000D+00  0.000000D+00  0.000000D+00
      7   0.000000D+00  0.000000D+00  0.000000D+00  0.000000D+00  0.000000D+00
      8   0.000000D+00  0.000000D+00 -0.479161D+00 -0.658752D+00  0.000000D+00
      9   0.000000D+00  0.000000D+00  0.000000D+00  0.000000D+00  0.000000D+00
     10   0.000000D+00  0.000000D+00  0.000000D+00  0.000000D+00  0.000000D+00
     11   0.000000D+00  0.000000D+00  0.000000D+00  0.000000D+00  0.000000D+00
     12   0.000000D+00  0.000000D+00  0.000000D+00  0.000000D+00  0.000000D+00
     13   0.000000D+00  0.000000D+00  0.000000D+00  0.000000D+00  0.000000D+00
     14   0.000000D+00  0.000000D+00  0.000000D+00  0.000000D+00  0.000000D+00
     15   0.000000D+00  0.000000D+00  0.000000D+00  0.000000D+00  0.000000D+00
     16   0.000000D+00  0.000000D+00  0.404957D+00 -0.477673D-01  0.000000D+00
               331           332           333           334           335 
      1  -0.757743D+02 -0.757438D+02 -0.757396D+02 -0.757278D+02 -0.757086D+02
      2   0.000000D+00 -0.147425D+00  0.000000D+00  0.000000D+00  0.000000D+00
      3   0.000000D+00  0.000000D+00  0.000000D+00  0.000000D+00  0.000000D+00
      4  -0.671219D-01  0.000000D+00  0.909764D-01  0.000000D+00  0.000000D+00
      5   0.000000D+00  0.352545D+00  0.000000D+00  0.000000D+00  0.000000D+00
      6   0.000000D+00  0.000000D+00  0.000000D+00  0.000000D+00  0.000000D+00
      7   0.134848D+00  0.000000D+00 -0.191512D+00  0.000000D+00  0.000000D+00
      8   0.000000D+00  0.000000D+00  0.000000D+00  0.317690D+00 -0.165294D+00
      9   0.000000D+00  0.000000D+00  0.000000D+00  0.000000D+00  0.000000D+00
     10   0.000000D+00  0.000000D+00  0.000000D+00  0.000000D+00  0.000000D+00
     11   0.000000D+00  0.000000D+00  0.000000D+00  0.000000D+00  0.000000D+00
     12   0.000000D+00  0.000000D+00  0.000000D+00  0.000000D+00  0.000000D+00
     13   0.000000D+00  0.000000D+00  0.000000D+00  0.000000D+00  0.000000D+00
     14   0.000000D+00  0.000000D+00  0.000000D+00  0.000000D+00  0.000000D+00
     15   0.000000D+00  0.000000D+00  0.000000D+00  0.000000D+00  0.000000D+00
     16   0.000000D+00  0.000000D+00  0.000000D+00 -0.109589D+00 -0.278077D+00
               336           337           338           339           340 
      1  -0.757066D+02 -0.756911D+02 -0.756643D+02 -0.756421D+02 -0.756389D+02
      2   0.000000D+00  0.000000D+00  0.000000D+00  0.000000D+00  0.000000D+00
      3   0.000000D+00  0.000000D+00  0.000000D+00 -0.771263D-01  0.000000D+00
      4  -0.203028D+00  0.000000D+00  0.000000D+00  0.000000D+00  0.000000D+00
      5   0.000000D+00  0.000000D+00  0.000000D+00  0.000000D+00  0.000000D+00
      6   0.000000D+00  0.000000D+00  0.000000D+00  0.208482D+00  0.000000D+00
      7   0.512923D+00  0.000000D+00  0.000000D+00  0.000000D+00  0.000000D+00
      8   0.000000D+00  0.000000D+00  0.000000D+00  0.000000D+00  0.000000D+00
      9   0.000000D+00  0.000000D+00  0.000000D+00  0.000000D+00  0.473961D-01
     10   0.000000D+00  0.000000D+00  0.187495D+00  0.000000D+00  0.000000D+00
     11   0.000000D+00  0.000000D+00  0.000000D+00  0.000000D+00  0.000000D+00
     12   0.000000D+00  0.000000D+00  0.000000D+00  0.000000D+00  0.000000D+00
     13   0.000000D+00  0.000000D+00  0.000000D+00  0.000000D+00  0.000000D+00
     14   0.000000D+00  0.000000D+00 -0.660860D+00  0.000000D+00  0.000000D+00
     15   0.000000D+00  0.000000D+00  0.000000D+00  0.000000D+00 -0.337975D+00
     16   0.000000D+00  0.000000D+00  0.000000D+00  0.000000D+00  0.000000D+00
               341           342           343           344           345 
      1  -0.756380D+02 -0.756330D+02 -0.756184D+02 -0.755973D+02 -0.755775D+02
      2   0.000000D+00  0.000000D+00  0.000000D+00  0.000000D+00  0.000000D+00
      3   0.000000D+00  0.000000D+00  0.000000D+00  0.611034D-01  0.000000D+00
      4   0.000000D+00  0.000000D+00  0.000000D+00  0.000000D+00  0.000000D+00
      5   0.000000D+00  0.000000D+00  0.000000D+00  0.000000D+00  0.000000D+00
      6   0.000000D+00  0.000000D+00  0.000000D+00 -0.174565D+00  0.000000D+00
      7   0.000000D+00  0.000000D+00  0.000000D+00  0.000000D+00  0.000000D+00
      8   0.000000D+00  0.000000D+00  0.000000D+00  0.000000D+00  0.000000D+00
      9   0.000000D+00  0.000000D+00  0.000000D+00  0.000000D+00  0.607323D+00
     10   0.459512D-01  0.000000D+00  0.000000D+00  0.000000D+00  0.000000D+00
     11   0.000000D+00 -0.955609D-01 -0.311578D-01  0.000000D+00  0.000000D+00
     12   0.000000D+00 -0.884172D+00 -0.214114D-01  0.000000D+00  0.000000D+00
     13   0.000000D+00  0.689917D+00  0.146638D+01  0.000000D+00  0.000000D+00
     14   0.266869D+00  0.000000D+00  0.000000D+00  0.000000D+00  0.000000D+00
     15   0.000000D+00  0.000000D+00  0.000000D+00  0.000000D+00  0.109538D+01
     16   0.000000D+00  0.000000D+00  0.000000D+00  0.000000D+00  0.000000D+00
               346           347           348           349           350 
      1  -0.755526D+02 -0.755452D+02 -0.755048D+02 -0.754762D+02 -0.754626D+02
      2   0.000000D+00  0.000000D+00  0.000000D+00  0.000000D+00  0.000000D+00
      3   0.000000D+00  0.000000D+00  0.000000D+00  0.000000D+00  0.000000D+00
      4   0.000000D+00  0.000000D+00 -0.127509D-02  0.000000D+00 -0.965424D-01
      5   0.000000D+00  0.000000D+00  0.000000D+00  0.000000D+00  0.000000D+00
      6   0.000000D+00  0.000000D+00  0.000000D+00  0.000000D+00  0.000000D+00
      7   0.000000D+00  0.000000D+00  0.134308D-01  0.000000D+00  0.225894D+00
      8   0.000000D+00  0.000000D+00  0.000000D+00 -0.300220D+00  0.000000D+00
      9   0.000000D+00  0.000000D+00  0.000000D+00  0.000000D+00  0.000000D+00
     10   0.000000D+00  0.170533D+00  0.000000D+00  0.000000D+00  0.000000D+00
     11   0.000000D+00  0.000000D+00  0.000000D+00  0.000000D+00  0.000000D+00
     12   0.000000D+00  0.000000D+00  0.000000D+00  0.000000D+00  0.000000D+00
     13   0.000000D+00  0.000000D+00  0.000000D+00  0.000000D+00  0.000000D+00
     14   0.000000D+00 -0.247554D+00  0.000000D+00  0.000000D+00  0.000000D+00
     15   0.000000D+00  0.000000D+00  0.000000D+00  0.000000D+00  0.000000D+00
     16   0.000000D+00  0.000000D+00  0.000000D+00 -0.607792D-01  0.000000D+00
               351           352           353           354           355 
      1  -0.754605D+02 -0.754482D+02 -0.754031D+02 -0.753806D+02 -0.753742D+02
      2   0.148475D+00 -0.845715D-01  0.000000D+00  0.000000D+00  0.000000D+00
      3   0.000000D+00  0.000000D+00  0.000000D+00  0.000000D+00  0.000000D+00
      4   0.000000D+00  0.000000D+00  0.000000D+00  0.000000D+00  0.000000D+00
      5  -0.348577D+00  0.211193D+00  0.000000D+00  0.000000D+00  0.000000D+00
      6   0.000000D+00  0.000000D+00  0.000000D+00  0.000000D+00  0.000000D+00
      7   0.000000D+00  0.000000D+00  0.000000D+00  0.000000D+00  0.000000D+00
      8   0.000000D+00  0.000000D+00 -0.247162D+00  0.000000D+00  0.000000D+00
      9   0.000000D+00  0.000000D+00  0.000000D+00  0.000000D+00  0.000000D+00
     10   0.000000D+00  0.000000D+00  0.000000D+00 -0.345369D-01  0.000000D+00
     11   0.000000D+00  0.000000D+00  0.000000D+00  0.000000D+00  0.000000D+00
     12   0.000000D+00  0.000000D+00  0.000000D+00  0.000000D+00  0.000000D+00
     13   0.000000D+00  0.000000D+00  0.000000D+00  0.000000D+00  0.000000D+00
     14   0.000000D+00  0.000000D+00  0.000000D+00 -0.292232D+00  0.000000D+00
     15   0.000000D+00  0.000000D+00  0.000000D+00  0.000000D+00  0.000000D+00
     16   0.000000D+00  0.000000D+00  0.451108D+00  0.000000D+00  0.000000D+00
               356           357           358           359           360 
      1  -0.753351D+02 -0.753168D+02 -0.753162D+02 -0.753113D+02 -0.752847D+02
      2   0.000000D+00  0.000000D+00  0.000000D+00  0.000000D+00  0.000000D+00
      3   0.000000D+00  0.000000D+00  0.000000D+00  0.000000D+00 -0.878679D-01
      4   0.000000D+00  0.000000D+00  0.000000D+00  0.113587D+00  0.000000D+00
      5   0.000000D+00  0.000000D+00  0.000000D+00  0.000000D+00  0.000000D+00
      6   0.000000D+00  0.000000D+00  0.000000D+00  0.000000D+00  0.204573D+00
      7   0.000000D+00  0.000000D+00  0.000000D+00 -0.302365D+00  0.000000D+00
      8   0.000000D+00  0.000000D+00  0.000000D+00  0.000000D+00  0.000000D+00
      9   0.000000D+00  0.000000D+00 -0.578672D+00  0.000000D+00  0.000000D+00
     10   0.000000D+00  0.000000D+00  0.000000D+00  0.000000D+00  0.000000D+00
     11   0.168243D+00 -0.787980D-03  0.000000D+00  0.000000D+00  0.000000D+00
     12  -0.380164D+00  0.106698D+00  0.000000D+00  0.000000D+00  0.000000D+00
     13   0.565729D+00 -0.784165D+00  0.000000D+00  0.000000D+00  0.000000D+00
     14   0.000000D+00  0.000000D+00  0.000000D+00  0.000000D+00  0.000000D+00
     15   0.000000D+00  0.000000D+00 -0.785634D+00  0.000000D+00  0.000000D+00
     16   0.000000D+00  0.000000D+00  0.000000D+00  0.000000D+00  0.000000D+00
               361           362           363           364           365 
      1  -0.752817D+02 -0.752525D+02 -0.752437D+02 -0.751958D+02 -0.751926D+02
      2   0.000000D+00  0.000000D+00  0.000000D+00  0.000000D+00  0.000000D+00
      3   0.000000D+00 -0.304323D-01  0.172356D+00  0.000000D+00  0.000000D+00
      4   0.000000D+00  0.000000D+00  0.000000D+00  0.000000D+00  0.241595D-01
      5   0.000000D+00  0.000000D+00  0.000000D+00  0.000000D+00  0.000000D+00
      6   0.000000D+00  0.481980D-01 -0.462128D+00  0.000000D+00  0.000000D+00
      7   0.000000D+00  0.000000D+00  0.000000D+00  0.000000D+00 -0.757792D-01
      8   0.000000D+00  0.000000D+00  0.000000D+00  0.000000D+00  0.000000D+00
      9  -0.186974D+00  0.000000D+00  0.000000D+00  0.000000D+00  0.000000D+00
     10   0.000000D+00  0.000000D+00  0.000000D+00  0.000000D+00  0.000000D+00
     11   0.000000D+00  0.000000D+00  0.000000D+00 -0.208390D+00  0.000000D+00
     12   0.000000D+00  0.000000D+00  0.000000D+00 -0.103670D+00  0.000000D+00
     13   0.000000D+00  0.000000D+00  0.000000D+00 -0.713551D+00  0.000000D+00
     14   0.000000D+00  0.000000D+00  0.000000D+00  0.000000D+00  0.000000D+00
     15  -0.228353D+00  0.000000D+00  0.000000D+00  0.000000D+00  0.000000D+00
     16   0.000000D+00  0.000000D+00  0.000000D+00  0.000000D+00  0.000000D+00
               366           367           368           369           370 
      1  -0.751607D+02 -0.751409D+02 -0.751109D+02 -0.750591D+02 -0.750397D+02
      2   0.000000D+00  0.000000D+00  0.000000D+00  0.000000D+00  0.000000D+00
      3   0.000000D+00  0.000000D+00  0.000000D+00  0.000000D+00  0.000000D+00
      4  -0.137686D+00  0.000000D+00  0.000000D+00  0.000000D+00  0.000000D+00
      5   0.000000D+00  0.000000D+00  0.000000D+00  0.000000D+00  0.000000D+00
      6   0.000000D+00  0.000000D+00  0.000000D+00  0.000000D+00  0.000000D+00
      7   0.368588D+00  0.000000D+00  0.000000D+00  0.000000D+00  0.000000D+00
      8   0.000000D+00  0.731338D-01 -0.193086D+00  0.000000D+00  0.000000D+00
      9   0.000000D+00  0.000000D+00  0.000000D+00 -0.397505D+00  0.000000D+00
     10   0.000000D+00  0.000000D+00  0.000000D+00  0.000000D+00  0.000000D+00
     11   0.000000D+00  0.000000D+00  0.000000D+00  0.000000D+00 -0.335143D+00
     12   0.000000D+00  0.000000D+00  0.000000D+00  0.000000D+00  0.204157D+00
     13   0.000000D+00  0.000000D+00  0.000000D+00  0.000000D+00  0.102884D+01
     14   0.000000D+00  0.000000D+00  0.000000D+00  0.000000D+00  0.000000D+00
     15   0.000000D+00  0.000000D+00  0.000000D+00 -0.352248D+00  0.000000D+00
     16   0.000000D+00 -0.294145D+00 -0.292030D-01  0.000000D+00  0.000000D+00
               371           372           373           374           375 
      1  -0.750181D+02 -0.749960D+02 -0.749303D+02 -0.749281D+02 -0.748830D+02
      2   0.000000D+00  0.000000D+00  0.000000D+00  0.000000D+00  0.000000D+00
      3   0.000000D+00 -0.838740D-01 -0.187222D+00  0.000000D+00  0.000000D+00
      4   0.000000D+00  0.000000D+00  0.000000D+00  0.471530D-01  0.000000D+00
      5   0.000000D+00  0.000000D+00  0.000000D+00  0.000000D+00  0.000000D+00
      6   0.000000D+00  0.258132D+00  0.538674D+00  0.000000D+00  0.000000D+00
      7   0.000000D+00  0.000000D+00  0.000000D+00 -0.165880D+00  0.000000D+00
      8   0.000000D+00  0.000000D+00  0.000000D+00  0.000000D+00 -0.257965D+00
      9   0.000000D+00  0.000000D+00  0.000000D+00  0.000000D+00  0.000000D+00
     10   0.000000D+00  0.000000D+00  0.000000D+00  0.000000D+00  0.000000D+00
     11  -0.236917D+00  0.000000D+00  0.000000D+00  0.000000D+00  0.000000D+00
     12   0.322880D+00  0.000000D+00  0.000000D+00  0.000000D+00  0.000000D+00
     13  -0.317969D+00  0.000000D+00  0.000000D+00  0.000000D+00  0.000000D+00
     14   0.000000D+00  0.000000D+00  0.000000D+00  0.000000D+00  0.000000D+00
     15   0.000000D+00  0.000000D+00  0.000000D+00  0.000000D+00  0.000000D+00
     16   0.000000D+00  0.000000D+00  0.000000D+00  0.000000D+00  0.495648D+00
               376           377           378           379           380 
      1  -0.748601D+02 -0.748259D+02 -0.747860D+02 -0.747546D+02 -0.746918D+02
      2   0.000000D+00  0.000000D+00  0.000000D+00  0.000000D+00  0.000000D+00
      3   0.000000D+00  0.000000D+00  0.000000D+00  0.000000D+00  0.000000D+00
      4  -0.459084D-01  0.000000D+00  0.000000D+00  0.000000D+00  0.000000D+00
      5   0.000000D+00  0.000000D+00  0.000000D+00  0.000000D+00  0.000000D+00
      6   0.000000D+00  0.000000D+00  0.000000D+00  0.000000D+00  0.000000D+00
      7   0.128979D+00  0.000000D+00  0.000000D+00  0.000000D+00  0.000000D+00
      8   0.000000D+00  0.000000D+00  0.000000D+00  0.000000D+00  0.619634D+00
      9   0.000000D+00  0.000000D+00  0.000000D+00  0.000000D+00  0.000000D+00
     10   0.000000D+00  0.000000D+00  0.000000D+00  0.000000D+00  0.000000D+00
     11   0.000000D+00  0.000000D+00 -0.693115D-01 -0.165447D+00  0.000000D+00
     12   0.000000D+00  0.000000D+00  0.268555D-02 -0.926571D-01  0.000000D+00
     13   0.000000D+00  0.000000D+00 -0.500729D+00 -0.603279D+00  0.000000D+00
     14   0.000000D+00  0.000000D+00  0.000000D+00  0.000000D+00  0.000000D+00
     15   0.000000D+00  0.000000D+00  0.000000D+00  0.000000D+00  0.000000D+00
     16   0.000000D+00  0.000000D+00  0.000000D+00  0.000000D+00 -0.741530D+00
               381           382           383           384 
      1  -0.746467D+02 -0.746206D+02 -0.745539D+02 -0.743857D+02
      2   0.000000D+00  0.000000D+00  0.000000D+00  0.000000D+00
      3   0.000000D+00  0.000000D+00 -0.754738D-02  0.000000D+00
      4   0.948879D-01  0.666417D-01  0.000000D+00  0.000000D+00
      5   0.000000D+00  0.000000D+00  0.000000D+00  0.000000D+00
      6   0.000000D+00  0.000000D+00  0.228596D-02  0.000000D+00
      7  -0.328147D+00 -0.200711D+00  0.000000D+00  0.000000D+00
      8   0.000000D+00  0.000000D+00  0.000000D+00 -0.375183D+00
      9   0.000000D+00  0.000000D+00  0.000000D+00  0.000000D+00
     10   0.000000D+00  0.000000D+00  0.000000D+00  0.000000D+00
     11   0.000000D+00  0.000000D+00  0.000000D+00  0.000000D+00
     12   0.000000D+00  0.000000D+00  0.000000D+00  0.000000D+00
     13   0.000000D+00  0.000000D+00  0.000000D+00  0.000000D+00
     14   0.000000D+00  0.000000D+00  0.000000D+00  0.000000D+00
     15   0.000000D+00  0.000000D+00  0.000000D+00  0.000000D+00
     16   0.000000D+00  0.000000D+00  0.000000D+00  0.423808D+00
 Unable to Open any file for archive entry.
 1\1\GINC-HEL24\SP\RPBEPBE TD-FC\Gen\C2H4\SABYASACHI\21-Mar-2022\0\\#P 
 TD(Nstates=10000) pbepbe/Gen SCF(maxcycles=100) Int(Grid=ultrafine)\\x
 GDB7_00001_tier4.com\\0,1\C,0,0.,0.,0.660866\C,0,0.,0.,-0.660866\H,0,0
 .,0.922586,1.229258\H,0,0.,-0.922586,1.229258\H,0,0.,0.922586,-1.22925
 8\H,0,0.,-0.922586,-1.229258\\Version=EM64L-G16RevC.01\State=1-AG\HF=-
 78.4157304\RMSD=9.313e-09\PG=D02H [C2"(C1.C1),SG(H4)]\\@
 The archive entry for this job was punched.


 AN OPTIMIST IS A GUY
 THAT HAS NEVER HAD
 MUCH EXPERIENCE
   (CERTAIN MAXIMS OF ARCHY  -- DON MARQUIS)
 Job cpu time:       0 days  0 hours  0 minutes 52.2 seconds.
 Elapsed time:       0 days  0 hours  0 minutes  6.8 seconds.
 File lengths (MBytes):  RWF=     77 Int=      0 D2E=      0 Chk=     49 Scr=      1
 Normal termination of Gaussian 16 at Mon Mar 21 20:20:07 2022.
