 Entering Gaussian System, Link 0=g16
 Input=000017.com
 Output=000017.log
 Initial command:
 /home/sabyasachi/g16/l1.exe "/scratch/sabyasachi/PBS_7976448.helios/Gau-146490.inp" -scrdir="/scratch/sabyasachi/PBS_7976448.helios/"
 Entering Link 1 = /home/sabyasachi/g16/l1.exe PID=    146491.
  
 Copyright (c) 1988-2019, Gaussian, Inc.  All Rights Reserved.
  
 This is part of the Gaussian(R) 16 program.  It is based on
 the Gaussian(R) 09 system (copyright 2009, Gaussian, Inc.),
 the Gaussian(R) 03 system (copyright 2003, Gaussian, Inc.),
 the Gaussian(R) 98 system (copyright 1998, Gaussian, Inc.),
 the Gaussian(R) 94 system (copyright 1995, Gaussian, Inc.),
 the Gaussian 92(TM) system (copyright 1992, Gaussian, Inc.),
 the Gaussian 90(TM) system (copyright 1990, Gaussian, Inc.),
 the Gaussian 88(TM) system (copyright 1988, Gaussian, Inc.),
 the Gaussian 86(TM) system (copyright 1986, Carnegie Mellon
 University), and the Gaussian 82(TM) system (copyright 1983,
 Carnegie Mellon University). Gaussian is a federally registered
 trademark of Gaussian, Inc.
  
 This software contains proprietary and confidential information,
 including trade secrets, belonging to Gaussian, Inc.
  
 This software is provided under written license and may be
 used, copied, transmitted, or stored only in accord with that
 written license.
  
 The following legend is applicable only to US Government
 contracts under FAR:
  
                    RESTRICTED RIGHTS LEGEND
  
 Use, reproduction and disclosure by the US Government is
 subject to restrictions as set forth in subparagraphs (a)
 and (c) of the Commercial Computer Software - Restricted
 Rights clause in FAR 52.227-19.
  
 Gaussian, Inc.
 340 Quinnipiac St., Bldg. 40, Wallingford CT 06492
  
  
 ---------------------------------------------------------------
 Warning -- This program may not be used in any manner that
 competes with the business of Gaussian, Inc. or will provide
 assistance to any competitor of Gaussian, Inc.  The licensee
 of this program is prohibited from giving any competitor of
 Gaussian, Inc. access to this program.  By using this program,
 the user acknowledges that Gaussian, Inc. is engaged in the
 business of creating and licensing software in the field of
 computational chemistry and represents and warrants to the
 licensee that it is not a competitor of Gaussian, Inc. and that
 it will not use this program in any manner prohibited above.
 ---------------------------------------------------------------
  

 Cite this work as:
 Gaussian 16, Revision C.01,
 M. J. Frisch, G. W. Trucks, H. B. Schlegel, G. E. Scuseria, 
 M. A. Robb, J. R. Cheeseman, G. Scalmani, V. Barone, 
 G. A. Petersson, H. Nakatsuji, X. Li, M. Caricato, A. V. Marenich, 
 J. Bloino, B. G. Janesko, R. Gomperts, B. Mennucci, H. P. Hratchian, 
 J. V. Ortiz, A. F. Izmaylov, J. L. Sonnenberg, D. Williams-Young, 
 F. Ding, F. Lipparini, F. Egidi, J. Goings, B. Peng, A. Petrone, 
 T. Henderson, D. Ranasinghe, V. G. Zakrzewski, J. Gao, N. Rega, 
 G. Zheng, W. Liang, M. Hada, M. Ehara, K. Toyota, R. Fukuda, 
 J. Hasegawa, M. Ishida, T. Nakajima, Y. Honda, O. Kitao, H. Nakai, 
 T. Vreven, K. Throssell, J. A. Montgomery, Jr., J. E. Peralta, 
 F. Ogliaro, M. J. Bearpark, J. J. Heyd, E. N. Brothers, K. N. Kudin, 
 V. N. Staroverov, T. A. Keith, R. Kobayashi, J. Normand, 
 K. Raghavachari, A. P. Rendell, J. C. Burant, S. S. Iyengar, 
 J. Tomasi, M. Cossi, J. M. Millam, M. Klene, C. Adamo, R. Cammi, 
 J. W. Ochterski, R. L. Martin, K. Morokuma, O. Farkas, 
 J. B. Foresman, and D. J. Fox, Gaussian, Inc., Wallingford CT, 2019.
 
 ******************************************
 Gaussian 16:  EM64L-G16RevC.01  3-Jul-2019
                21-Mar-2022 
 ******************************************
 %mem=64gb
 %nproc=8
 Will use up to    8 processors via shared memory.
 ----------------------------------------------------------------------
 #P TD(Nstates=10000) pbepbe/Gen SCF(maxcycles=100) Int(Grid=ultrafine)
 ----------------------------------------------------------------------
 1/38=1,172=1/1;
 2/12=2,17=6,18=5,40=1/2;
 3/5=7,11=9,25=1,30=1,74=1009,75=-5/1,2,3,8;
 4//1;
 5/5=2,7=100,38=5/2;
 8/6=1,10=1,108=10000/1;
 9/41=10000,42=1,70=2/14;
 6/7=2,8=2,9=2,10=2/1;
 99/5=1,9=1/99;
 Leave Link    1 at Mon Mar 21 20:09:17 2022, MaxMem=  8589934592 cpu:               0.3 elap:               0.0
 (Enter /home/sabyasachi/g16/l101.exe)
 ---------------------
 xGDB7_00001_tier4.com
 ---------------------
 Symbolic Z-matrix:
 Charge =  0 Multiplicity = 1
 6                    -1.12284  -0.45232   0. 
 6                     0.        0.554     0. 
 9                     1.22528  -0.09824   0. 
 1                    -2.08331   0.06681   0. 
 1                    -1.0728   -1.08565   0.88615 
 1                    -1.0728   -1.08565  -0.88615 
 1                    -0.03079   1.18928   0.88872 
 1                    -0.03079   1.18928  -0.88872 
 
 ITRead=  0  0  0  0  0  0  0  0
 MicOpt= -1 -1 -1 -1 -1 -1 -1 -1
 NAtoms=      8 NQM=        8 NQMF=       0 NMMI=      0 NMMIF=      0
                NMic=       0 NMicF=      0.
                    Isotopes and Nuclear Properties:
 (Nuclear quadrupole moments (NQMom) in fm**2, nuclear magnetic moments (NMagM)
  in nuclear magnetons)

  Atom         1           2           3           4           5           6           7           8
 IAtWgt=          12          12          19           1           1           1           1           1
 AtmWgt=  12.0000000  12.0000000  18.9984033   1.0078250   1.0078250   1.0078250   1.0078250   1.0078250
 NucSpn=           0           0           1           1           1           1           1           1
 AtZEff=  -0.0000000  -0.0000000  -0.0000000  -0.0000000  -0.0000000  -0.0000000  -0.0000000  -0.0000000
 NQMom=    0.0000000   0.0000000   0.0000000   0.0000000   0.0000000   0.0000000   0.0000000   0.0000000
 NMagM=    0.0000000   0.0000000   2.6288670   2.7928460   2.7928460   2.7928460   2.7928460   2.7928460
 AtZNuc=   6.0000000   6.0000000   9.0000000   1.0000000   1.0000000   1.0000000   1.0000000   1.0000000
 Leave Link  101 at Mon Mar 21 20:09:17 2022, MaxMem=  8589934592 cpu:               0.6 elap:               0.1
 (Enter /home/sabyasachi/g16/l202.exe)
                          Input orientation:                          
 ---------------------------------------------------------------------
 Center     Atomic      Atomic             Coordinates (Angstroms)
 Number     Number       Type             X           Y           Z
 ---------------------------------------------------------------------
      1          6           0       -1.122844   -0.452320    0.000000
      2          6           0        0.000000    0.553997    0.000000
      3          9           0        1.225284   -0.098236    0.000000
      4          1           0       -2.083314    0.066805    0.000000
      5          1           0       -1.072796   -1.085651    0.886148
      6          1           0       -1.072796   -1.085651   -0.886148
      7          1           0       -0.030794    1.189278    0.888716
      8          1           0       -0.030794    1.189278   -0.888716
 ---------------------------------------------------------------------
                    Distance matrix (angstroms):
                    1          2          3          4          5
     1  C    0.000000
     2  C    1.507797   0.000000
     3  F    2.374675   1.388067   0.000000
     4  H    1.091784   2.139522   3.312712   0.000000
     5  H    1.090354   2.150487   2.653567   1.770469   0.000000
     6  H    1.090354   2.150487   2.653567   1.770469   1.772296
     7  H    2.162691   1.092862   2.006300   2.502519   2.502214
     8  H    2.162691   1.092862   2.006300   2.502519   3.067770
                    6          7          8
     6  H    0.000000
     7  H    3.067770   0.000000
     8  H    2.502214   1.777432   0.000000
 Stoichiometry    C2H5F
 Framework group  CS[SG(C2HF),X(H4)]
 Deg. of freedom    11
 Full point group                 CS      NOp   2
 Largest Abelian subgroup         CS      NOp   2
 Largest concise Abelian subgroup CS      NOp   2
                         Standard orientation:                         
 ---------------------------------------------------------------------
 Center     Atomic      Atomic             Coordinates (Angstroms)
 Number     Number       Type             X           Y           Z
 ---------------------------------------------------------------------
      1          6           0       -1.122844   -0.452320    0.000000
      2          6           0        0.000000    0.553997    0.000000
      3          9           0        1.225284   -0.098236    0.000000
      4          1           0       -2.083314    0.066805    0.000000
      5          1           0       -1.072796   -1.085651    0.886148
      6          1           0       -1.072796   -1.085651   -0.886148
      7          1           0       -0.030794    1.189278    0.888716
      8          1           0       -0.030794    1.189278   -0.888716
 ---------------------------------------------------------------------
 Rotational constants (GHZ):          36.5990005           9.3913155           8.2480707
 Leave Link  202 at Mon Mar 21 20:09:17 2022, MaxMem=  8589934592 cpu:               0.1 elap:               0.0
 (Enter /home/sabyasachi/g16/l301.exe)
 General basis read from cards:  (5D, 7F)
 Centers:       4      5      6      7      8
 S 3 1.00
     Exponent=  1.3010701000D+01 Coefficients=  1.9682158000D-02
     Exponent=  1.9622572000D+00 Coefficients=  1.3796524000D-01
     Exponent=  4.4453796000D-01 Coefficients=  4.7831935000D-01
 S 1 1.00
     Exponent=  1.2194962000D-01 Coefficients=  1.0000000000D+00
 P 1 1.00
     Exponent=  8.0000000000D-01 Coefficients=  1.0000000000D+00
 P 1 1.00
     Exponent=  1.1704099050D-01 Coefficients=  1.0000000000D+00
 ****
 Centers:       1      2
 S 5 1.00
     Exponent=  1.2384016938D+03 Coefficients=  5.4568832082D-03
     Exponent=  1.8629004992D+02 Coefficients=  4.0638409211D-02
     Exponent=  4.2251176346D+01 Coefficients=  1.8025593888D-01
     Exponent=  1.1676557932D+01 Coefficients=  4.6315121755D-01
     Exponent=  3.5930506482D+00 Coefficients=  4.4087173314D-01
 S 1 1.00
     Exponent=  4.0245147363D-01 Coefficients=  1.0000000000D+00
 S 1 1.00
     Exponent=  1.3090182668D-01 Coefficients=  1.0000000000D+00
 S 1 1.00
     Exponent=  6.7053540256D-02 Coefficients=  1.0000000000D+00
 P 3 1.00
     Exponent=  9.4680970621D+00 Coefficients=  3.8387871728D-02
     Exponent=  2.0103545142D+00 Coefficients=  2.1117025112D-01
     Exponent=  5.4771004707D-01 Coefficients=  5.1328172114D-01
 P 1 1.00
     Exponent=  1.5268613795D-01 Coefficients=  1.0000000000D+00
 D 1 1.00
     Exponent=  8.0000000000D-01 Coefficients=  1.0000000000D+00
 D 1 1.00
     Exponent=  1.1713185140D-01 Coefficients=  1.0000000000D+00
 ****
 Centers:       3
 S 5 1.00
     Exponent=  2.8948325990D+03 Coefficients= -5.3408255515D-03
     Exponent=  4.3541939120D+02 Coefficients= -3.9904258866D-02
     Exponent=  9.8843328866D+01 Coefficients= -1.7912768038D-01
     Exponent=  2.7485198001D+01 Coefficients= -4.6758090825D-01
     Exponent=  8.5405498171D+00 Coefficients= -4.4653131020D-01
 S 1 1.00
     Exponent=  1.0654578038D+00 Coefficients=  1.0000000000D+00
 S 1 1.00
     Exponent=  3.3247346748D-01 Coefficients=  1.0000000000D+00
 S 1 1.00
     Exponent=  9.8097752264D-02 Coefficients=  1.0000000000D+00
 P 3 1.00
     Exponent=  2.2696633924D+01 Coefficients= -4.5212874436D-02
     Exponent=  4.9872339257D+00 Coefficients= -2.3754317067D-01
     Exponent=  1.3491613954D+00 Coefficients= -5.1287353587D-01
 P 1 1.00
     Exponent=  3.4829881977D-01 Coefficients=  1.0000000000D+00
 P 1 1.00
     Exponent=  8.3372148304D-02 Coefficients=  1.0000000000D+00
 D 1 1.00
     Exponent=  1.4000000000D+00 Coefficients=  1.0000000000D+00
 D 1 1.00
     Exponent=  2.2301361948D-01 Coefficients=  1.0000000000D+00
 ****
 Ernie: Thresh=  0.10000D-02 Tol=  0.10000D-05 Strict=F.
 There are    72 symmetry adapted cartesian basis functions of A'  symmetry.
 There are    37 symmetry adapted cartesian basis functions of A"  symmetry.
 There are    66 symmetry adapted basis functions of A'  symmetry.
 There are    37 symmetry adapted basis functions of A"  symmetry.
   103 basis functions,   149 primitive gaussians,   109 cartesian basis functions
    13 alpha electrons       13 beta electrons
       nuclear repulsion energy        79.3301965124 Hartrees.
 IExCor= 1009 DFT=T Ex=PBE Corr=PBE ExCW=0 ScaHFX=  0.000000
 ScaDFX=  1.000000  1.000000  1.000000  1.000000 ScalE2=  1.000000  1.000000
 IRadAn=      5 IRanWt=     -1 IRanGd=            0 ICorTp=0 IEmpDi=  4
 NAtoms=    8 NActive=    8 NUniq=    6 SFac= 1.78D+00 NAtFMM=   60 NAOKFM=F Big=F
 Integral buffers will be    131072 words long.
 Regular integral format.
 Two-electron integral symmetry is turned on.
 Leave Link  301 at Mon Mar 21 20:09:17 2022, MaxMem=  8589934592 cpu:               0.5 elap:               0.1
 (Enter /home/sabyasachi/g16/l302.exe)
 NPDir=0 NMtPBC=     1 NCelOv=     1 NCel=       1 NClECP=     1 NCelD=      1
         NCelK=      1 NCelE2=     1 NClLst=     1 CellRange=     0.0.
 One-electron integrals computed using PRISM.
 One-electron integral symmetry used in STVInt
 NBasis=   103 RedAO= T EigKep=  3.43D-04  NBF=    66    37
 NBsUse=   103 1.00D-06 EigRej= -1.00D+00 NBFU=    66    37
 Precomputing XC quadrature grid using
 IXCGrd= 4 IRadAn=           5 IRanWt=          -1 IRanGd=           0 AccXCQ= 0.00D+00.
 Generated NRdTot=       0 NPtTot=           0 NUsed=           0 NTot=          32
 NSgBfM=   109   109   109   109   109 MxSgAt=     8 MxSgA2=     8.
 Leave Link  302 at Mon Mar 21 20:09:17 2022, MaxMem=  8589934592 cpu:               1.0 elap:               0.1
 (Enter /home/sabyasachi/g16/l303.exe)
 DipDrv:  MaxL=1.
 Leave Link  303 at Mon Mar 21 20:09:17 2022, MaxMem=  8589934592 cpu:               0.2 elap:               0.0
 (Enter /home/sabyasachi/g16/l308.exe)
 Leave Link  308 at Mon Mar 21 20:09:18 2022, MaxMem=  8589934592 cpu:               0.2 elap:               0.1
 (Enter /home/sabyasachi/g16/l401.exe)
 ExpMin= 6.71D-02 ExpMax= 2.89D+03 ExpMxC= 4.35D+02 IAcc=3 IRadAn=         5 AccDes= 0.00D+00
 Harris functional with IExCor= 1009 and IRadAn=       5 diagonalized for initial guess.
 HarFok:  IExCor= 1009 AccDes= 0.00D+00 IRadAn=         5 IDoV= 1 UseB2=F ITyADJ=14
 ICtDFT=  3500011 ScaDFX=  1.000000  1.000000  1.000000  1.000000
 FoFCou: FMM=F IPFlag=           0 FMFlag=      100000 FMFlg1=           0
         NFxFlg=           0 DoJE=T BraDBF=F KetDBF=T FulRan=T
         wScrn=  0.000000 ICntrl=       500 IOpCl=  0 I1Cent=   200000004 NGrid=           0
         NMat0=    1 NMatS0=      1 NMatT0=    0 NMatD0=    1 NMtDS0=    0 NMtDT0=    0
 Petite list used in FoFCou.
 Harris En= -178.788369508575    
 JPrj=0 DoOrth=F DoCkMO=F.
 Initial guess orbital symmetries:
       Occupied  (A') (A') (A') (A') (A') (A') (A") (A') (A') (A')
                 (A") (A') (A")
       Virtual   (A') (A') (A') (A") (A') (A") (A') (A') (A') (A")
                 (A") (A') (A') (A") (A') (A') (A') (A") (A') (A')
                 (A") (A") (A') (A') (A') (A") (A") (A') (A') (A")
                 (A") (A') (A") (A') (A') (A') (A") (A') (A') (A")
                 (A') (A') (A') (A") (A') (A') (A") (A') (A') (A")
                 (A') (A') (A") (A') (A") (A') (A') (A") (A") (A')
                 (A") (A") (A') (A') (A") (A') (A') (A") (A") (A')
                 (A') (A") (A') (A') (A") (A') (A') (A') (A") (A')
                 (A') (A') (A") (A') (A") (A') (A") (A") (A') (A')
 The electronic state of the initial guess is 1-A'.
 Leave Link  401 at Mon Mar 21 20:09:18 2022, MaxMem=  8589934592 cpu:               2.2 elap:               0.3
 (Enter /home/sabyasachi/g16/l502.exe)
 Keep J ints in memory in symmetry-blocked form, NReq=21838822.
 FoFCou: FMM=F IPFlag=           0 FMFlag=           0 FMFlg1=           0
         NFxFlg=           0 DoJE=F BraDBF=F KetDBF=F FulRan=T
         wScrn=  0.000000 ICntrl=       600 IOpCl=  0 I1Cent=           0 NGrid=           0
         NMat0=    1 NMatS0=   5356 NMatT0=    0 NMatD0=    1 NMtDS0=    0 NMtDT0=    0
 Petite list used in FoFCou.
 Closed shell SCF:
 Using DIIS extrapolation, IDIIS=  1040.
 NGot=  8589934592 LenX=  8582666380 LenY=  8582654058
 Requested convergence on RMS density matrix=1.00D-08 within 100 cycles.
 Requested convergence on MAX density matrix=1.00D-06.
 Requested convergence on             energy=1.00D-06.
 No special actions if energy rises.
 Integral accuracy reduced to 1.0D-05 until final iterations.

 Cycle   1  Pass 0  IDiag  1:
 E= -178.658712531699    
 DIIS: error= 2.88D-02 at cycle   1 NSaved=   1.
 NSaved= 1 IEnMin= 1 EnMin= -178.658712531699     IErMin= 1 ErrMin= 2.88D-02
 ErrMax= 2.88D-02  0.00D+00 EMaxC= 1.00D-01 BMatC= 6.26D-02 BMatP= 6.26D-02
 IDIUse=3 WtCom= 7.12D-01 WtEn= 2.88D-01
 Coeff-Com:  0.100D+01
 Coeff-En:   0.100D+01
 Coeff:      0.100D+01
 Gap=     0.266 Goal=   None    Shift=    0.000
 GapD=    0.266 DampG=1.000 DampE=0.500 DampFc=0.5000 IDamp=-1.
 Damping current iteration by 5.00D-01
 RMSDP=5.53D-03 MaxDP=1.67D-01              OVMax= 1.89D-01

 Cycle   2  Pass 0  IDiag  1:
 E= -178.682570996324     Delta-E=       -0.023858464624 Rises=F Damp=T
 DIIS: error= 5.72D-03 at cycle   2 NSaved=   2.
 NSaved= 2 IEnMin= 2 EnMin= -178.682570996324     IErMin= 2 ErrMin= 5.72D-03
 ErrMax= 5.72D-03  0.00D+00 EMaxC= 1.00D-01 BMatC= 4.78D-03 BMatP= 6.26D-02
 IDIUse=3 WtCom= 9.43D-01 WtEn= 5.72D-02
 Coeff-Com:  0.180D+00 0.820D+00
 Coeff-En:   0.293D+00 0.707D+00
 Coeff:      0.187D+00 0.813D+00
 Gap=     0.292 Goal=   None    Shift=    0.000
 RMSDP=1.15D-03 MaxDP=1.42D-02 DE=-2.39D-02 OVMax= 1.08D-01

 Cycle   3  Pass 0  IDiag  1:
 E= -178.728092417288     Delta-E=       -0.045521420965 Rises=F Damp=F
 DIIS: error= 1.64D-03 at cycle   3 NSaved=   3.
 NSaved= 3 IEnMin= 3 EnMin= -178.728092417288     IErMin= 3 ErrMin= 1.64D-03
 ErrMax= 1.64D-03  0.00D+00 EMaxC= 1.00D-01 BMatC= 3.51D-04 BMatP= 4.78D-03
 IDIUse=3 WtCom= 9.84D-01 WtEn= 1.64D-02
 Coeff-Com:  0.426D-01 0.239D+00 0.718D+00
 Coeff-En:   0.000D+00 0.000D+00 0.100D+01
 Coeff:      0.419D-01 0.236D+00 0.723D+00
 Gap=     0.290 Goal=   None    Shift=    0.000
 RMSDP=3.19D-04 MaxDP=4.07D-03 DE=-4.55D-02 OVMax= 4.66D-03

 Cycle   4  Pass 0  IDiag  1:
 E= -178.728376634224     Delta-E=       -0.000284216936 Rises=F Damp=F
 DIIS: error= 3.22D-04 at cycle   4 NSaved=   4.
 NSaved= 4 IEnMin= 4 EnMin= -178.728376634224     IErMin= 4 ErrMin= 3.22D-04
 ErrMax= 3.22D-04  0.00D+00 EMaxC= 1.00D-01 BMatC= 1.61D-05 BMatP= 3.51D-04
 IDIUse=3 WtCom= 9.97D-01 WtEn= 3.22D-03
 Coeff-Com:  0.596D-02 0.336D-01 0.206D+00 0.754D+00
 Coeff-En:   0.000D+00 0.000D+00 0.000D+00 0.100D+01
 Coeff:      0.594D-02 0.335D-01 0.205D+00 0.755D+00
 Gap=     0.291 Goal=   None    Shift=    0.000
 RMSDP=7.35D-05 MaxDP=8.69D-04 DE=-2.84D-04 OVMax= 1.46D-03

 Cycle   5  Pass 0  IDiag  1:
 E= -178.728384542063     Delta-E=       -0.000007907839 Rises=F Damp=F
 DIIS: error= 2.94D-04 at cycle   5 NSaved=   5.
 NSaved= 5 IEnMin= 5 EnMin= -178.728384542063     IErMin= 5 ErrMin= 2.94D-04
 ErrMax= 2.94D-04  0.00D+00 EMaxC= 1.00D-01 BMatC= 9.44D-06 BMatP= 1.61D-05
 IDIUse=3 WtCom= 9.97D-01 WtEn= 2.94D-03
 Coeff-Com:  0.206D-02 0.113D-01 0.987D-01 0.487D+00 0.401D+00
 Coeff-En:   0.000D+00 0.000D+00 0.000D+00 0.306D+00 0.694D+00
 Coeff:      0.206D-02 0.112D-01 0.984D-01 0.487D+00 0.402D+00
 Gap=     0.290 Goal=   None    Shift=    0.000
 RMSDP=2.39D-05 MaxDP=5.98D-04 DE=-7.91D-06 OVMax= 6.99D-04

 Cycle   6  Pass 0  IDiag  1:
 E= -178.728391333137     Delta-E=       -0.000006791074 Rises=F Damp=F
 DIIS: error= 4.25D-05 at cycle   6 NSaved=   6.
 NSaved= 6 IEnMin= 6 EnMin= -178.728391333137     IErMin= 6 ErrMin= 4.25D-05
 ErrMax= 4.25D-05  0.00D+00 EMaxC= 1.00D-01 BMatC= 2.82D-07 BMatP= 9.44D-06
 IDIUse=1 WtCom= 1.00D+00 WtEn= 0.00D+00
 Coeff-Com:  0.578D-03 0.269D-02 0.339D-01 0.200D+00 0.209D+00 0.554D+00
 Coeff:      0.578D-03 0.269D-02 0.339D-01 0.200D+00 0.209D+00 0.554D+00
 Gap=     0.290 Goal=   None    Shift=    0.000
 RMSDP=6.33D-06 MaxDP=1.13D-04 DE=-6.79D-06 OVMax= 1.25D-04

 Initial convergence to 1.0D-05 achieved.  Increase integral accuracy.
 Cycle   7  Pass 1  IDiag  1:
 E= -178.728390754014     Delta-E=        0.000000579123 Rises=F Damp=F
 DIIS: error= 1.23D-05 at cycle   1 NSaved=   1.
 NSaved= 1 IEnMin= 1 EnMin= -178.728390754014     IErMin= 1 ErrMin= 1.23D-05
 ErrMax= 1.23D-05  0.00D+00 EMaxC= 1.00D-01 BMatC= 2.01D-08 BMatP= 2.01D-08
 IDIUse=1 WtCom= 1.00D+00 WtEn= 0.00D+00
 Coeff-Com:  0.100D+01
 Coeff:      0.100D+01
 Gap=     0.290 Goal=   None    Shift=    0.000
 RMSDP=6.33D-06 MaxDP=1.13D-04 DE= 5.79D-07 OVMax= 8.42D-05

 Cycle   8  Pass 1  IDiag  1:
 E= -178.728390729027     Delta-E=        0.000000024987 Rises=F Damp=F
 DIIS: error= 1.85D-05 at cycle   2 NSaved=   2.
 NSaved= 2 IEnMin= 1 EnMin= -178.728390754014     IErMin= 1 ErrMin= 1.23D-05
 ErrMax= 1.85D-05  0.00D+00 EMaxC= 1.00D-01 BMatC= 4.98D-08 BMatP= 2.01D-08
 IDIUse=1 WtCom= 1.00D+00 WtEn= 0.00D+00
 Coeff-Com:  0.614D+00 0.386D+00
 Coeff:      0.614D+00 0.386D+00
 Gap=     0.290 Goal=   None    Shift=    0.000
 RMSDP=1.96D-06 MaxDP=6.68D-05 DE= 2.50D-08 OVMax= 5.60D-05

 Cycle   9  Pass 1  IDiag  1:
 E= -178.728390772293     Delta-E=       -0.000000043267 Rises=F Damp=F
 DIIS: error= 2.85D-06 at cycle   3 NSaved=   3.
 NSaved= 3 IEnMin= 3 EnMin= -178.728390772293     IErMin= 3 ErrMin= 2.85D-06
 ErrMax= 2.85D-06  0.00D+00 EMaxC= 1.00D-01 BMatC= 8.32D-10 BMatP= 2.01D-08
 IDIUse=1 WtCom= 1.00D+00 WtEn= 0.00D+00
 Coeff-Com:  0.322D+00 0.218D+00 0.460D+00
 Coeff:      0.322D+00 0.218D+00 0.460D+00
 Gap=     0.290 Goal=   None    Shift=    0.000
 RMSDP=2.57D-07 MaxDP=6.22D-06 DE=-4.33D-08 OVMax= 7.65D-06

 Cycle  10  Pass 1  IDiag  1:
 E= -178.728390772799     Delta-E=       -0.000000000506 Rises=F Damp=F
 DIIS: error= 7.42D-07 at cycle   4 NSaved=   4.
 NSaved= 4 IEnMin= 4 EnMin= -178.728390772799     IErMin= 4 ErrMin= 7.42D-07
 ErrMax= 7.42D-07  0.00D+00 EMaxC= 1.00D-01 BMatC= 7.61D-11 BMatP= 8.32D-10
 IDIUse=1 WtCom= 1.00D+00 WtEn= 0.00D+00
 Coeff-Com:  0.490D-01 0.400D-01 0.250D+00 0.661D+00
 Coeff:      0.490D-01 0.400D-01 0.250D+00 0.661D+00
 Gap=     0.290 Goal=   None    Shift=    0.000
 RMSDP=8.82D-08 MaxDP=1.39D-06 DE=-5.06D-10 OVMax= 2.13D-06

 Cycle  11  Pass 1  IDiag  1:
 E= -178.728390772856     Delta-E=       -0.000000000057 Rises=F Damp=F
 DIIS: error= 9.42D-08 at cycle   5 NSaved=   5.
 NSaved= 5 IEnMin= 5 EnMin= -178.728390772856     IErMin= 5 ErrMin= 9.42D-08
 ErrMax= 9.42D-08  0.00D+00 EMaxC= 1.00D-01 BMatC= 1.25D-12 BMatP= 7.61D-11
 IDIUse=1 WtCom= 1.00D+00 WtEn= 0.00D+00
 Coeff-Com: -0.326D-03 0.175D-02 0.576D-01 0.215D+00 0.726D+00
 Coeff:     -0.326D-03 0.175D-02 0.576D-01 0.215D+00 0.726D+00
 Gap=     0.290 Goal=   None    Shift=    0.000
 RMSDP=2.08D-08 MaxDP=3.03D-07 DE=-5.74D-11 OVMax= 3.30D-07

 Cycle  12  Pass 1  IDiag  1:
 E= -178.728390772856     Delta-E=        0.000000000000 Rises=F Damp=F
 DIIS: error= 2.46D-08 at cycle   6 NSaved=   6.
 NSaved= 6 IEnMin= 5 EnMin= -178.728390772856     IErMin= 6 ErrMin= 2.46D-08
 ErrMax= 2.46D-08  0.00D+00 EMaxC= 1.00D-01 BMatC= 5.06D-14 BMatP= 1.25D-12
 IDIUse=1 WtCom= 1.00D+00 WtEn= 0.00D+00
 Coeff-Com: -0.505D-03 0.356D-03 0.210D-01 0.837D-01 0.308D+00 0.587D+00
 Coeff:     -0.505D-03 0.356D-03 0.210D-01 0.837D-01 0.308D+00 0.587D+00
 Gap=     0.290 Goal=   None    Shift=    0.000
 RMSDP=3.07D-09 MaxDP=9.17D-08 DE= 1.14D-13 OVMax= 9.26D-08

 SCF Done:  E(RPBE-PBE) =  -178.728390773     A.U. after   12 cycles
            NFock= 12  Conv=0.31D-08     -V/T= 2.0087
 KE= 1.771857479986D+02 PE=-5.788796339537D+02 EE= 1.436352986699D+02
 Leave Link  502 at Mon Mar 21 20:09:20 2022, MaxMem=  8589934592 cpu:              12.9 elap:               1.7
 (Enter /home/sabyasachi/g16/l801.exe)
 DoSCS=F DFT=T ScalE2(SS,OS)=  1.000000  1.000000
 ExpMin= 6.71D-02 ExpMax= 2.89D+03 ExpMxC= 4.35D+02 IAcc=3 IRadAn=         5 AccDes= 0.00D+00
 HarFok:  IExCor=  205 AccDes= 0.00D+00 IRadAn=         5 IDoV=-2 UseB2=F ITyADJ=14
 ICtDFT= 12500011 ScaDFX=  1.000000  1.000000  1.000000  1.000000
 Largest valence mixing into a core orbital is  6.66D-05
 Largest core mixing into a valence orbital is  1.65D-05
 Range of M.O.s used for correlation:     4   103
 NBasis=   103 NAE=    13 NBE=    13 NFC=     3 NFV=     0
 NROrb=    100 NOA=    10 NOB=    10 NVA=    90 NVB=    90

 **** Warning!!: The largest alpha MO coefficient is  0.23984560D+02

 Leave Link  801 at Mon Mar 21 20:09:20 2022, MaxMem=  8589934592 cpu:               0.5 elap:               0.1
 (Enter /home/sabyasachi/g16/l914.exe)
 RHF ground state
 Keep J ints in memory in symmetry-blocked form, NReq=879135954.
 FoFCou: FMM=F IPFlag=           0 FMFlag=           0 FMFlg1=           0
         NFxFlg=           0 DoJE=F BraDBF=F KetDBF=F FulRan=T
         wScrn=  0.000000 ICntrl=       600 IOpCl=  0 I1Cent=           0 NGrid=           0
         NMat0=    1 NMatS0=   5356 NMatT0=    0 NMatD0=    1 NMtDS0=    0 NMtDT0=    0
 Petite list used in FoFCou.
 MDV=  8589934592 DFT=T DoStab=F Mixed=F DoRPA=T DoScal=T NonHer=F
 Making orbital integer symmetry assigments:
 Orbital symmetries:
       Occupied  (A') (A') (A') (A') (A') (A') (A') (A") (A') (A')
                 (A") (A') (A")
       Virtual   (A') (A') (A') (A") (A') (A") (A') (A') (A") (A')
                 (A") (A') (A') (A") (A') (A') (A") (A') (A') (A')
                 (A") (A') (A") (A') (A") (A') (A") (A') (A') (A")
                 (A") (A') (A") (A') (A') (A') (A") (A') (A') (A")
                 (A') (A') (A') (A") (A') (A') (A") (A') (A") (A')
                 (A') (A') (A") (A') (A") (A') (A") (A') (A") (A')
                 (A") (A") (A') (A') (A") (A') (A') (A") (A') (A")
                 (A') (A") (A') (A') (A") (A') (A') (A') (A") (A')
                 (A') (A') (A") (A') (A") (A') (A") (A") (A') (A')
   900 initial guesses have been made.
 Convergence on wavefunction:    0.001000000000000
 Davidson Disk Diagonalization:  ConvIn= 1.00D-03 SkipCon=T Conv= 1.00D-03.
 Max sub-space:  3600 roots to seek:  1800 dimension of matrix:         1800
 *** WARNING: Number of orthogonal guesses is          900
 Iteration     1 Dimension   900 NMult     0 NNew    900
 CISAX will form   900 AO SS matrices at one time.
 NMat=   900 NSing=   900 JSym2X=-1.
 New state      6 was old state      7
 New state      7 was old state      6
 New state     14 was old state     16
 New state     16 was old state     14
 New state     20 was old state     21
 New state     21 was old state     20
 New state     22 was old state     23
 New state     23 was old state     24
 New state     24 was old state     22
 New state     29 was old state     30
 New state     30 was old state     31
 New state     31 was old state     32
 New state     32 was old state     29
 New state     33 was old state     36
 New state     34 was old state     37
 New state     35 was old state     33
 New state     36 was old state     34
 New state     37 was old state     42
 New state     38 was old state     39
 New state     39 was old state     41
 New state     41 was old state     44
 New state     42 was old state     43
 New state     43 was old state     38
 New state     44 was old state     35
 New state     49 was old state     51
 New state     50 was old state     49
 New state     51 was old state     52
 New state     52 was old state     50
 New state     53 was old state     54
 New state     54 was old state     55
 New state     55 was old state     57
 New state     56 was old state     53
 New state     57 was old state     59
 New state     58 was old state     61
 New state     59 was old state     62
 New state     60 was old state     63
 New state     61 was old state     56
 New state     62 was old state     65
 New state     63 was old state     60
 New state     65 was old state     66
 New state     66 was old state     71
 New state     67 was old state     70
 New state     70 was old state     67
 New state     71 was old state     72
 New state     72 was old state     73
 New state     73 was old state     74
 New state     74 was old state     75
 New state     75 was old state     76
 New state     76 was old state     77
 New state     77 was old state     78
 New state     78 was old state     79
 New state     79 was old state     80
 New state     80 was old state     81
 New state     81 was old state     83
 New state     82 was old state     86
 New state     83 was old state     82
 New state     86 was old state     87
 New state     87 was old state     90
 New state     88 was old state     89
 New state     89 was old state     92
 New state     90 was old state     91
 New state     91 was old state     96
 New state     92 was old state     88
 New state     93 was old state     94
 New state     94 was old state     95
 New state     95 was old state     97
 New state     96 was old state    102
 New state     97 was old state     93
 New state    100 was old state    103
 New state    102 was old state    104
 New state    103 was old state    107
 New state    104 was old state    106
 New state    106 was old state    109
 New state    107 was old state    110
 New state    109 was old state    111
 New state    110 was old state    116
 New state    111 was old state    113
 New state    112 was old state    118
 New state    113 was old state    115
 New state    114 was old state    117
 New state    115 was old state    120
 New state    116 was old state    125
 New state    117 was old state    122
 New state    118 was old state    114
 New state    119 was old state    121
 New state    120 was old state    123
 New state    121 was old state    119
 New state    122 was old state    124
 New state    123 was old state    112
 New state    124 was old state    126
 New state    125 was old state    127
 New state    126 was old state    129
 New state    127 was old state    128
 New state    128 was old state    133
 New state    129 was old state    130
 New state    130 was old state    131
 New state    131 was old state    134
 New state    133 was old state    137
 New state    134 was old state    152
 New state    136 was old state    139
 New state    137 was old state    142
 New state    138 was old state    136
 New state    139 was old state    141
 New state    140 was old state    138
 New state    141 was old state    143
 New state    142 was old state    140
 New state    143 was old state    145
 New state    144 was old state    147
 New state    145 was old state    144
 New state    147 was old state    149
 New state    148 was old state    151
 New state    149 was old state    148
 New state    150 was old state    153
 New state    151 was old state    150
 New state    152 was old state    161
 New state    153 was old state    156
 New state    154 was old state    155
 New state    155 was old state    154
 New state    156 was old state    157
 New state    157 was old state    159
 New state    159 was old state    162
 New state    160 was old state    163
 New state    161 was old state    160
 New state    162 was old state    164
 New state    163 was old state    172
 New state    164 was old state    165
 New state    165 was old state    167
 New state    167 was old state    169
 New state    169 was old state    171
 New state    170 was old state    173
 New state    171 was old state    170
 New state    172 was old state    180
 New state    173 was old state    174
 New state    174 was old state    176
 New state    175 was old state    181
 New state    176 was old state    184
 New state    177 was old state    175
 New state    178 was old state    179
 New state    179 was old state    177
 New state    180 was old state    182
 New state    181 was old state    178
 New state    182 was old state    185
 New state    183 was old state    187
 New state    184 was old state    186
 New state    185 was old state    192
 New state    186 was old state    189
 New state    187 was old state    183
 New state    188 was old state    190
 New state    189 was old state    194
 New state    190 was old state    191
 New state    191 was old state    188
 New state    192 was old state    196
 New state    193 was old state    195
 New state    194 was old state    197
 New state    195 was old state    201
 New state    196 was old state    199
 New state    197 was old state    198
 New state    198 was old state    193
 New state    199 was old state    203
 New state    201 was old state    205
 New state    202 was old state    206
 New state    203 was old state    204
 New state    204 was old state    209
 New state    205 was old state    208
 New state    206 was old state    207
 New state    207 was old state    210
 New state    208 was old state    211
 New state    209 was old state    213
 New state    210 was old state    214
 New state    211 was old state    215
 New state    212 was old state    231
 New state    213 was old state    212
 New state    214 was old state    220
 New state    215 was old state    217
 New state    216 was old state    218
 New state    217 was old state    216
 New state    218 was old state    202
 New state    219 was old state    221
 New state    220 was old state    219
 New state    221 was old state    223
 New state    222 was old state    225
 New state    223 was old state    224
 New state    224 was old state    226
 New state    225 was old state    222
 New state    226 was old state    228
 New state    227 was old state    230
 New state    228 was old state    229
 New state    229 was old state    227
 New state    230 was old state    233
 New state    231 was old state    234
 New state    233 was old state    235
 New state    234 was old state    239
 New state    235 was old state    254
 New state    236 was old state    241
 New state    238 was old state    240
 New state    239 was old state    236
 New state    240 was old state    244
 New state    241 was old state    243
 New state    242 was old state    246
 New state    243 was old state    245
 New state    244 was old state    242
 New state    245 was old state    248
 New state    246 was old state    247
 New state    247 was old state    249
 New state    248 was old state    250
 New state    249 was old state    252
 New state    250 was old state    251
 New state    251 was old state    253
 New state    252 was old state    256
 New state    253 was old state    257
 New state    254 was old state    255
 New state    255 was old state    259
 New state    256 was old state    261
 New state    257 was old state    265
 New state    258 was old state    260
 New state    259 was old state    262
 New state    260 was old state    258
 New state    261 was old state    267
 New state    262 was old state    264
 New state    264 was old state    269
 No map to state    265
 New state    267 was old state    268
 New state    268 was old state    270
 New state    269 was old state    274
 New state    270 was old state    273
 New state    271 was old state    277
 New state    273 was old state    271
 New state    274 was old state    276
 New state    276 was old state    280
 New state    277 was old state    284
 New state    278 was old state    279
 New state    279 was old state    283
 New state    280 was old state    282
 New state    281 was old state    287
 New state    282 was old state    285
 New state    283 was old state    281
 New state    284 was old state    278
 New state    285 was old state    286
 New state    286 was old state    289
 New state    287 was old state    288
 New state    288 was old state    290
 New state    289 was old state    291
 New state    290 was old state    292
 New state    291 was old state    298
 New state    292 was old state    293
 New state    293 was old state    299
 New state    294 was old state    296
 New state    295 was old state    294
 New state    296 was old state    295
 New state    298 was old state    305
 New state    299 was old state    300
 New state    300 was old state    301
 New state    301 was old state    302
 New state    302 was old state    304
 New state    303 was old state    311
 New state    304 was old state    303
 New state    305 was old state    306
 New state    306 was old state    309
 New state    307 was old state    308
 New state    308 was old state    310
 New state    309 was old state    307
 New state    310 was old state    313
 New state    311 was old state    314
 No map to state    313
 New state    314 was old state    319
 New state    315 was old state    316
 New state    316 was old state    315
 New state    317 was old state    318
 New state    318 was old state    317
 New state    319 was old state    321
 New state    320 was old state    323
 New state    321 was old state    322
 New state    322 was old state    320
 New state    323 was old state    330
 New state    324 was old state    326
 New state    326 was old state    324
 New state    330 was old state    331
 New state    331 was old state    332
 New state    332 was old state    334
 New state    334 was old state    336
 New state    336 was old state    337
 New state    337 was old state    339
 New state    339 was old state    340
 New state    340 was old state    343
 New state    343 was old state    345
 New state    345 was old state    350
 New state    347 was old state    349
 New state    349 was old state    347
 New state    350 was old state    351
 New state    351 was old state    353
 New state    353 was old state    354
 New state    354 was old state    359
 New state    355 was old state    356
 New state    356 was old state    355
 New state    359 was old state    361
 New state    360 was old state    362
 New state    361 was old state    363
 New state    362 was old state    360
 New state    363 was old state    367
 New state    364 was old state    365
 New state    365 was old state    372
 New state    366 was old state    368
 New state    367 was old state    370
 New state    368 was old state    371
 New state    369 was old state    366
 New state    370 was old state    364
 New state    371 was old state    374
 New state    372 was old state    376
 New state    373 was old state    375
 New state    374 was old state    373
 New state    375 was old state    378
 New state    376 was old state    377
 New state    377 was old state    379
 New state    378 was old state    380
 New state    379 was old state    381
 New state    380 was old state    383
 New state    381 was old state    382
 New state    382 was old state    388
 New state    383 was old state    384
 New state    384 was old state    389
 New state    385 was old state    386
 New state    386 was old state    387
 New state    387 was old state    385
 New state    388 was old state    391
 New state    389 was old state    392
 New state    390 was old state    398
 New state    391 was old state    395
 New state    392 was old state    394
 New state    394 was old state    390
 New state    395 was old state    396
 New state    396 was old state    397
 New state    397 was old state    399
 New state    398 was old state    402
 New state    399 was old state    400
 New state    400 was old state    408
 New state    402 was old state    404
 New state    403 was old state    410
 New state    404 was old state    407
 New state    405 was old state    406
 New state    406 was old state    409
 New state    407 was old state    415
 New state    408 was old state    411
 New state    409 was old state    405
 New state    410 was old state    414
 New state    411 was old state    412
 New state    412 was old state    416
 New state    413 was old state    403
 New state    414 was old state    413
 New state    415 was old state    418
 New state    416 was old state    417
 New state    417 was old state    423
 New state    418 was old state    419
 New state    419 was old state    420
 New state    420 was old state    421
 New state    421 was old state    422
 New state    422 was old state    434
 New state    423 was old state    424
 New state    424 was old state    426
 New state    426 was old state    427
 New state    427 was old state    430
 New state    429 was old state    433
 New state    430 was old state    432
 New state    431 was old state    429
 New state    432 was old state    431
 New state    433 was old state    435
 New state    434 was old state    436
 New state    435 was old state    437
 New state    436 was old state    438
 New state    437 was old state    439
 New state    438 was old state    440
 New state    439 was old state    441
 New state    440 was old state    442
 New state    441 was old state    443
 New state    442 was old state    445
 New state    443 was old state    448
 New state    444 was old state    451
 New state    445 was old state    444
 New state    446 was old state    447
 New state    447 was old state    446
 New state    448 was old state    450
 New state    450 was old state    452
 New state    451 was old state    455
 New state    452 was old state    453
 New state    453 was old state    454
 New state    454 was old state    460
 New state    455 was old state    456
 New state    456 was old state    457
 New state    457 was old state    458
 New state    458 was old state    463
 New state    459 was old state    461
 New state    460 was old state    459
 New state    461 was old state    462
 New state    462 was old state    464
 New state    463 was old state    465
 New state    464 was old state    469
 New state    465 was old state    466
 New state    466 was old state    468
 New state    467 was old state    474
 New state    468 was old state    472
 New state    469 was old state    471
 New state    471 was old state    473
 New state    472 was old state    467
 New state    473 was old state    475
 New state    474 was old state    483
 New state    475 was old state    476
 New state    476 was old state    477
 New state    477 was old state    478
 New state    478 was old state    479
 New state    479 was old state    480
 New state    480 was old state    482
 New state    482 was old state    502
 New state    483 was old state    484
 New state    484 was old state    485
 New state    485 was old state    487
 New state    486 was old state    488
 New state    487 was old state    486
 New state    488 was old state    490
 New state    490 was old state    492
 New state    491 was old state    495
 New state    492 was old state    491
 New state    495 was old state    496
 New state    496 was old state    499
 New state    497 was old state    498
 New state    498 was old state    500
 New state    499 was old state    497
 New state    500 was old state    506
 New state    502 was old state    503
 New state    503 was old state    505
 New state    505 was old state    507
 New state    506 was old state    510
 New state    507 was old state    508
 New state    508 was old state    512
 New state    510 was old state    511
 New state    511 was old state    515
 New state    512 was old state    513
 New state    513 was old state    514
 New state    514 was old state    525
 New state    515 was old state    516
 New state    516 was old state    518
 New state    518 was old state    521
 New state    521 was old state    523
 New state    523 was old state    526
 New state    525 was old state    531
 New state    526 was old state    527
 New state    527 was old state    528
 New state    528 was old state    529
 New state    529 was old state    532
 New state    531 was old state    534
 New state    532 was old state    533
 No map to state    533
 No map to state    534
 New state    536 was old state    537
 New state    537 was old state    536
 New state    541 was old state    543
 New state    542 was old state    544
 New state    543 was old state    541
 New state    544 was old state    542
 New state    551 was old state    552
 New state    552 was old state    553
 New state    553 was old state    554
 New state    554 was old state    551
 New state    556 was old state    557
 New state    557 was old state    558
 New state    558 was old state    556
 New state    559 was old state    561
 New state    561 was old state    562
 New state    562 was old state    563
 New state    563 was old state    559
 New state    565 was old state    568
 New state    566 was old state    567
 New state    567 was old state    565
 New state    568 was old state    569
 New state    569 was old state    570
 New state    570 was old state    571
 New state    571 was old state    566
 New state    574 was old state    575
 New state    575 was old state    576
 New state    576 was old state    577
 New state    577 was old state    581
 New state    578 was old state    574
 New state    581 was old state    578
 New state    582 was old state    583
 New state    583 was old state    585
 New state    585 was old state    587
 New state    587 was old state    588
 New state    588 was old state    589
 New state    589 was old state    582
 New state    591 was old state    593
 New state    592 was old state    594
 New state    593 was old state    591
 New state    594 was old state    592
 New state    599 was old state    600
 New state    600 was old state    601
 New state    601 was old state    599
 New state    603 was old state    605
 New state    604 was old state    603
 New state    605 was old state    607
 New state    607 was old state    604
 New state    611 was old state    612
 New state    612 was old state    611
 New state    614 was old state    615
 New state    615 was old state    614
 New state    616 was old state    617
 New state    617 was old state    616
 New state    621 was old state    622
 New state    622 was old state    621
 New state    623 was old state    625
 New state    624 was old state    623
 New state    625 was old state    628
 New state    628 was old state    630
 New state    629 was old state    631
 New state    630 was old state    632
 New state    631 was old state    633
 New state    632 was old state    629
 New state    633 was old state    634
 New state    634 was old state    637
 New state    635 was old state    636
 New state    636 was old state    638
 New state    637 was old state    640
 New state    638 was old state    639
 New state    639 was old state    641
 New state    640 was old state    635
 New state    641 was old state    642
 New state    642 was old state    645
 New state    645 was old state    646
 New state    646 was old state    648
 New state    647 was old state    649
 New state    648 was old state    647
 New state    649 was old state    653
 New state    653 was old state    654
 New state    654 was old state    670
 New state    658 was old state    659
 New state    659 was old state    662
 New state    660 was old state    661
 New state    661 was old state    660
 New state    662 was old state    663
 New state    663 was old state    658
 New state    664 was old state    665
 New state    665 was old state    664
 New state    668 was old state    669
 New state    669 was old state    672
 New state    670 was old state    671
 New state    671 was old state    668
 New state    672 was old state    674
 New state    673 was old state    675
 New state    674 was old state    673
 New state    675 was old state    678
 New state    678 was old state    679
 New state    679 was old state    680
 New state    680 was old state    681
 New state    681 was old state    682
 New state    682 was old state    683
 New state    683 was old state    686
 New state    686 was old state    687
 New state    687 was old state    688
 New state    688 was old state    689
 New state    689 was old state    690
 New state    690 was old state    691
 New state    691 was old state    693
 New state    693 was old state    696
 New state    696 was old state    697
 New state    697 was old state    698
 New state    698 was old state    699
 New state    699 was old state    702
 New state    702 was old state    703
 New state    703 was old state    704
 New state    704 was old state    707
 New state    707 was old state    708
 New state    708 was old state    709
 New state    709 was old state    710
 New state    710 was old state    712
 New state    711 was old state    717
 New state    712 was old state    713
 New state    713 was old state    711
 New state    715 was old state    716
 New state    716 was old state    715
 New state    717 was old state    718
 New state    718 was old state    719
 New state    719 was old state    720
 New state    720 was old state    722
 New state    722 was old state    727
 New state    726 was old state    729
 New state    727 was old state    728
 New state    728 was old state    730
 New state    729 was old state    732
 New state    730 was old state    731
 New state    731 was old state    733
 New state    732 was old state    734
 New state    733 was old state    726
 New state    734 was old state    749
 New state    740 was old state    741
 New state    741 was old state    740
 New state    742 was old state    743
 New state    743 was old state    742
 New state    746 was old state    748
 New state    747 was old state    746
 New state    748 was old state    750
 New state    749 was old state    751
 New state    750 was old state    752
 New state    751 was old state    754
 New state    752 was old state    747
 New state    754 was old state    755
 New state    755 was old state    757
 New state    757 was old state    758
 New state    758 was old state    759
 New state    759 was old state    760
 New state    760 was old state    764
 New state    762 was old state    763
 New state    763 was old state    762
 New state    764 was old state    765
 New state    765 was old state    766
 New state    766 was old state    767
 New state    767 was old state    768
 New state    768 was old state    769
 New state    769 was old state    770
 No map to state    770
 New state    775 was old state    776
 New state    776 was old state    775
 New state    780 was old state    781
 New state    781 was old state    782
 New state    782 was old state    780
 New state    803 was old state    805
 New state    804 was old state    803
 New state    805 was old state    804
 New state    808 was old state    809
 New state    809 was old state    808
 New state    810 was old state    811
 New state    811 was old state    810
 New state    819 was old state    820
 New state    820 was old state    819
 New state    822 was old state    823
 New state    823 was old state    824
 New state    824 was old state    822
 New state    827 was old state    828
 New state    828 was old state    829
 New state    829 was old state    830
 New state    830 was old state    831
 New state    831 was old state    832
 New state    832 was old state    827
 New state    833 was old state    834
 New state    834 was old state    835
 New state    835 was old state    836
 New state    836 was old state    837
 New state    837 was old state    833
 New state    842 was old state    843
 New state    843 was old state    844
 New state    844 was old state    846
 New state    845 was old state    847
 New state    846 was old state    845
 New state    847 was old state    842
 New state    848 was old state    849
 New state    849 was old state    851
 New state    851 was old state    853
 New state    852 was old state    854
 New state    853 was old state    848
 New state    854 was old state    852
 New state    856 was old state    860
 New state    857 was old state    859
 New state    859 was old state    857
 New state    860 was old state    861
 New state    861 was old state    863
 New state    862 was old state    866
 New state    863 was old state    865
 New state    864 was old state    867
 New state    865 was old state    869
 New state    866 was old state    868
 New state    867 was old state    874
 New state    868 was old state    872
 New state    869 was old state    870
 New state    870 was old state    871
 New state    871 was old state    873
 New state    872 was old state    875
 New state    873 was old state    876
 New state    874 was old state    879
 New state    875 was old state    878
 New state    876 was old state    877
 No map to state    877
 New state    878 was old state    884
 New state    879 was old state    880
 New state    880 was old state    881
 New state    881 was old state    885
 New state    884 was old state    886
 New state    885 was old state    887
 New state    886 was old state    889
 New state    887 was old state    888
 New state    888 was old state    890
 New state    889 was old state    891
 New state    890 was old state    892
 New state    891 was old state    893
 No map to state    892
 New state    893 was old state    894
 New state    894 was old state    898
 No map to state    897
 New state    898 was old state    897
 Excitation Energies [eV] at current iteration:
 Root      1 :     7.924142330555829
 Root      2 :     8.183939555928704
 Root      3 :     8.738006069804079
 Root      4 :     8.949004592758198
 Root      5 :     9.298677505267310
 Root      6 :     9.465775105407412
 Root      7 :     9.542938860463495
 Root      8 :     9.629639421592188
 Root      9 :     9.712539341911082
 Root     10 :     9.831781152869635
 Root     11 :     9.951730928757634
 Root     12 :    10.196676753754640
 Root     13 :    10.522563089127180
 Root     14 :    10.635366309101610
 Root     15 :    10.646806549956640
 Root     16 :    10.679257402234980
 Root     17 :    10.724834751632650
 Root     18 :    10.802029857882060
 Root     19 :    10.996452701530460
 Root     20 :    11.075401585557850
 Root     21 :    11.132588149863540
 Root     22 :    11.223017232719060
 Root     23 :    11.245181995037330
 Root     24 :    11.257677572516840
 Root     25 :    11.363502419649130
 Root     26 :    11.486618304607510
 Root     27 :    11.621204130256090
 Root     28 :    11.773817258748220
 Root     29 :    11.908521565335270
 Root     30 :    11.972307317094740
 Root     31 :    12.070730562871090
 Root     32 :    12.158760652992940
 Root     33 :    12.296916660172380
 Root     34 :    12.325971342365760
 Root     35 :    12.337932927204370
 Root     36 :    12.340911302347290
 Root     37 :    12.405845881601620
 Root     38 :    12.443019447231620
 Root     39 :    12.472355863713270
 Root     40 :    12.532636795060620
 Root     41 :    12.559121692354100
 Root     42 :    12.669785098411080
 Root     43 :    12.697368201182110
 Root     44 :    12.868781625499370
 Root     45 :    12.900075888536900
 Root     46 :    12.987834401028490
 Root     47 :    13.110704014439150
 Root     48 :    13.215752441984120
 Root     49 :    13.278728092058380
 Root     50 :    13.292296273678650
 Root     51 :    13.311209301326920
 Root     52 :    13.430902062923330
 Root     53 :    13.557992373708370
 Root     54 :    13.602454489174380
 Root     55 :    13.675445014239700
 Root     56 :    13.713935156494180
 Root     57 :    13.756348730019950
 Root     58 :    13.774100779426330
 Root     59 :    13.816573536851030
 Root     60 :    13.891270768226840
 Root     61 :    13.893334089908900
 Root     62 :    14.027523093902130
 Root     63 :    14.082733906396660
 Root     64 :    14.120245139426220
 Root     65 :    14.134960498295000
 Root     66 :    14.187235066547440
 Root     67 :    14.257195012459360
 Root     68 :    14.283603395172000
 Root     69 :    14.331685414778440
 Root     70 :    14.450316627053080
 Root     71 :    14.546983305774520
 Root     72 :    14.656602629605180
 Root     73 :    14.772511478749410
 Root     74 :    14.809760422726270
 Root     75 :    14.981305182133450
 Root     76 :    14.988995045648560
 Root     77 :    15.047066822298390
 Root     78 :    15.090076787395500
 Root     79 :    15.141042800124050
 Root     80 :    15.192271701295320
 Root     81 :    15.205078943800080
 Root     82 :    15.306804918064530
 Root     83 :    15.357870761389300
 Root     84 :    15.370201940492660
 Root     85 :    15.380401833435860
 Root     86 :    15.407593618138370
 Root     87 :    15.418763568301480
 Root     88 :    15.432042609343130
 Root     89 :    15.578290749109610
 Root     90 :    15.601673058157540
 Root     91 :    15.618301198949980
 Root     92 :    15.642211523350440
 Root     93 :    15.843689543961160
 Root     94 :    15.848408565343310
 Root     95 :    15.919382337310320
 Root     96 :    15.958222923104970
 Root     97 :    16.072910783533220
 Root     98 :    16.193031741315360
 Root     99 :    16.287730811422850
 Root    100 :    16.330108641093220
 Root    101 :    16.373441862479670
 Root    102 :    16.485011618765540
 Root    103 :    16.523162103781290
 Root    104 :    16.556839415097680
 Root    105 :    16.570194358052220
 Root    106 :    16.580349040554600
 Root    107 :    16.614619282148830
 Root    108 :    16.652122756978380
 Root    109 :    16.709809698133440
 Root    110 :    16.722554984579830
 Root    111 :    16.732319046626880
 Root    112 :    16.829629397203500
 Root    113 :    16.833740464132870
 Root    114 :    16.902101156038260
 Root    115 :    16.978367096327470
 Root    116 :    17.011161777080730
 Root    117 :    17.013776985403560
 Root    118 :    17.021105888167700
 Root    119 :    17.040330908138070
 Root    120 :    17.058478199112150
 Root    121 :    17.072345924021020
 Root    122 :    17.146913103313250
 Root    123 :    17.149028656725200
 Root    124 :    17.303253400502210
 Root    125 :    17.319083125152040
 Root    126 :    17.456444320948030
 Root    127 :    17.494488253735650
 Root    128 :    17.563634870185170
 Root    129 :    17.590226821555080
 Root    130 :    17.632025316601510
 Root    131 :    17.671898833662110
 Root    132 :    17.694668197472180
 Root    133 :    17.839708662633900
 Root    134 :    17.938442575110530
 Root    135 :    17.976181653436170
 Root    136 :    18.046411688040280
 Root    137 :    18.114569593105330
 Root    138 :    18.122109560856580
 Root    139 :    18.144016905466560
 Root    140 :    18.145315733001230
 Root    141 :    18.269404773712450
 Root    142 :    18.270342351396370
 Root    143 :    18.324183873823030
 Root    144 :    18.327082970054620
 Root    145 :    18.354561124081640
 Root    146 :    18.375093644444220
 Root    147 :    18.455536449714150
 Root    148 :    18.494980880999600
 Root    149 :    18.520173270643780
 Root    150 :    18.537935078036440
 Root    151 :    18.596320611492280
 Root    152 :    18.657133250778730
 Root    153 :    18.779083482002010
 Root    154 :    18.885742428623180
 Root    155 :    18.903912417707750
 Root    156 :    18.989245407795520
 Root    157 :    19.055190075129200
 Root    158 :    19.103965948758310
 Root    159 :    19.135218732095570
 Root    160 :    19.193245467113470
 Root    161 :    19.212341293304200
 Root    162 :    19.264402391913210
 Root    163 :    19.329395177575560
 Root    164 :    19.336598911878550
 Root    165 :    19.349241554821430
 Root    166 :    19.429313115106630
 Root    167 :    19.431002058747740
 Root    168 :    19.491267769970510
 Root    169 :    19.554908538067190
 Root    170 :    19.582426662801390
 Root    171 :    19.624672384829720
 Root    172 :    19.672661981181230
 Root    173 :    19.694428810929740
 Root    174 :    19.714014884013650
 Root    175 :    19.770302242877160
 Root    176 :    19.809405399527770
 Root    177 :    19.860746748765410
 Root    178 :    19.908123074500440
 Root    179 :    19.921110207408110
 Root    180 :    19.926669914264510
 Root    181 :    19.964501316101880
 Root    182 :    19.971080050160930
 Root    183 :    20.062146387845310
 Root    184 :    20.083530792482300
 Root    185 :    20.105834976309730
 Root    186 :    20.186036013693440
 Root    187 :    20.194955388991360
 Root    188 :    20.292516047887150
 Root    189 :    20.320012824554080
 Root    190 :    20.337616931387160
 Root    191 :    20.415832369191340
 Root    192 :    20.471621389358860
 Root    193 :    20.548244876286190
 Root    194 :    20.599633579645630
 Root    195 :    20.602805831421390
 Root    196 :    20.687514242014980
 Root    197 :    20.706557366899340
 Root    198 :    20.713612156028640
 Root    199 :    20.741646291260460
 Root    200 :    20.795124564428020
 Root    201 :    20.910443007320750
 Root    202 :    20.922800258848610
 Root    203 :    20.932993704760560
 Root    204 :    20.977572637171200
 Root    205 :    21.005728240339050
 Root    206 :    21.017531180647800
 Root    207 :    21.141799339644990
 Root    208 :    21.144959197635950
 Root    209 :    21.186842764115760
 Root    210 :    21.201865052509150
 Root    211 :    21.227555858406150
 Root    212 :    21.228603849650070
 Root    213 :    21.259167358907470
 Root    214 :    21.315349167946860
 Root    215 :    21.330723737837200
 Root    216 :    21.359381961103230
 Root    217 :    21.378695070512010
 Root    218 :    21.436557736193430
 Root    219 :    21.457943577867510
 Root    220 :    21.580958375534440
 Root    221 :    21.586332976737010
 Root    222 :    21.661979704792000
 Root    223 :    21.695774969059820
 Root    224 :    21.695966174616470
 Root    225 :    21.735044210995360
 Root    226 :    21.776333657462500
 Root    227 :    21.837112587135800
 Root    228 :    21.843367403275030
 Root    229 :    21.857333128306520
 Root    230 :    21.923501689570550
 Root    231 :    21.946842299789260
 Root    232 :    21.999021644154670
 Root    233 :    22.053158881172920
 Root    234 :    22.110074810822450
 Root    235 :    22.181362501451820
 Root    236 :    22.185351102202660
 Root    237 :    22.212967401371200
 Root    238 :    22.250610016957960
 Root    239 :    22.323161349350270
 Root    240 :    22.325010574837100
 Root    241 :    22.332280774667030
 Root    242 :    22.372481576822780
 Root    243 :    22.425397164247690
 Root    244 :    22.466561810247860
 Root    245 :    22.532254534178720
 Root    246 :    22.601497333688750
 Root    247 :    22.635034936071540
 Root    248 :    22.718122989478450
 Root    249 :    22.731377867001950
 Root    250 :    22.854668432827010
 Root    251 :    22.886702296234330
 Root    252 :    23.007286794942840
 Root    253 :    23.022002698782390
 Root    254 :    23.109316546870690
 Root    255 :    23.180410826852600
 Root    256 :    23.240377542090620
 Root    257 :    23.277028064660510
 Root    258 :    23.280472693636090
 Root    259 :    23.330787137687360
 Root    260 :    23.343653621566120
 Root    261 :    23.349719154847820
 Root    262 :    23.503438735445330
 Root    263 :    23.578240786472270
 Root    264 :    23.602092221417450
 Root    265 :    23.623623424138540
 Root    266 :    23.649338622505290
 Root    267 :    23.886285094811090
 Root    268 :    23.969495653477520
 Root    269 :    23.984557702844470
 Root    270 :    24.002142530784710
 Root    271 :    24.081279180035300
 Root    272 :    24.093524966056400
 Root    273 :    24.175776470639270
 Root    274 :    24.193605484864520
 Root    275 :    24.264137018536430
 Root    276 :    24.281034902286770
 Root    277 :    24.363328152496760
 Root    278 :    24.434555739172360
 Root    279 :    24.470986330886420
 Root    280 :    24.518402325847330
 Root    281 :    24.566641250082120
 Root    282 :    24.594932246766080
 Root    283 :    24.620375675413200
 Root    284 :    24.640135283369480
 Root    285 :    24.676709864652550
 Root    286 :    24.744449370645710
 Root    287 :    24.769908458239100
 Root    288 :    24.837905268727270
 Root    289 :    24.880127275889430
 Root    290 :    24.934878532744960
 Root    291 :    25.016978941443550
 Root    292 :    25.101824186210840
 Root    293 :    25.184108694309990
 Root    294 :    25.271350678710610
 Root    295 :    25.295330894728710
 Root    296 :    25.415724908566160
 Root    297 :    25.515765985355230
 Root    298 :    25.562873631804190
 Root    299 :    25.592656937415760
 Root    300 :    25.685516682647270
 Root    301 :    25.773633534849560
 Root    302 :    25.786691481539310
 Root    303 :    25.974719136716860
 Root    304 :    26.056096151977190
 Root    305 :    26.309411764044680
 Root    306 :    26.389304086185670
 Root    307 :    26.495807482394960
 Root    308 :    26.612435989962690
 Root    309 :    26.616586533834330
 Root    310 :    26.669998551016820
 Root    311 :    26.823567982150100
 Root    312 :    26.839716378232300
 Root    313 :    26.939703567391340
 Root    314 :    27.096079738990570
 Root    315 :    27.212059304251820
 Root    316 :    27.340310104560070
 Root    317 :    27.344243471766600
 Root    318 :    27.436958476892730
 Root    319 :    27.622225125516160
 Root    320 :    27.636976403741890
 Root    321 :    27.768917629038500
 Root    322 :    27.833142626885810
 Root    323 :    27.943749054637000
 Root    324 :    28.027089848536540
 Root    325 :    28.035847892201950
 Root    326 :    28.156818351140920
 Root    327 :    28.175212398100100
 Root    328 :    28.259855444952100
 Root    329 :    28.270559621849390
 Root    330 :    28.500865881036900
 Root    331 :    28.531657516536090
 Root    332 :    28.559261649405640
 Root    333 :    28.563951211646400
 Root    334 :    28.618333636274840
 Root    335 :    28.851329881531590
 Root    336 :    28.912755604655660
 Root    337 :    28.987280851063570
 Root    338 :    28.996432078313570
 Root    339 :    29.100766920027500
 Root    340 :    29.153877229657610
 Root    341 :    29.196045506544600
 Root    342 :    29.221362471822050
 Root    343 :    29.421862923819920
 Root    344 :    29.599342664479960
 Root    345 :    29.667610316456120
 Root    346 :    29.680961294252040
 Root    347 :    29.817765161610090
 Root    348 :    29.905086864244540
 Root    349 :    29.912518780076870
 Root    350 :    30.050164726692340
 Root    351 :    30.196922535884160
 Root    352 :    30.224278322035020
 Root    353 :    30.271413911244490
 Root    354 :    30.304883868903620
 Root    355 :    30.411834676114660
 Root    356 :    30.447697414786880
 Root    357 :    30.660276625258570
 Root    358 :    30.666231442615750
 Root    359 :    30.873886601527170
 Root    360 :    30.891473590473950
 Root    361 :    30.911543673363320
 Root    362 :    30.915120874797790
 Root    363 :    31.051419923048490
 Root    364 :    31.072995227973340
 Root    365 :    31.172390037647590
 Root    366 :    31.211929982255070
 Root    367 :    31.212155680763680
 Root    368 :    31.215819584336330
 Root    369 :    31.311872837976530
 Root    370 :    31.367301948171580
 Root    371 :    31.390290214268250
 Root    372 :    31.440313481156490
 Root    373 :    31.482026423785850
 Root    374 :    31.565283507619720
 Root    375 :    31.636568038190300
 Root    376 :    31.814173329760660
 Root    377 :    31.820753781366740
 Root    378 :    31.962078567599400
 Root    379 :    32.017332117537620
 Root    380 :    32.037898779025880
 Root    381 :    32.066837719889430
 Root    382 :    32.158006694602070
 Root    383 :    32.310731366406070
 Root    384 :    32.367266123341530
 Root    385 :    32.418951138489170
 Root    386 :    32.451152162611680
 Root    387 :    32.464880088247350
 Root    388 :    32.571072540654310
 Root    389 :    32.590696923199370
 Root    390 :    32.686572207737890
 Root    391 :    32.719300238620200
 Root    392 :    32.789713291132230
 Root    393 :    32.834310870118820
 Root    394 :    32.895920432508260
 Root    395 :    32.919706408882520
 Root    396 :    32.977384802695720
 Root    397 :    33.037377624613400
 Root    398 :    33.039568189206520
 Root    399 :    33.271376564287920
 Root    400 :    33.273996263165060
 Root    401 :    33.431950948834520
 Root    402 :    33.508649695594570
 Root    403 :    33.550272464075330
 Root    404 :    33.651069849797920
 Root    405 :    33.673186433605240
 Root    406 :    33.711378480802400
 Root    407 :    33.765456219301910
 Root    408 :    33.794972153218740
 Root    409 :    33.828427858714040
 Root    410 :    33.835366410628390
 Root    411 :    33.888269691496580
 Root    412 :    33.968606178458140
 Root    413 :    33.980799074977540
 Root    414 :    34.013483874853640
 Root    415 :    34.026414667138300
 Root    416 :    34.097647982004990
 Root    417 :    34.315632543519580
 Root    418 :    34.436080271173480
 Root    419 :    34.542498889793540
 Root    420 :    34.680314964213750
 Root    421 :    34.843484976805430
 Root    422 :    34.919886251739970
 Root    423 :    35.025709363816550
 Root    424 :    35.073614004039890
 Root    425 :    35.130142385301790
 Root    426 :    35.191198402310720
 Root    427 :    35.352479588449000
 Root    428 :    35.391796300692780
 Root    429 :    35.465474624358640
 Root    430 :    35.473999144504600
 Root    431 :    35.510590762428870
 Root    432 :    35.601458720313500
 Root    433 :    35.711579590246710
 Root    434 :    35.734519350495960
 Root    435 :    35.843201611869650
 Root    436 :    35.985513435345200
 Root    437 :    36.066249219979830
 Root    438 :    36.109456044358790
 Root    439 :    36.213246200010370
 Root    440 :    36.214840857726050
 Root    441 :    36.312459838728830
 Root    442 :    36.432918580749680
 Root    443 :    36.476258047511680
 Root    444 :    36.599325660057510
 Root    445 :    36.695127498473030
 Root    446 :    36.725043196074430
 Root    447 :    36.745240357601570
 Root    448 :    36.847727524500850
 Root    449 :    36.904527145482180
 Root    450 :    36.999204638880150
 Root    451 :    37.004366258660070
 Root    452 :    37.158649395965210
 Root    453 :    37.248406969948990
 Root    454 :    37.328781552805270
 Root    455 :    37.513035621996730
 Root    456 :    37.677649069656630
 Root    457 :    37.856315295550090
 Root    458 :    37.926635016956010
 Root    459 :    37.970694347250000
 Root    460 :    37.990113549362760
 Root    461 :    38.054126058932350
 Root    462 :    38.122405444879770
 Root    463 :    38.143650548118410
 Root    464 :    38.196658938514470
 Root    465 :    38.226411387797700
 Root    466 :    38.257503759127750
 Root    467 :    38.340682510489100
 Root    468 :    38.352556069082630
 Root    469 :    38.387574325842980
 Root    470 :    38.483435415888450
 Root    471 :    38.657524522673870
 Root    472 :    38.693600038001210
 Root    473 :    38.823339443561910
 Root    474 :    38.888703963647100
 Root    475 :    38.894264648035040
 Root    476 :    38.941462101488980
 Root    477 :    39.056219454226250
 Root    478 :    39.074055991071640
 Root    479 :    39.174517911512990
 Root    480 :    39.491964861183120
 Root    481 :    39.555897341463660
 Root    482 :    39.561296173304030
 Root    483 :    39.635659425166170
 Root    484 :    39.796360759072060
 Root    485 :    39.871094566087510
 Root    486 :    40.278211873066300
 Root    487 :    40.419708313230930
 Root    488 :    40.443143756314560
 Root    489 :    40.486018467145400
 Root    490 :    40.598328480238090
 Root    491 :    40.697560937588250
 Root    492 :    40.726703943103420
 Root    493 :    40.767748360270250
 Root    494 :    40.837679472919880
 Root    495 :    40.903573975965530
 Root    496 :    40.973481196615500
 Root    497 :    41.036514783506300
 Root    498 :    41.104123246944380
 Root    499 :    41.183681396986340
 Root    500 :    41.324500284337020
 Root    501 :    41.388471389870490
 Root    502 :    41.529138167892330
 Root    503 :    41.591264974103410
 Root    504 :    41.684430382117920
 Root    505 :    41.830716127845090
 Root    506 :    41.918157813446380
 Root    507 :    41.921311821457990
 Root    508 :    42.041046347267490
 Root    509 :    42.097792551279890
 Root    510 :    42.238313713590030
 Root    511 :    42.321289228986110
 Root    512 :    42.521187922395580
 Root    513 :    42.544399039298360
 Root    514 :    42.601950803125190
 Root    515 :    42.818095050398030
 Root    516 :    42.878443166169100
 Root    517 :    42.971257530489460
 Root    518 :    43.245139649187190
 Root    519 :    43.253349600799710
 Root    520 :    43.276355913661730
 Root    521 :    43.488941688958780
 Root    522 :    43.793924943383310
 Root    523 :    43.888058126509560
 Root    524 :    44.026907206358320
 Root    525 :    44.153508909590200
 Root    526 :    44.264254392362630
 Root    527 :    44.481266203768240
 Root    528 :    44.630095686934310
 Root    529 :    44.751902428334170
 Root    530 :    44.813807232540970
 Root    531 :    45.110023016661770
 Root    532 :    45.124714941823690
 Root    533 :    45.242949104056410
 Root    534 :    45.552556968461720
 Root    535 :    46.646868854102680
 Root    536 :    47.586374571217800
 Root    537 :    47.687915842808770
 Root    538 :    48.016137761216920
 Root    539 :    48.130464409499170
 Root    540 :    48.613431693769870
 Root    541 :    48.629595802260560
 Root    542 :    48.730214668389260
 Root    543 :    48.747510216551990
 Root    544 :    48.857503104644540
 Root    545 :    49.093903987602240
 Root    546 :    49.336710658886260
 Root    547 :    49.501083098441830
 Root    548 :    49.749103341221410
 Root    549 :    49.793003868344940
 Root    550 :    49.932857642619590
 Root    551 :    50.116065971286200
 Root    552 :    50.235170911342080
 Root    553 :    50.273533135205750
 Root    554 :    50.507316113650910
 Root    555 :    50.617451959174600
 Root    556 :    50.686017139685460
 Root    557 :    50.987310241954890
 Root    558 :    51.008036192579540
 Root    559 :    51.131817977573870
 Root    560 :    51.240621225167780
 Root    561 :    51.336844597668440
 Root    562 :    51.464238057826800
 Root    563 :    51.511896565785690
 Root    564 :    51.624695430312380
 Root    565 :    51.749824866693390
 Root    566 :    51.856619613975040
 Root    567 :    51.892686387368440
 Root    568 :    52.030313024176110
 Root    569 :    52.072352561771970
 Root    570 :    52.160198515422580
 Root    571 :    52.385401861397830
 Root    572 :    52.515742928173700
 Root    573 :    52.644277073446010
 Root    574 :    52.995289113109410
 Root    575 :    53.023076978457450
 Root    576 :    53.210710918402980
 Root    577 :    53.235945805780790
 Root    578 :    53.239677745162720
 Root    579 :    53.302699347384020
 Root    580 :    53.328538560033570
 Root    581 :    53.472730994450440
 Root    582 :    53.563119279224750
 Root    583 :    53.778293448792430
 Root    584 :    53.842443244524250
 Root    585 :    54.032344156508540
 Root    586 :    54.267858482770590
 Root    587 :    54.268404441057190
 Root    588 :    54.507078256667570
 Root    589 :    54.743132265608340
 Root    590 :    54.783003974507190
 Root    591 :    55.141020917362680
 Root    592 :    55.185403287829920
 Root    593 :    55.194565692399640
 Root    594 :    55.356760487535550
 Root    595 :    55.644328391247160
 Root    596 :    55.710931536017030
 Root    597 :    55.785652638081490
 Root    598 :    56.042631544677360
 Root    599 :    56.063075655737430
 Root    600 :    56.125874803324440
 Root    601 :    56.322675698896690
 Root    602 :    56.366149939789960
 Root    603 :    56.461758732859110
 Root    604 :    56.623529147533820
 Root    605 :    56.799890796711490
 Root    606 :    56.810342256372690
 Root    607 :    57.023411894874090
 Root    608 :    57.058573946952500
 Root    609 :    57.531621344462560
 Root    610 :    57.756620220074180
 Root    611 :    57.908488260586120
 Root    612 :    57.938864061254860
 Root    613 :    58.046883153931380
 Root    614 :    58.068245677710150
 Root    615 :    58.090756739125100
 Root    616 :    58.178617046694090
 Root    617 :    58.328303452500780
 Root    618 :    58.816913203735760
 Root    619 :    58.956357014783680
 Root    620 :    59.220601903533760
 Root    621 :    59.288480815585470
 Root    622 :    59.426643057800850
 Root    623 :    59.441437728066540
 Root    624 :    59.490491771936410
 Root    625 :    59.614596143410550
 Root    626 :    59.697960185268130
 Root    627 :    59.699085802954060
 Root    628 :    59.896578393142680
 Root    629 :    59.935009383055250
 Root    630 :    60.075187464938620
 Root    631 :    60.189463761813900
 Root    632 :    60.202642565973290
 Root    633 :    60.227665202053170
 Root    634 :    60.263523114847350
 Root    635 :    60.335728502602380
 Root    636 :    60.386609344089590
 Root    637 :    60.542635389014580
 Root    638 :    60.543194732617180
 Root    639 :    60.594655285200330
 Root    640 :    60.598578451471120
 Root    641 :    60.696312087129700
 Root    642 :    60.856820024323300
 Root    643 :    60.977870049937670
 Root    644 :    61.129866397476280
 Root    645 :    61.340681765760350
 Root    646 :    61.541805963973060
 Root    647 :    61.586437591290210
 Root    648 :    61.617053852972550
 Root    649 :    61.821602950484660
 Root    650 :    61.871614782462630
 Root    651 :    61.928986569386630
 Root    652 :    62.013222422431860
 Root    653 :    62.068403212879300
 Root    654 :    62.080625114803080
 Root    655 :    62.226458518867080
 Root    656 :    62.303810651191390
 Root    657 :    62.408889574671920
 Root    658 :    62.501535991322860
 Root    659 :    62.601275021794940
 Root    660 :    62.658700168682860
 Root    661 :    62.867291645484220
 Root    662 :    62.932277589419740
 Root    663 :    62.988452397102850
 Root    664 :    63.423772878768020
 Root    665 :    63.512410638355480
 Root    666 :    63.632478542690360
 Root    667 :    63.707198089953540
 Root    668 :    63.722586594453400
 Root    669 :    63.821984716346380
 Root    670 :    63.868603717820330
 Root    671 :    63.884497854428390
 Root    672 :    64.021809424812360
 Root    673 :    64.100021206676120
 Root    674 :    64.179999501192380
 Root    675 :    64.218697191788880
 Root    676 :    64.524502915349200
 Root    677 :    64.815483228404330
 Root    678 :    64.866213239128140
 Root    679 :    65.157433021367100
 Root    680 :    65.442789050155880
 Root    681 :    65.635859734897540
 Root    682 :    65.706716854571790
 Root    683 :    65.868564526237550
 Root    684 :    65.876415262620580
 Root    685 :    65.947683299179090
 Root    686 :    66.264248903694170
 Root    687 :    66.383453361841260
 Root    688 :    66.961947183848490
 Root    689 :    67.038273885274780
 Root    690 :    67.190978039862730
 Root    691 :    67.233523414769320
 Root    692 :    67.271522362362330
 Root    693 :    67.425372776073170
 Root    694 :    67.450389599649090
 Root    695 :    67.603536230925020
 Root    696 :    67.885915387759790
 Root    697 :    68.080901725469420
 Root    698 :    68.373887608200010
 Root    699 :    68.592634255320760
 Root    700 :    68.756722365262360
 Root    701 :    68.970144150521160
 Root    702 :    69.444404234645330
 Root    703 :    69.510717254497210
 Root    704 :    69.820149739750860
 Root    705 :    69.919109369497820
 Root    706 :    70.096814537557240
 Root    707 :    70.192463443484260
 Root    708 :    70.314409455610570
 Root    709 :    70.483276142739210
 Root    710 :    70.532500692735700
 Root    711 :    70.623631321979670
 Root    712 :    70.694262718967140
 Root    713 :    70.769070328627630
 Root    714 :    71.281711027498420
 Root    715 :    71.293266588128110
[...]
      3   0.261422D-01  0.212158D-01  0.325392D-01  0.000000D+00 -0.109658D-01
      4   0.000000D+00  0.000000D+00  0.000000D+00 -0.318275D-01  0.000000D+00
      5  -0.138861D-02  0.207780D-01 -0.233960D-01  0.000000D+00  0.406623D-01
      6  -0.751482D-01 -0.413873D-01 -0.978956D-01  0.000000D+00  0.266257D-01
      7   0.000000D+00  0.000000D+00  0.000000D+00  0.893936D-01  0.000000D+00
      8   0.000000D+00  0.000000D+00  0.000000D+00  0.174589D+00  0.000000D+00
      9   0.000000D+00  0.000000D+00  0.000000D+00 -0.190571D+00  0.000000D+00
     10  -0.951146D-01  0.171039D+00 -0.223317D+00  0.000000D+00  0.313518D-01
     11  -0.735492D+00 -0.879548D-01 -0.535329D-01  0.000000D+00  0.169201D+00
     12  -0.173845D+00 -0.654897D+00 -0.582139D+00  0.000000D+00 -0.249319D+00
     13   0.249604D+00 -0.325822D+00 -0.167271D+00  0.000000D+00 -0.268405D+00
     14  -0.541668D+00 -0.121535D+00 -0.265865D+00  0.000000D+00 -0.133347D+00
     15   0.000000D+00  0.000000D+00  0.000000D+00  0.112561D+00  0.000000D+00
     16   0.000000D+00  0.000000D+00  0.000000D+00  0.232669D+00  0.000000D+00
               836           837           838           839           840 
      1  -0.175219D+03 -0.175198D+03 -0.175169D+03 -0.175158D+03 -0.175128D+03
      2   0.000000D+00 -0.544608D-01 -0.290683D-01  0.480041D-01  0.000000D+00
      3   0.000000D+00  0.101434D-01  0.313057D-01  0.366797D-01  0.000000D+00
      4   0.346724D-01  0.000000D+00  0.000000D+00  0.000000D+00  0.173180D-01
      5   0.000000D+00  0.223856D+00  0.697761D-01 -0.107382D+00  0.000000D+00
      6   0.000000D+00 -0.741002D-01 -0.889856D-01 -0.786515D-01  0.000000D+00
      7  -0.924360D-01  0.000000D+00  0.000000D+00  0.000000D+00 -0.566385D-01
      8   0.106543D-01  0.000000D+00  0.000000D+00  0.000000D+00  0.198401D-01
      9  -0.247645D+00  0.000000D+00  0.000000D+00  0.000000D+00  0.925722D-01
     10   0.000000D+00 -0.189065D+00  0.245123D+00 -0.687221D-01  0.000000D+00
     11   0.000000D+00  0.602596D+00 -0.220573D+00  0.436347D+00  0.000000D+00
     12   0.000000D+00 -0.528574D+00  0.342514D+00 -0.163648D+00  0.000000D+00
     13   0.000000D+00 -0.916992D+00  0.961187D-02  0.363038D-01  0.000000D+00
     14   0.000000D+00 -0.606749D+00  0.208220D+00  0.195349D+00  0.000000D+00
     15   0.282588D+00  0.000000D+00  0.000000D+00  0.000000D+00 -0.980799D-01
     16  -0.309042D-01  0.000000D+00  0.000000D+00  0.000000D+00  0.758235D-02
               841           842           843           844           845 
      1  -0.175127D+03 -0.175125D+03 -0.175121D+03 -0.175106D+03 -0.175093D+03
      2   0.611586D-02  0.000000D+00  0.000000D+00  0.184359D-01  0.000000D+00
      3   0.125982D-01  0.000000D+00  0.000000D+00  0.123882D-01  0.000000D+00
      4   0.000000D+00  0.857055D-02  0.120801D-01  0.000000D+00 -0.294100D-01
      5  -0.236382D-01  0.000000D+00  0.000000D+00 -0.804882D-01  0.000000D+00
      6  -0.390134D-01  0.000000D+00  0.000000D+00 -0.446197D-01  0.000000D+00
      7   0.000000D+00 -0.357040D-01 -0.161053D-01  0.000000D+00  0.913121D-01
      8   0.000000D+00  0.184330D+00 -0.571030D-01  0.000000D+00 -0.287631D+00
      9   0.000000D+00 -0.156406D+00 -0.160215D+00  0.000000D+00  0.295657D+00
     10  -0.346122D-02  0.000000D+00  0.000000D+00 -0.117823D+00  0.000000D+00
     11  -0.286666D+00  0.000000D+00  0.000000D+00 -0.428943D+00  0.000000D+00
     12  -0.402322D-01  0.000000D+00  0.000000D+00  0.218768D+00  0.000000D+00
     13   0.487722D-02  0.000000D+00  0.000000D+00  0.240371D+00  0.000000D+00
     14   0.410995D-01  0.000000D+00  0.000000D+00 -0.621705D-01  0.000000D+00
     15   0.000000D+00  0.889126D-01  0.238068D+00  0.000000D+00 -0.394676D+00
     16   0.000000D+00  0.105966D-01 -0.986062D-01  0.000000D+00 -0.120531D+00
               846           847           848           849           850 
      1  -0.175090D+03 -0.175089D+03 -0.175064D+03 -0.175062D+03 -0.175045D+03
      2   0.000000D+00 -0.465139D-01 -0.315155D-02  0.000000D+00  0.478839D-01
      3   0.000000D+00 -0.102191D+00 -0.403131D-02  0.000000D+00  0.725709D-01
      4   0.108781D+00  0.000000D+00  0.000000D+00 -0.985219D-02  0.000000D+00
      5   0.000000D+00  0.147875D+00  0.496843D-02  0.000000D+00 -0.155779D+00
      6   0.000000D+00  0.345132D+00  0.131359D-02  0.000000D+00 -0.234898D+00
      7  -0.367767D+00  0.000000D+00  0.000000D+00  0.413445D-01  0.000000D+00
      8  -0.707101D-02  0.000000D+00  0.000000D+00  0.114431D-01  0.000000D+00
      9   0.696960D+00  0.000000D+00  0.000000D+00 -0.885578D-01  0.000000D+00
     10   0.000000D+00  0.676849D+00  0.165781D-01  0.000000D+00 -0.360037D+00
     11   0.000000D+00  0.562247D+00 -0.786087D-01  0.000000D+00 -0.705477D+00
     12   0.000000D+00  0.674220D-01 -0.665687D-01  0.000000D+00  0.606750D-01
     13   0.000000D+00  0.174392D-01  0.346067D-01  0.000000D+00  0.285934D-01
     14   0.000000D+00  0.648503D+00 -0.439606D-01  0.000000D+00 -0.372640D+00
     15  -0.679007D+00  0.000000D+00  0.000000D+00  0.685371D-01  0.000000D+00
     16  -0.320825D-01  0.000000D+00  0.000000D+00  0.447557D-01  0.000000D+00
               851           852           853           854           855 
      1  -0.175044D+03 -0.175044D+03 -0.175044D+03 -0.175041D+03 -0.175034D+03
      2   0.000000D+00  0.405722D-01  0.000000D+00  0.236148D-01  0.000000D+00
      3   0.000000D+00 -0.801245D-01  0.000000D+00  0.504366D-01  0.000000D+00
      4  -0.579552D-01  0.000000D+00  0.843238D-01  0.000000D+00 -0.352930D-01
      5   0.000000D+00 -0.128144D+00  0.000000D+00 -0.881261D-01  0.000000D+00
      6   0.000000D+00  0.231051D+00  0.000000D+00 -0.176836D+00  0.000000D+00
      7   0.192121D+00  0.000000D+00 -0.285530D+00  0.000000D+00  0.121802D+00
      8  -0.109080D-01  0.000000D+00 -0.308027D-01  0.000000D+00 -0.158136D-01
      9  -0.411424D+00  0.000000D+00  0.706936D+00  0.000000D+00 -0.239557D+00
     10   0.000000D+00 -0.425900D+00  0.000000D+00 -0.690492D+00  0.000000D+00
     11   0.000000D+00  0.264731D+00  0.000000D+00  0.222023D+00  0.000000D+00
     12   0.000000D+00 -0.233864D+00  0.000000D+00 -0.161920D+00  0.000000D+00
     13   0.000000D+00  0.193871D+00  0.000000D+00 -0.108529D-01  0.000000D+00
     14   0.000000D+00 -0.188170D+00  0.000000D+00 -0.581812D+00  0.000000D+00
     15   0.438682D+00  0.000000D+00 -0.664158D+00  0.000000D+00  0.173686D+00
     16  -0.820230D-01  0.000000D+00 -0.547896D-01  0.000000D+00  0.705252D-01
               856           857           858           859           860 
      1  -0.175001D+03 -0.174999D+03 -0.174995D+03 -0.174989D+03 -0.174980D+03
      2   0.474427D-01  0.000000D+00  0.000000D+00 -0.336343D-01  0.000000D+00
      3  -0.210198D-01  0.000000D+00  0.000000D+00 -0.945922D-01  0.000000D+00
      4   0.000000D+00 -0.873684D-01  0.917379D-01  0.000000D+00 -0.354865D-01
      5  -0.151123D+00  0.000000D+00  0.000000D+00  0.115809D+00  0.000000D+00
      6   0.667853D-01  0.000000D+00  0.000000D+00  0.309469D+00  0.000000D+00
      7   0.000000D+00  0.247723D+00 -0.302248D+00  0.000000D+00  0.118896D+00
      8   0.000000D+00  0.552364D-02  0.456827D-01  0.000000D+00  0.186332D-01
      9   0.000000D+00  0.507122D+00  0.424041D+00  0.000000D+00 -0.345196D+00
     10   0.148118D+00  0.000000D+00  0.000000D+00  0.629065D+00  0.000000D+00
     11  -0.847983D+00  0.000000D+00  0.000000D+00  0.672258D+00  0.000000D+00
     12  -0.685975D-01  0.000000D+00  0.000000D+00  0.620612D-01  0.000000D+00
     13   0.520504D-01  0.000000D+00  0.000000D+00  0.171227D-01  0.000000D+00
     14   0.397966D+00  0.000000D+00  0.000000D+00  0.564801D+00  0.000000D+00
     15   0.000000D+00 -0.465996D+00 -0.369304D+00  0.000000D+00  0.319084D+00
     16   0.000000D+00  0.323020D-01  0.386557D-02  0.000000D+00  0.211740D-01
               861           862           863           864           865 
      1  -0.174970D+03 -0.174968D+03 -0.174966D+03 -0.174965D+03 -0.174951D+03
      2   0.000000D+00  0.405093D-02 -0.559178D-02  0.000000D+00 -0.738200D-01
      3   0.000000D+00  0.145549D-01  0.670681D-02  0.000000D+00  0.828753D-01
      4   0.104893D-01  0.000000D+00  0.000000D+00 -0.287808D-01  0.000000D+00
      5   0.000000D+00 -0.168056D-01  0.193085D-01  0.000000D+00  0.254624D+00
      6   0.000000D+00 -0.552553D-01 -0.289401D-01  0.000000D+00 -0.271939D+00
      7  -0.345113D-01  0.000000D+00  0.000000D+00  0.905701D-01  0.000000D+00
      8   0.299890D-01  0.000000D+00  0.000000D+00  0.759856D-02  0.000000D+00
      9  -0.355357D-01  0.000000D+00  0.000000D+00 -0.151949D+00  0.000000D+00
     10   0.000000D+00 -0.156335D-01 -0.766783D-01  0.000000D+00 -0.337965D+00
     11   0.000000D+00  0.404104D+00  0.184302D+00  0.000000D+00  0.136695D+01
     12   0.000000D+00  0.967239D-01  0.185133D+00  0.000000D+00  0.165087D+00
     13   0.000000D+00 -0.236140D-01 -0.819809D-01  0.000000D+00 -0.312908D-01
     14   0.000000D+00 -0.358405D-01 -0.928915D-01  0.000000D+00 -0.675451D+00
     15   0.924517D-03  0.000000D+00  0.000000D+00  0.757413D-01  0.000000D+00
     16   0.727910D-02  0.000000D+00  0.000000D+00 -0.337014D-01  0.000000D+00
               866           867           868           869           870 
      1  -0.174944D+03 -0.174924D+03 -0.174918D+03 -0.174907D+03 -0.174899D+03
      2   0.000000D+00 -0.121471D+00  0.000000D+00 -0.316842D-01 -0.130770D-01
      3   0.000000D+00 -0.124425D+00  0.000000D+00  0.838834D-02  0.652248D-01
      4  -0.993728D-01  0.000000D+00  0.113333D+00  0.000000D+00  0.000000D+00
      5   0.000000D+00  0.405580D+00  0.000000D+00  0.115653D+00  0.395875D-01
      6   0.000000D+00  0.411824D+00  0.000000D+00 -0.245491D-01 -0.222995D+00
      7   0.315815D+00  0.000000D+00 -0.370208D+00  0.000000D+00  0.000000D+00
      8   0.371207D-03  0.000000D+00  0.540908D-01  0.000000D+00  0.000000D+00
      9  -0.669857D+00  0.000000D+00  0.814716D+00  0.000000D+00  0.000000D+00
     10   0.000000D+00  0.947877D+00  0.000000D+00  0.749400D-01 -0.448842D+00
     11   0.000000D+00  0.157970D+01  0.000000D+00  0.516809D+00  0.578404D+00
     12   0.000000D+00  0.954292D-01  0.000000D+00 -0.215240D+00 -0.503977D-01
     13   0.000000D+00 -0.517167D-01  0.000000D+00 -0.108369D+00 -0.467337D-01
     14   0.000000D+00  0.660363D+00  0.000000D+00 -0.443392D-01 -0.447258D+00
     15   0.530006D+00  0.000000D+00 -0.748950D+00  0.000000D+00  0.000000D+00
     16   0.940591D-01  0.000000D+00  0.119024D-01  0.000000D+00  0.000000D+00
               871           872           873           874           875 
      1  -0.174876D+03 -0.174850D+03 -0.174847D+03 -0.174804D+03 -0.174801D+03
      2   0.000000D+00  0.175611D-03  0.000000D+00  0.186698D+00  0.000000D+00
      3   0.000000D+00 -0.256167D-01  0.000000D+00 -0.225968D+00  0.000000D+00
      4  -0.427981D-02  0.000000D+00  0.225799D-01  0.000000D+00  0.214582D+00
      5   0.000000D+00  0.607429D-02  0.000000D+00 -0.658026D+00  0.000000D+00
      6   0.000000D+00  0.949236D-01  0.000000D+00  0.789503D+00  0.000000D+00
      7   0.227559D-01  0.000000D+00 -0.868297D-01  0.000000D+00 -0.744881D+00
      8  -0.108565D-01  0.000000D+00  0.530803D-01  0.000000D+00  0.162233D+00
      9  -0.111416D+00  0.000000D+00  0.219753D+00  0.000000D+00  0.175753D+01
     10   0.000000D+00  0.261284D+00  0.000000D+00  0.176364D+01  0.000000D+00
     11   0.000000D+00  0.763070D-01  0.000000D+00 -0.319129D+01  0.000000D+00
     12   0.000000D+00  0.829392D-01  0.000000D+00 -0.408137D+00  0.000000D+00
     13   0.000000D+00 -0.142852D+00  0.000000D+00 -0.479560D-01  0.000000D+00
     14   0.000000D+00  0.373072D+00  0.000000D+00  0.206446D+01  0.000000D+00
     15   0.436368D-01  0.000000D+00 -0.319185D+00  0.000000D+00 -0.167880D+01
     16   0.439837D-01  0.000000D+00 -0.751110D-01  0.000000D+00  0.158548D+00
               876           877           878           879           880 
      1  -0.174776D+03 -0.174771D+03 -0.174727D+03 -0.174723D+03 -0.174719D+03
      2  -0.232483D+00  0.111796D+00  0.000000D+00  0.158234D-01  0.000000D+00
      3  -0.526398D-01  0.728435D-01  0.000000D+00  0.199346D-01  0.000000D+00
      4   0.000000D+00  0.000000D+00 -0.251690D+00  0.000000D+00  0.104871D+00
      5   0.811062D+00 -0.377201D+00  0.000000D+00 -0.613381D-01  0.000000D+00
      6   0.182257D+00 -0.233178D+00  0.000000D+00 -0.708349D-01  0.000000D+00
      7   0.000000D+00  0.000000D+00  0.870110D+00  0.000000D+00 -0.372289D+00
      8   0.000000D+00  0.000000D+00 -0.183096D+00  0.000000D+00  0.118182D+00
      9   0.000000D+00  0.000000D+00 -0.197697D+01  0.000000D+00  0.940370D+00
     10   0.695888D+00 -0.461001D+00  0.000000D+00 -0.279889D+00  0.000000D+00
     11   0.408710D+01 -0.156442D+01  0.000000D+00 -0.272941D+00  0.000000D+00
     12  -0.188966D+00 -0.164591D+00  0.000000D+00  0.206046D+00  0.000000D+00
     13   0.115069D+00  0.766567D-01  0.000000D+00 -0.148165D+00  0.000000D+00
     14   0.399566D+00 -0.366495D+00  0.000000D+00 -0.192921D+00  0.000000D+00
     15   0.000000D+00  0.000000D+00  0.212190D+01  0.000000D+00 -0.106639D+01
     16   0.000000D+00  0.000000D+00 -0.310441D+00  0.000000D+00  0.187854D-01
               881           882           883           884           885 
      1  -0.174715D+03 -0.174706D+03 -0.174656D+03 -0.174645D+03 -0.174630D+03
      2   0.986347D-01  0.000000D+00  0.995440D-02  0.000000D+00 -0.180944D-01
      3   0.230651D+00  0.000000D+00 -0.226161D-01  0.000000D+00 -0.579857D-01
      4   0.000000D+00  0.110425D-01  0.000000D+00  0.432683D-01  0.000000D+00
      5  -0.350068D+00  0.000000D+00 -0.306545D-01  0.000000D+00  0.728297D-01
      6  -0.806388D+00  0.000000D+00  0.835897D-01  0.000000D+00  0.215438D+00
      7   0.000000D+00 -0.406882D-01  0.000000D+00 -0.165236D+00  0.000000D+00
      8   0.000000D+00 -0.749651D-01  0.000000D+00  0.296141D-01  0.000000D+00
      9   0.000000D+00 -0.115506D-01  0.000000D+00  0.265395D+00  0.000000D+00
     10  -0.199874D+01  0.000000D+00  0.749194D-01  0.000000D+00  0.511140D+00
     11  -0.179878D+01  0.000000D+00  0.119028D-01  0.000000D+00  0.134415D+00
     12   0.469360D+00  0.000000D+00 -0.252258D-01  0.000000D+00  0.124847D+00
     13   0.111315D-01  0.000000D+00 -0.178827D+00  0.000000D+00 -0.273188D-01
     14  -0.190366D+01  0.000000D+00  0.186409D+00  0.000000D+00  0.367112D+00
     15   0.000000D+00  0.319068D-01  0.000000D+00 -0.156902D+00  0.000000D+00
     16   0.000000D+00  0.133633D+00  0.000000D+00 -0.812926D-02  0.000000D+00
               886           887           888           889           890 
      1  -0.174616D+03 -0.174612D+03 -0.174592D+03 -0.174572D+03 -0.174546D+03
      2   0.000000D+00  0.000000D+00  0.123241D+00 -0.306556D-02  0.000000D+00
      3   0.000000D+00  0.000000D+00  0.191183D+00 -0.199017D+00  0.000000D+00
      4   0.179860D+00 -0.780566D-01  0.000000D+00  0.000000D+00 -0.296667D+00
      5   0.000000D+00  0.000000D+00 -0.453533D+00 -0.486454D-02  0.000000D+00
      6   0.000000D+00  0.000000D+00 -0.680729D+00  0.734278D+00  0.000000D+00
      7  -0.650522D+00  0.269211D+00  0.000000D+00  0.000000D+00  0.108041D+01
      8   0.415291D-01  0.637265D-01  0.000000D+00  0.000000D+00 -0.110679D+00
      9   0.134809D+01 -0.345898D+00  0.000000D+00  0.000000D+00 -0.234137D+01
     10   0.000000D+00  0.000000D+00 -0.142068D+01  0.152653D+01  0.000000D+00
     11   0.000000D+00  0.000000D+00 -0.202080D+01  0.273510D+00  0.000000D+00
     12   0.000000D+00  0.000000D+00  0.104794D+00 -0.319231D+00  0.000000D+00
     13   0.000000D+00  0.000000D+00  0.217267D-01 -0.118710D-01  0.000000D+00
     14   0.000000D+00  0.000000D+00 -0.137860D+01  0.163007D+01  0.000000D+00
     15  -0.145533D+01  0.242338D+00  0.000000D+00  0.000000D+00  0.249754D+01
     16   0.138449D+00 -0.337317D-01  0.000000D+00  0.000000D+00 -0.188953D+00
               891           892           893           894           895 
      1  -0.174485D+03 -0.174466D+03 -0.174423D+03 -0.174329D+03 -0.174281D+03
      2  -0.218267D+00  0.000000D+00  0.202356D+00  0.242301D+00  0.975546D-02
      3  -0.259104D+00  0.000000D+00 -0.183720D+00 -0.108122D+00  0.827667D-02
      4   0.000000D+00  0.276863D+00  0.000000D+00  0.000000D+00  0.000000D+00
      5   0.812150D+00  0.000000D+00 -0.786438D+00 -0.101787D+01 -0.383455D-01
      6   0.971877D+00  0.000000D+00  0.709883D+00  0.462983D+00 -0.321491D-01
      7   0.000000D+00 -0.104438D+01  0.000000D+00  0.000000D+00  0.000000D+00
      8   0.000000D+00  0.246028D+00  0.000000D+00  0.000000D+00  0.000000D+00
      9   0.000000D+00  0.248910D+01  0.000000D+00  0.000000D+00  0.000000D+00
     10   0.240853D+01  0.000000D+00  0.155582D+01  0.814600D+00 -0.102093D+00
     11   0.390627D+01  0.000000D+00 -0.301152D+01 -0.497134D+01 -0.277977D+00
     12  -0.684432D+00  0.000000D+00 -0.243379D+00 -0.117649D+00 -0.634777D+00
     13   0.403752D-01  0.000000D+00  0.774009D-02  0.696937D-01  0.719093D+00
     14   0.242355D+01  0.000000D+00  0.151722D+01  0.142078D+01 -0.345661D+00
     15   0.000000D+00 -0.276345D+01  0.000000D+00  0.000000D+00  0.000000D+00
     16   0.000000D+00  0.362974D+00  0.000000D+00  0.000000D+00  0.000000D+00
               896           897           898           899           900 
      1  -0.174280D+03 -0.174237D+03 -0.174203D+03 -0.174188D+03 -0.173818D+03
      2   0.000000D+00  0.674635D-01  0.000000D+00  0.332354D-01  0.359764D-01
      3   0.000000D+00 -0.370621D-01  0.000000D+00  0.648290D-01 -0.135059D-01
      4  -0.196796D-04  0.000000D+00 -0.795203D-01  0.000000D+00  0.000000D+00
      5   0.000000D+00 -0.347415D+00  0.000000D+00 -0.128119D+00 -0.229461D+00
      6   0.000000D+00  0.191187D+00  0.000000D+00 -0.252796D+00  0.980967D-01
      7  -0.212129D-02  0.000000D+00  0.306861D+00  0.000000D+00  0.000000D+00
      8   0.184554D-01  0.000000D+00 -0.451780D-01  0.000000D+00  0.000000D+00
      9   0.325217D-01  0.000000D+00 -0.680912D+00  0.000000D+00  0.000000D+00
     10   0.000000D+00  0.460211D+00  0.000000D+00 -0.584940D+00  0.195453D+00
     11   0.000000D+00 -0.248674D+01  0.000000D+00 -0.132376D+00 -0.706450D+00
     12   0.000000D+00 -0.280884D+00  0.000000D+00 -0.272606D+00 -0.738208D-01
     13   0.000000D+00  0.122149D+00  0.000000D+00 -0.799736D-01 -0.177103D+00
     14   0.000000D+00  0.103791D+01  0.000000D+00 -0.199103D+00 -0.915816D-03
     15   0.320992D+00  0.000000D+00  0.197467D+00  0.000000D+00  0.000000D+00
     16   0.658362D+00  0.000000D+00  0.232022D+00  0.000000D+00  0.000000D+00
 Unable to Open any file for archive entry.
 1\1\GINC-HEL12\SP\RPBEPBE TD-FC\Gen\C2H5F1\SABYASACHI\21-Mar-2022\0\\#
 P TD(Nstates=10000) pbepbe/Gen SCF(maxcycles=100) Int(Grid=ultrafine)\
 \xGDB7_00001_tier4.com\\0,1\C,0,-1.122844,-0.45232,0.\C,0,0.,0.553997,
 0.\F,0,1.225284,-0.098236,0.\H,0,-2.083314,0.066805,0.\H,0,-1.072796,-
 1.085651,0.886148\H,0,-1.072796,-1.085651,-0.886148\H,0,-0.030794,1.18
 9278,0.888716\H,0,-0.030794,1.189278,-0.888716\\Version=EM64L-G16RevC.
 01\State=1-A'\HF=-178.7283908\RMSD=3.070e-09\PG=CS [SG(C2H1F1),X(H4)]\
 \@
 The archive entry for this job was punched.


 THE VALUE OF PHILOSOPHY IS, IN FACT, TO BE SOUGHT LARGELY IN ITS
 VERY UNCERTAINTY.  THE MAN WHO HAS NO TINCTURE OF PHILOSOPHY GOES
 THROUGH LIFE IMPRISONED IN THE PREJUDICES DERIVED FROM COMMON SENSE,
 FROM THE HABITUAL BELIEFS OF HIS AGE OR HIS NATION, AND FROM
 CONVICTIONS WHICH HAVE GROWN UP IN HIS MIND WITHOUT THE CO-OPERATION
 OR CONSENT OF HIS DELIBERATE REASON.  TO SUCH A MAN THE WORLD TENDS
 TO BE DEFINITE, FINITE, OBVIOUS; COMMON OBJECTS ROUSE NO QUESTIONS,
 AND UNFAMILIAR POSSIBILITIES ARE CONTEMPTUOUSLY REJECTED.

                             -- BERTRAND RUSSELL
 Job cpu time:       0 days  0 hours  8 minutes 54.6 seconds.
 Elapsed time:       0 days  0 hours  1 minutes  7.1 seconds.
 File lengths (MBytes):  RWF=    403 Int=      0 D2E=      0 Chk=    234 Scr=      1
 Normal termination of Gaussian 16 at Mon Mar 21 20:10:24 2022.
