 Entering Gaussian System, Link 0=g16
 Input=xGDB7_000013_TDDFT.com
 Output=xGDB7_000013_TDDFT.log
 Initial command:
 /home/prakriti/g16/l1.exe "/scratch/prakriti/PBS_7421640.helios/Gau-162029.inp" -scrdir="/scratch/prakriti/PBS_7421640.helios/"
 Entering Link 1 = /home/prakriti/g16/l1.exe PID=    162030.
  
 Copyright (c) 1988-2019, Gaussian, Inc.  All Rights Reserved.
  
 This is part of the Gaussian(R) 16 program.  It is based on
 the Gaussian(R) 09 system (copyright 2009, Gaussian, Inc.),
 the Gaussian(R) 03 system (copyright 2003, Gaussian, Inc.),
 the Gaussian(R) 98 system (copyright 1998, Gaussian, Inc.),
 the Gaussian(R) 94 system (copyright 1995, Gaussian, Inc.),
 the Gaussian 92(TM) system (copyright 1992, Gaussian, Inc.),
 the Gaussian 90(TM) system (copyright 1990, Gaussian, Inc.),
 the Gaussian 88(TM) system (copyright 1988, Gaussian, Inc.),
 the Gaussian 86(TM) system (copyright 1986, Carnegie Mellon
 University), and the Gaussian 82(TM) system (copyright 1983,
 Carnegie Mellon University). Gaussian is a federally registered
 trademark of Gaussian, Inc.
  
 This software contains proprietary and confidential information,
 including trade secrets, belonging to Gaussian, Inc.
  
 This software is provided under written license and may be
 used, copied, transmitted, or stored only in accord with that
 written license.
  
 The following legend is applicable only to US Government
 contracts under FAR:
  
                    RESTRICTED RIGHTS LEGEND
  
 Use, reproduction and disclosure by the US Government is
 subject to restrictions as set forth in subparagraphs (a)
 and (c) of the Commercial Computer Software - Restricted
 Rights clause in FAR 52.227-19.
  
 Gaussian, Inc.
 340 Quinnipiac St., Bldg. 40, Wallingford CT 06492
  
  
 ---------------------------------------------------------------
 Warning -- This program may not be used in any manner that
 competes with the business of Gaussian, Inc. or will provide
 assistance to any competitor of Gaussian, Inc.  The licensee
 of this program is prohibited from giving any competitor of
 Gaussian, Inc. access to this program.  By using this program,
 the user acknowledges that Gaussian, Inc. is engaged in the
 business of creating and licensing software in the field of
 computational chemistry and represents and warrants to the
 licensee that it is not a competitor of Gaussian, Inc. and that
 it will not use this program in any manner prohibited above.
 ---------------------------------------------------------------
  

 Cite this work as:
 Gaussian 16, Revision C.01,
 M. J. Frisch, G. W. Trucks, H. B. Schlegel, G. E. Scuseria, 
 M. A. Robb, J. R. Cheeseman, G. Scalmani, V. Barone, 
 G. A. Petersson, H. Nakatsuji, X. Li, M. Caricato, A. V. Marenich, 
 J. Bloino, B. G. Janesko, R. Gomperts, B. Mennucci, H. P. Hratchian, 
 J. V. Ortiz, A. F. Izmaylov, J. L. Sonnenberg, D. Williams-Young, 
 F. Ding, F. Lipparini, F. Egidi, J. Goings, B. Peng, A. Petrone, 
 T. Henderson, D. Ranasinghe, V. G. Zakrzewski, J. Gao, N. Rega, 
 G. Zheng, W. Liang, M. Hada, M. Ehara, K. Toyota, R. Fukuda, 
 J. Hasegawa, M. Ishida, T. Nakajima, Y. Honda, O. Kitao, H. Nakai, 
 T. Vreven, K. Throssell, J. A. Montgomery, Jr., J. E. Peralta, 
 F. Ogliaro, M. J. Bearpark, J. J. Heyd, E. N. Brothers, K. N. Kudin, 
 V. N. Staroverov, T. A. Keith, R. Kobayashi, J. Normand, 
 K. Raghavachari, A. P. Rendell, J. C. Burant, S. S. Iyengar, 
 J. Tomasi, M. Cossi, J. M. Millam, M. Klene, C. Adamo, R. Cammi, 
 J. W. Ochterski, R. L. Martin, K. Morokuma, O. Farkas, 
 J. B. Foresman, and D. J. Fox, Gaussian, Inc., Wallingford CT, 2019.
 
 ******************************************
 Gaussian 16:  EM64L-G16RevC.01  3-Jul-2019
                14-Aug-2021 
 ******************************************
 %mem=8gb
 %nproc=8
 Will use up to    8 processors via shared memory.
 ----------------------------------------------------------------------
 #P TD(Nstates=10000) wB97XD/def2TZVP SCF(maxcycles=100) Int(Grid=ultra
 fine)
 ----------------------------------------------------------------------
 1/38=1,172=1/1;
 2/12=2,17=6,18=5,40=1/2;
 3/5=44,7=101,11=9,25=1,30=1,74=-58,75=-5/1,2,3,8;
 4//1;
 5/5=2,7=100,38=5/2;
 8/6=1,10=1,108=10000/1;
 9/41=10000,42=1,70=2/14;
 6/7=2,8=2,9=2,10=2/1;
 99/5=1,9=1/99;
 Leave Link    1 at Sat Aug 14 06:18:43 2021, MaxMem=  1073741824 cpu:               0.4 elap:               0.1
 (Enter /home/prakriti/g16/l101.exe)
 ---------------------
 xGDB7_00001_tier4.com
 ---------------------
 Symbolic Z-matrix:
 Charge =  0 Multiplicity = 1
 6                     0.        0.        0.59732 
 6                     0.        0.       -0.59732 
 1                     0.        0.        1.66134 
 1                     0.        0.       -1.66134 
 
 ITRead=  0  0  0  0
 MicOpt= -1 -1 -1 -1
 NAtoms=      4 NQM=        4 NQMF=       0 NMMI=      0 NMMIF=      0
                NMic=       0 NMicF=      0.
                    Isotopes and Nuclear Properties:
 (Nuclear quadrupole moments (NQMom) in fm**2, nuclear magnetic moments (NMagM)
  in nuclear magnetons)

  Atom         1           2           3           4
 IAtWgt=          12          12           1           1
 AtmWgt=  12.0000000  12.0000000   1.0078250   1.0078250
 NucSpn=           0           0           1           1
 AtZEff=  -0.0000000  -0.0000000  -0.0000000  -0.0000000
 NQMom=    0.0000000   0.0000000   0.0000000   0.0000000
 NMagM=    0.0000000   0.0000000   2.7928460   2.7928460
 AtZNuc=   6.0000000   6.0000000   1.0000000   1.0000000
 Leave Link  101 at Sat Aug 14 06:18:43 2021, MaxMem=  1073741824 cpu:               0.7 elap:               0.1
 (Enter /home/prakriti/g16/l202.exe)
                          Input orientation:                          
 ---------------------------------------------------------------------
 Center     Atomic      Atomic             Coordinates (Angstroms)
 Number     Number       Type             X           Y           Z
 ---------------------------------------------------------------------
      1          6           0        0.000000    0.000000    0.597322
      2          6           0        0.000000    0.000000   -0.597322
      3          1           0        0.000000    0.000000    1.661338
      4          1           0        0.000000    0.000000   -1.661338
 ---------------------------------------------------------------------
                    Distance matrix (angstroms):
                    1          2          3          4
     1  C    0.000000
     2  C    1.194644   0.000000
     3  H    1.064016   2.258660   0.000000
     4  H    2.258660   1.064016   3.322676   0.000000
 Stoichiometry    C2H2
 Framework group  D*H[C*(HC.CH)]
 Deg. of freedom     2
 Full point group                 D*H     NOp   8
 Largest Abelian subgroup         D2H     NOp   8
 Largest concise Abelian subgroup C2      NOp   2
                         Standard orientation:                         
 ---------------------------------------------------------------------
 Center     Atomic      Atomic             Coordinates (Angstroms)
 Number     Number       Type             X           Y           Z
 ---------------------------------------------------------------------
      1          6           0        0.000000    0.000000    0.597322
      2          6           0        0.000000    0.000000   -0.597322
      3          1           0        0.000000    0.000000    1.661338
      4          1           0        0.000000    0.000000   -1.661338
 ---------------------------------------------------------------------
 Rotational constants (GHZ):           0.0000000          35.7756801          35.7756801
 Leave Link  202 at Sat Aug 14 06:18:43 2021, MaxMem=  1073741824 cpu:               0.1 elap:               0.0
 (Enter /home/prakriti/g16/l301.exe)
 Standard basis: def2TZVP (5D, 7F)
 Ernie: Thresh=  0.10000D-02 Tol=  0.10000D-05 Strict=F.
 There are    21 symmetry adapted cartesian basis functions of AG  symmetry.
 There are     3 symmetry adapted cartesian basis functions of B1G symmetry.
 There are     9 symmetry adapted cartesian basis functions of B2G symmetry.
 There are     9 symmetry adapted cartesian basis functions of B3G symmetry.
 There are     3 symmetry adapted cartesian basis functions of AU  symmetry.
 There are    21 symmetry adapted cartesian basis functions of B1U symmetry.
 There are     9 symmetry adapted cartesian basis functions of B2U symmetry.
 There are     9 symmetry adapted cartesian basis functions of B3U symmetry.
 There are    18 symmetry adapted basis functions of AG  symmetry.
 There are     3 symmetry adapted basis functions of B1G symmetry.
 There are     8 symmetry adapted basis functions of B2G symmetry.
 There are     8 symmetry adapted basis functions of B3G symmetry.
 There are     3 symmetry adapted basis functions of AU  symmetry.
 There are    18 symmetry adapted basis functions of B1U symmetry.
 There are     8 symmetry adapted basis functions of B2U symmetry.
 There are     8 symmetry adapted basis functions of B3U symmetry.
    74 basis functions,   118 primitive gaussians,    84 cartesian basis functions
     7 alpha electrons        7 beta electrons
       nuclear repulsion energy        24.8852849468 Hartrees.
 IExCor= 4639 DFT=T Ex+Corr=wB97XD ExCW=0 ScaHFX=  1.000000
 ScaDFX=  1.000000  1.000000  1.000000  1.000000 ScalE2=  1.000000  1.000000
 IRadAn=      5 IRanWt=     -1 IRanGd=            0 ICorTp=0 IEmpDi=121
 HFx  wShort=  0.000000 wLong=  0.200000 cFull=  0.222036 cShort=  0.000000 cLong=  0.777964
 DFx  wShort=  0.000000 wLong=  0.200000 cFull=  0.000000 cShort=  0.000000 cLong=  1.000000
 NAtoms=    4 NActive=    4 NUniq=    2 SFac= 4.00D+00 NAtFMM=   60 NAOKFM=F Big=F
 Integral buffers will be    131072 words long.
 Raffenetti 1 integral format.
 Two-electron integral symmetry is turned on.
 R6Disp:  Grimme-D2 Dispersion energy=       -0.0002074479 Hartrees.
 Nuclear repulsion after empirical dispersion term =       24.8850774989 Hartrees.
 Leave Link  301 at Sat Aug 14 06:18:43 2021, MaxMem=  1073741824 cpu:               0.5 elap:               0.1
 (Enter /home/prakriti/g16/l302.exe)
 NPDir=0 NMtPBC=     1 NCelOv=     1 NCel=       1 NClECP=     1 NCelD=      1
         NCelK=      1 NCelE2=     1 NClLst=     1 CellRange=     0.0.
 One-electron integrals computed using PRISM.
 One-electron integral symmetry used in STVInt
   8 Symmetry operations used in ECPInt.
 ECPInt:  NShTT=     465 NPrTT=    1428 LenC2=     466 LenP2D=    1332.
 LDataN:  DoStor=T MaxTD1= 6 Len=  172
 NBasis=    74 RedAO= T EigKep=  2.95D-05  NBF=    18     3     8     8     3    18     8     8
 NBsUse=    74 1.00D-06 EigRej= -1.00D+00 NBFU=    18     3     8     8     3    18     8     8
 Precomputing XC quadrature grid using
 IXCGrd= 4 IRadAn=           5 IRanWt=          -1 IRanGd=           0 AccXCQ= 0.00D+00.
 Generated NRdTot=       0 NPtTot=           0 NUsed=           0 NTot=          32
 NSgBfM=    84    84    84    84    84 MxSgAt=     4 MxSgA2=     4.
 Leave Link  302 at Sat Aug 14 06:18:43 2021, MaxMem=  1073741824 cpu:               1.2 elap:               0.2
 (Enter /home/prakriti/g16/l303.exe)
 DipDrv:  MaxL=1.
 Leave Link  303 at Sat Aug 14 06:18:43 2021, MaxMem=  1073741824 cpu:               0.2 elap:               0.1
 (Enter /home/prakriti/g16/l308.exe)
 Leave Link  308 at Sat Aug 14 06:18:43 2021, MaxMem=  1073741824 cpu:               0.2 elap:               0.1
 (Enter /home/prakriti/g16/l401.exe)
 ExpMin= 9.52D-02 ExpMax= 1.36D+04 ExpMxC= 4.63D+02 IAcc=3 IRadAn=         5 AccDes= 0.00D+00
 Harris functional with IExCor= 4639 and IRadAn=       5 diagonalized for initial guess.
 HarFok:  IExCor= 4639 AccDes= 0.00D+00 IRadAn=         5 IDoV= 1 UseB2=F ITyADJ=14
 ICtDFT=  3500011 ScaDFX=  1.000000  1.000000  1.000000  1.000000
 FoFCou: FMM=F IPFlag=           0 FMFlag=      100000 FMFlg1=           0
         NFxFlg=           0 DoJE=T BraDBF=F KetDBF=T FulRan=T
         wScrn=  0.000000 ICntrl=       500 IOpCl=  0 I1Cent=   200000004 NGrid=           0
         NMat0=    1 NMatS0=      1 NMatT0=    0 NMatD0=    1 NMtDS0=    0 NMtDT0=    0
 Petite list used in FoFCou.
 Harris En= -73.7728837805612    
 JPrj=0 DoOrth=F DoCkMO=F.
 Initial guess orbital symmetries:
       Occupied  (SGG) (SGU) (SGG) (SGU) (SGG) (PIU) (PIU)
       Virtual   (PIG) (PIG) (SGU) (SGG) (SGG) (PIU) (PIU) (SGU)
                 (PIG) (PIG) (SGU) (SGG) (SGG) (DLTG) (DLTG) (SGU)
                 (PIU) (PIU) (SGU) (DLTU) (DLTU) (SGG) (PIG) (PIG)
                 (SGU) (PIU) (PIU) (SGG) (PIG) (PIG) (SGU) (SGG)
                 (PIU) (PIU) (SGU) (DLTG) (DLTG) (PHIU) (PHIU)
                 (PIG) (PIG) (SGG) (PIU) (PIU) (SGG) (SGU) (PHIG)
                 (PHIG) (SGU) (DLTG) (DLTG) (PIG) (PIG) (DLTU)
                 (DLTU) (DLTU) (DLTU) (SGG) (PIU) (PIU) (SGU) (PIG)
                 (PIG) (SGU) (SGG) (SGG) (SGU)
 The electronic state of the initial guess is 1-SGG.
 Leave Link  401 at Sat Aug 14 06:18:43 2021, MaxMem=  1073741824 cpu:               1.6 elap:               0.2
 (Enter /home/prakriti/g16/l502.exe)
 Keep R1 ints in memory in symmetry-blocked form, NReq=15205012.
 FoFCou: FMM=F IPFlag=           0 FMFlag=           0 FMFlg1=           0
         NFxFlg=           0 DoJE=F BraDBF=F KetDBF=F FulRan=T
         wScrn=  0.000000 ICntrl=       600 IOpCl=  0 I1Cent=           0 NGrid=           0
         NMat0=    1 NMatS0=   2775 NMatT0=    0 NMatD0=    1 NMtDS0=    0 NMtDT0=    0
 Petite list used in FoFCou.
 Closed shell SCF:
 Using DIIS extrapolation, IDIIS=  1040.
 NGot=  1073741824 LenX=  1073201964 LenY=  1073194467
 Requested convergence on RMS density matrix=1.00D-08 within 100 cycles.
 Requested convergence on MAX density matrix=1.00D-06.
 Requested convergence on             energy=1.00D-06.
 No special actions if energy rises.
 Integral accuracy reduced to 1.0D-05 until final iterations.

 Cycle   1  Pass 0  IDiag  1:
 E= -77.2980980135695    
 DIIS: error= 6.69D-02 at cycle   1 NSaved=   1.
 NSaved= 1 IEnMin= 1 EnMin= -77.2980980135695     IErMin= 1 ErrMin= 6.69D-02
 ErrMax= 6.69D-02  0.00D+00 EMaxC= 1.00D-01 BMatC= 1.72D-01 BMatP= 1.72D-01
 IDIUse=3 WtCom= 3.31D-01 WtEn= 6.69D-01
 Coeff-Com:  0.100D+01
 Coeff-En:   0.100D+01
 Coeff:      0.100D+01
 Gap=     0.465 Goal=   None    Shift=    0.000
 GapD=    0.465 DampG=2.000 DampE=0.500 DampFc=1.0000 IDamp=-1.
 RMSDP=4.98D-03 MaxDP=6.51D-02              OVMax= 6.88D-02

 Cycle   2  Pass 0  IDiag  1:
 E= -77.3235116158461     Delta-E=       -0.025413602277 Rises=F Damp=F
 DIIS: error= 1.15D-02 at cycle   2 NSaved=   2.
 NSaved= 2 IEnMin= 2 EnMin= -77.3235116158461     IErMin= 2 ErrMin= 1.15D-02
 ErrMax= 1.15D-02  0.00D+00 EMaxC= 1.00D-01 BMatC= 5.04D-03 BMatP= 1.72D-01
 IDIUse=3 WtCom= 8.85D-01 WtEn= 1.15D-01
 Coeff-Com:  0.887D-01 0.911D+00
 Coeff-En:   0.000D+00 0.100D+01
 Coeff:      0.785D-01 0.921D+00
 Gap=     0.491 Goal=   None    Shift=    0.000
 RMSDP=7.83D-04 MaxDP=1.15D-02 DE=-2.54D-02 OVMax= 2.94D-02

 Cycle   3  Pass 0  IDiag  1:
 E= -77.3270550574482     Delta-E=       -0.003543441602 Rises=F Damp=F
 DIIS: error= 5.54D-03 at cycle   3 NSaved=   3.
 NSaved= 3 IEnMin= 3 EnMin= -77.3270550574482     IErMin= 3 ErrMin= 5.54D-03
 ErrMax= 5.54D-03  0.00D+00 EMaxC= 1.00D-01 BMatC= 1.16D-03 BMatP= 5.04D-03
 IDIUse=3 WtCom= 9.45D-01 WtEn= 5.54D-02
 Coeff-Com:  0.222D-01 0.339D+00 0.639D+00
 Coeff-En:   0.000D+00 0.328D-01 0.967D+00
 Coeff:      0.210D-01 0.322D+00 0.657D+00
 Gap=     0.482 Goal=   None    Shift=    0.000
 RMSDP=2.57D-04 MaxDP=4.38D-03 DE=-3.54D-03 OVMax= 1.03D-02

 Cycle   4  Pass 0  IDiag  1:
 E= -77.3281296643391     Delta-E=       -0.001074606891 Rises=F Damp=F
 DIIS: error= 2.15D-04 at cycle   4 NSaved=   4.
 NSaved= 4 IEnMin= 4 EnMin= -77.3281296643391     IErMin= 4 ErrMin= 2.15D-04
 ErrMax= 2.15D-04  0.00D+00 EMaxC= 1.00D-01 BMatC= 2.46D-06 BMatP= 1.16D-03
 IDIUse=3 WtCom= 9.98D-01 WtEn= 2.15D-03
 Coeff-Com: -0.145D-02-0.154D-01 0.141D-01 0.100D+01
 Coeff-En:   0.000D+00 0.000D+00 0.000D+00 0.100D+01
 Coeff:     -0.145D-02-0.154D-01 0.141D-01 0.100D+01
 Gap=     0.482 Goal=   None    Shift=    0.000
 RMSDP=3.33D-05 MaxDP=3.50D-04 DE=-1.07D-03 OVMax= 5.51D-04

 Cycle   5  Pass 0  IDiag  1:
 E= -77.3281324274712     Delta-E=       -0.000002763132 Rises=F Damp=F
 DIIS: error= 2.29D-05 at cycle   5 NSaved=   5.
 NSaved= 5 IEnMin= 5 EnMin= -77.3281324274712     IErMin= 5 ErrMin= 2.29D-05
 ErrMax= 2.29D-05  0.00D+00 EMaxC= 1.00D-01 BMatC= 2.17D-08 BMatP= 2.46D-06
 IDIUse=1 WtCom= 1.00D+00 WtEn= 0.00D+00
 Coeff-Com: -0.386D-03-0.680D-02-0.151D-01-0.283D-01 0.105D+01
 Coeff:     -0.386D-03-0.680D-02-0.151D-01-0.283D-01 0.105D+01
 Gap=     0.482 Goal=   None    Shift=    0.000
 RMSDP=7.61D-06 MaxDP=8.97D-05 DE=-2.76D-06 OVMax= 1.03D-04

 Initial convergence to 1.0D-05 achieved.  Increase integral accuracy.
 Cycle   6  Pass 1  IDiag  1:
 E= -77.3281631499350     Delta-E=       -0.000030722464 Rises=F Damp=F
 DIIS: error= 4.13D-05 at cycle   1 NSaved=   1.
 NSaved= 1 IEnMin= 1 EnMin= -77.3281631499350     IErMin= 1 ErrMin= 4.13D-05
 ErrMax= 4.13D-05  0.00D+00 EMaxC= 1.00D-01 BMatC= 6.83D-08 BMatP= 6.83D-08
 IDIUse=1 WtCom= 1.00D+00 WtEn= 0.00D+00
 Coeff-Com:  0.100D+01
 Coeff:      0.100D+01
 Gap=     0.482 Goal=   None    Shift=    0.000
 RMSDP=7.61D-06 MaxDP=8.97D-05 DE=-3.07D-05 OVMax= 5.82D-05

 Cycle   7  Pass 1  IDiag  1:
 E= -77.3281631846374     Delta-E=       -0.000000034702 Rises=F Damp=F
 DIIS: error= 7.60D-06 at cycle   2 NSaved=   2.
 NSaved= 2 IEnMin= 2 EnMin= -77.3281631846374     IErMin= 2 ErrMin= 7.60D-06
 ErrMax= 7.60D-06  0.00D+00 EMaxC= 1.00D-01 BMatC= 1.36D-09 BMatP= 6.83D-08
 IDIUse=1 WtCom= 1.00D+00 WtEn= 0.00D+00
 Coeff-Com: -0.131D-01 0.101D+01
 Coeff:     -0.131D-01 0.101D+01
 Gap=     0.482 Goal=   None    Shift=    0.000
 RMSDP=3.27D-06 MaxDP=3.76D-05 DE=-3.47D-08 OVMax= 1.91D-05

 Cycle   8  Pass 1  IDiag  1:
 E= -77.3281631856158     Delta-E=       -0.000000000978 Rises=F Damp=F
 DIIS: error= 3.68D-06 at cycle   3 NSaved=   3.
 NSaved= 3 IEnMin= 3 EnMin= -77.3281631856158     IErMin= 3 ErrMin= 3.68D-06
 ErrMax= 3.68D-06  0.00D+00 EMaxC= 1.00D-01 BMatC= 4.30D-10 BMatP= 1.36D-09
 IDIUse=1 WtCom= 1.00D+00 WtEn= 0.00D+00
 Coeff-Com: -0.253D-01 0.360D+00 0.665D+00
 Coeff:     -0.253D-01 0.360D+00 0.665D+00
 Gap=     0.482 Goal=   None    Shift=    0.000
 RMSDP=2.89D-07 MaxDP=2.90D-06 DE=-9.78D-10 OVMax= 6.69D-06

 Cycle   9  Pass 1  IDiag  1:
 E= -77.3281631860178     Delta-E=       -0.000000000402 Rises=F Damp=F
 DIIS: error= 2.12D-07 at cycle   4 NSaved=   4.
 NSaved= 4 IEnMin= 4 EnMin= -77.3281631860178     IErMin= 4 ErrMin= 2.12D-07
 ErrMax= 2.12D-07  0.00D+00 EMaxC= 1.00D-01 BMatC= 1.42D-12 BMatP= 4.30D-10
 IDIUse=1 WtCom= 1.00D+00 WtEn= 0.00D+00
 Coeff-Com:  0.156D-02-0.436D-01-0.475D-01 0.109D+01
 Coeff:      0.156D-02-0.436D-01-0.475D-01 0.109D+01
 Gap=     0.482 Goal=   None    Shift=    0.000
 RMSDP=9.89D-08 MaxDP=1.22D-06 DE=-4.02D-10 OVMax= 7.46D-07

 Cycle  10  Pass 1  IDiag  1:
 E= -77.3281631860207     Delta-E=       -0.000000000003 Rises=F Damp=F
 DIIS: error= 3.36D-08 at cycle   5 NSaved=   5.
 NSaved= 5 IEnMin= 5 EnMin= -77.3281631860207     IErMin= 5 ErrMin= 3.36D-08
 ErrMax= 3.36D-08  0.00D+00 EMaxC= 1.00D-01 BMatC= 4.91D-14 BMatP= 1.42D-12
 IDIUse=1 WtCom= 1.00D+00 WtEn= 0.00D+00
 Coeff-Com:  0.487D-03-0.659D-02-0.138D-01-0.162D-01 0.104D+01
 Coeff:      0.487D-03-0.659D-02-0.138D-01-0.162D-01 0.104D+01
 Gap=     0.482 Goal=   None    Shift=    0.000
 RMSDP=1.40D-08 MaxDP=1.34D-07 DE=-2.96D-12 OVMax= 1.67D-07

 Cycle  11  Pass 1  IDiag  1:
 E= -77.3281631860209     Delta-E=       -0.000000000000 Rises=F Damp=F
 DIIS: error= 7.75D-09 at cycle   6 NSaved=   6.
 NSaved= 6 IEnMin= 6 EnMin= -77.3281631860209     IErMin= 6 ErrMin= 7.75D-09
 ErrMax= 7.75D-09  0.00D+00 EMaxC= 1.00D-01 BMatC= 1.81D-15 BMatP= 4.91D-14
 IDIUse=1 WtCom= 1.00D+00 WtEn= 0.00D+00
 Coeff-Com: -0.158D-04 0.104D-02 0.904D-03-0.344D-01-0.759D-01 0.111D+01
 Coeff:     -0.158D-04 0.104D-02 0.904D-03-0.344D-01-0.759D-01 0.111D+01
 Gap=     0.482 Goal=   None    Shift=    0.000
 RMSDP=3.97D-09 MaxDP=4.10D-08 DE=-1.42D-13 OVMax= 3.87D-08

 SCF Done:  E(RwB97XD) =  -77.3281631860     A.U. after   11 cycles
            NFock= 11  Conv=0.40D-08     -V/T= 2.0050
 KE= 7.694441823128D+01 PE=-2.291422900843D+02 EE= 4.998463116809D+01
 Leave Link  502 at Sat Aug 14 06:18:44 2021, MaxMem=  1073741824 cpu:               5.9 elap:               0.8
 (Enter /home/prakriti/g16/l801.exe)
 DoSCS=F DFT=T ScalE2(SS,OS)=  1.000000  1.000000
 ExpMin= 9.52D-02 ExpMax= 1.36D+04 ExpMxC= 4.63D+02 IAcc=3 IRadAn=         5 AccDes= 0.00D+00
 HarFok:  IExCor=  205 AccDes= 0.00D+00 IRadAn=         5 IDoV=-2 UseB2=F ITyADJ=14
 ICtDFT= 12500011 ScaDFX=  1.000000  1.000000  1.000000  1.000000
 Largest valence mixing into a core orbital is  6.53D-05
 Largest core mixing into a valence orbital is  1.21D-05
 Range of M.O.s used for correlation:     3    74
 NBasis=    74 NAE=     7 NBE=     7 NFC=     2 NFV=     0
 NROrb=     72 NOA=     5 NOB=     5 NVA=    67 NVB=    67

 **** Warning!!: The largest alpha MO coefficient is  0.67665295D+02

 Leave Link  801 at Sat Aug 14 06:18:44 2021, MaxMem=  1073741824 cpu:               0.5 elap:               0.1
 (Enter /home/prakriti/g16/l914.exe)
 RHF ground state
 Keep R1, R2, and R3 ints in memory in symmetry-blocked form, NReq=216450624.
 FoFCou: FMM=F IPFlag=           0 FMFlag=           0 FMFlg1=           0
         NFxFlg=           0 DoJE=F BraDBF=F KetDBF=F FulRan=T
         wScrn=  0.000000 ICntrl=       600 IOpCl=  0 I1Cent=           0 NGrid=           0
         NMat0=    1 NMatS0=   2775 NMatT0=    0 NMatD0=    1 NMtDS0=    0 NMtDT0=    0
 Petite list used in FoFCou.
 MDV=  1073741824 DFT=T DoStab=F Mixed=T DoRPA=T DoScal=F NonHer=T
 Making orbital integer symmetry assigments:
 Orbital symmetries:
       Occupied  (SGG) (SGU) (SGG) (SGU) (SGG) (PIU) (PIU)
       Virtual   (PIG) (PIG) (SGU) (SGG) (SGG) (PIU) (PIU) (SGU)
                 (PIG) (PIG) (SGU) (SGG) (SGG) (DLTG) (DLTG) (SGU)
                 (PIU) (PIU) (DLTU) (DLTU) (SGU) (SGG) (PIG) (PIG)
                 (SGU) (PIU) (PIU) (SGG) (PIG) (PIG) (SGU) (SGG)
                 (PIU) (PIU) (SGU) (DLTG) (DLTG) (PIG) (PIG) (PHIU)
                 (PHIU) (SGG) (PIU) (PIU) (SGU) (SGG) (PHIG) (PHIG)
                 (SGU) (DLTG) (DLTG) (PIG) (PIG) (DLTU) (DLTU)
                 (DLTU) (DLTU) (SGG) (PIU) (PIU) (SGU) (PIG) (PIG)
                 (SGU) (SGG) (SGG) (SGU)
   335 initial guesses have been made.
 Convergence on wavefunction:    0.001000000000000
 Davidson Disk Diagonalization:  ConvIn= 1.00D-03 SkipCon=T Conv= 1.00D-03.
 Max sub-space:  2010 roots to seek:   670 dimension of matrix:          670
 *** WARNING: Number of orthogonal guesses is          335
 Iteration     1 Dimension   335 NMult     0 NNew    335
 CISAX will form   335 AO SS matrices at one time.
 NMat=   335 NSing=   335 JSym2X=-1.
 New state      1 was old state      4
 New state      2 was old state      1
 New state      3 was old state      2
 New state      4 was old state      6
 New state      6 was old state      8
 New state      8 was old state      3
 New state     13 was old state     18
 New state     14 was old state     17
 New state     15 was old state     13
 New state     17 was old state     15
 New state     18 was old state     14
 New state     20 was old state     21
 New state     21 was old state     22
 New state     22 was old state     25
 New state     24 was old state     26
 New state     25 was old state     27
 New state     26 was old state     20
 New state     27 was old state     29
 New state     28 was old state     30
 New state     29 was old state     24
 New state     30 was old state     28
 New state     31 was old state     32
 New state     32 was old state     33
 New state     33 was old state     34
 New state     34 was old state     36
 New state     36 was old state     31
 New state     37 was old state     40
 New state     38 was old state     41
 New state     39 was old state     37
 New state     40 was old state     38
 New state     41 was old state     39
 New state     43 was old state     44
 New state     44 was old state     45
 New state     45 was old state     46
 New state     46 was old state     47
 New state     47 was old state     53
 New state     48 was old state     52
 New state     49 was old state     43
 New state     50 was old state     48
 New state     51 was old state     49
 New state     52 was old state     56
 New state     53 was old state     57
 New state     54 was old state     55
 New state     55 was old state     58
 New state     56 was old state     59
 New state     57 was old state     54
 New state     58 was old state     51
 New state     59 was old state     50
 New state     61 was old state     65
 New state     62 was old state     66
 New state     63 was old state     67
 New state     64 was old state     61
 New state     65 was old state     62
 New state     66 was old state     63
 New state     67 was old state     64
 New state     68 was old state     69
 New state     69 was old state     70
 New state     70 was old state     71
 New state     71 was old state     68
 New state     74 was old state     76
 New state     76 was old state     78
 New state     77 was old state     79
 New state     78 was old state     83
 New state     79 was old state     84
 New state     80 was old state     74
 New state     81 was old state     85
 New state     82 was old state     86
 New state     83 was old state     77
 New state     84 was old state     82
 New state     85 was old state     81
 New state     86 was old state     80
 New state     87 was old state     90
 New state     88 was old state     89
 New state     89 was old state     87
 New state     90 was old state     88
 New state     91 was old state     92
 New state     92 was old state     91
 New state     96 was old state     98
 New state     97 was old state     99
 New state     98 was old state     96
 New state     99 was old state     97
 New state    100 was old state    102
 New state    102 was old state    100
 New state    104 was old state    105
 New state    105 was old state    106
 New state    106 was old state    104
 New state    108 was old state    110
 New state    109 was old state    111
 New state    110 was old state    109
 New state    111 was old state    108
 New state    119 was old state    124
 New state    120 was old state    122
 New state    121 was old state    119
 New state    122 was old state    125
 New state    123 was old state    120
 New state    124 was old state    121
 New state    125 was old state    128
 New state    128 was old state    134
 New state    129 was old state    132
 New state    130 was old state    129
 New state    131 was old state    130
 New state    132 was old state    133
 New state    133 was old state    123
 New state    134 was old state    135
 New state    135 was old state    136
 New state    136 was old state    131
 New state    140 was old state    141
 New state    141 was old state    142
 New state    142 was old state    140
 New state    146 was old state    148
 New state    148 was old state    146
 New state    149 was old state    150
 New state    150 was old state    151
 New state    151 was old state    149
 New state    155 was old state    156
 New state    156 was old state    155
 New state    157 was old state    158
 New state    158 was old state    157
 New state    165 was old state    166
 New state    166 was old state    165
 New state    173 was old state    178
 New state    174 was old state    177
 New state    175 was old state    173
 New state    176 was old state    174
 New state    177 was old state    179
 New state    178 was old state    185
 New state    179 was old state    184
 New state    181 was old state    182
 New state    182 was old state    176
 New state    183 was old state    175
 New state    184 was old state    181
 New state    185 was old state    183
 New state    190 was old state    191
 New state    191 was old state    193
 New state    192 was old state    190
 New state    193 was old state    192
 New state    201 was old state    204
 New state    202 was old state    203
 New state    203 was old state    206
 New state    204 was old state    205
 New state    205 was old state    202
 New state    206 was old state    201
 New state    209 was old state    211
 New state    211 was old state    209
 New state    214 was old state    217
 New state    215 was old state    216
 New state    216 was old state    214
 New state    217 was old state    215
 New state    218 was old state    220
 New state    219 was old state    221
 New state    220 was old state    218
 New state    221 was old state    219
 New state    222 was old state    230
 New state    223 was old state    229
 New state    224 was old state    223
 New state    225 was old state    222
 New state    226 was old state    224
 New state    227 was old state    225
 New state    228 was old state    233
 New state    229 was old state    232
 New state    230 was old state    226
 New state    231 was old state    236
 New state    232 was old state    238
 New state    233 was old state    239
 New state    234 was old state    237
 New state    235 was old state    227
 New state    236 was old state    228
 New state    237 was old state    235
 New state    238 was old state    234
 New state    239 was old state    243
 New state    240 was old state    242
 New state    241 was old state    231
 New state    242 was old state    241
 New state    243 was old state    240
 New state    245 was old state    246
 New state    246 was old state    245
 New state    247 was old state    248
 New state    248 was old state    247
 New state    249 was old state    251
 New state    251 was old state    249
 New state    252 was old state    261
 New state    253 was old state    260
 New state    254 was old state    255
 New state    255 was old state    254
 New state    256 was old state    253
 New state    257 was old state    252
 New state    258 was old state    257
 New state    259 was old state    256
 New state    260 was old state    262
 New state    261 was old state    258
 New state    262 was old state    259
 New state    263 was old state    264
 New state    264 was old state    263
 New state    265 was old state    266
 New state    266 was old state    265
 New state    267 was old state    268
 New state    268 was old state    267
 New state    269 was old state    270
 New state    270 was old state    271
 New state    271 was old state    269
 New state    276 was old state    278
 New state    277 was old state    279
 New state    278 was old state    276
 New state    279 was old state    277
 New state    280 was old state    281
 New state    281 was old state    280
 New state    282 was old state    283
 New state    283 was old state    282
 New state    284 was old state    285
 New state    285 was old state    284
 New state    286 was old state    287
 New state    287 was old state    286
 New state    292 was old state    295
 New state    293 was old state    294
 New state    294 was old state    292
 New state    295 was old state    293
 New state    296 was old state    297
 New state    297 was old state    296
 New state    299 was old state    300
 New state    300 was old state    299
 New state    313 was old state    314
 New state    314 was old state    313
 New state    317 was old state    319
 New state    319 was old state    317
 New state    326 was old state    327
 New state    327 was old state    326
 New state    331 was old state    332
 New state    332 was old state    331
 Excitation Energies [eV] at current iteration:
 Root      1 :     6.814126436880531
 Root      2 :     7.067848823008346
 Root      3 :     7.067851360167796
 Root      4 :     9.429767229488917
 Root      5 :     9.429767229489048
 Root      6 :    10.182674406870970
 Root      7 :    10.182674406871030
 Root      8 :    10.464529979185900
 Root      9 :    10.631995650881720
 Root     10 :    10.631995650881760
 Root     11 :    12.627871523371350
 Root     12 :    12.627881059763160
 Root     13 :    12.784600629148820
 Root     14 :    12.784600629148930
 Root     15 :    12.877128833592880
 Root     16 :    13.219359362798680
 Root     17 :    13.219359362798740
 Root     18 :    13.667920930766060
 Root     19 :    14.832820769773240
 Root     20 :    15.680086414736200
 Root     21 :    15.680086414736300
 Root     22 :    15.754935961180020
 Root     23 :    15.754936534102670
 Root     24 :    15.921849497899110
 Root     25 :    16.502596527000230
 Root     26 :    16.850373787077430
 Root     27 :    17.048540934670500
 Root     28 :    17.048540934670930
 Root     29 :    17.181382634811260
 Root     30 :    17.637946221144560
 Root     31 :    18.036578658060400
 Root     32 :    18.036578658060600
 Root     33 :    18.314019116805340
 Root     34 :    18.577798090134230
 Root     35 :    18.577798090134260
 Root     36 :    18.971511497160550
 Root     37 :    20.099404068134040
 Root     38 :    20.099404068134080
 Root     39 :    20.129124041592890
 Root     40 :    20.663793265942200
 Root     41 :    20.663793265942200
 Root     42 :    21.467180250356220
 Root     43 :    21.849322773443230
 Root     44 :    21.849322773443400
 Root     45 :    21.965861178122160
 Root     46 :    21.965861178122220
 Root     47 :    22.183760586814880
 Root     48 :    22.183760586814900
 Root     49 :    22.484166502745160
 Root     50 :    22.812599049422910
 Root     51 :    23.214370587485620
 Root     52 :    23.524729216262090
 Root     53 :    23.524729216262150
 Root     54 :    23.639251152526490
 Root     55 :    23.981083354221610
 Root     56 :    23.981083354221810
 Root     57 :    24.570686654179000
 Root     58 :    24.786072210839570
 Root     59 :    24.786072210839570
 Root     60 :    25.169804165016610
 Root     61 :    25.986160720947300
 Root     62 :    25.986162372491340
 Root     63 :    26.032618074312350
 Root     64 :    26.044084546180330
 Root     65 :    26.344145005970690
 Root     66 :    26.344145005970730
 Root     67 :    26.448024419184140
 Root     68 :    27.455144452468450
 Root     69 :    28.089489861679050
 Root     70 :    28.089491598065590
 Root     71 :    28.755724809652260
 Root     72 :    28.886744802517020
 Root     73 :    28.886744802517210
 Root     74 :    29.881570122450980
 Root     75 :    30.018997806110270
 Root     76 :    30.293361690570560
 Root     77 :    30.293361857837120
 Root     78 :    30.458077474515480
 Root     79 :    30.458077474515530
 Root     80 :    30.832845471555000
 Root     81 :    31.037428478239630
 Root     82 :    31.037428478240020
 Root     83 :    31.200662717237120
 Root     84 :    31.574223572350870
 Root     85 :    31.574223572350980
 Root     86 :    32.190582688473170
 Root     87 :    32.239372444038250
 Root     88 :    32.239372444038320
 Root     89 :    33.348841278046540
 Root     90 :    33.348841278046560
 Root     91 :    34.839267319213740
 Root     92 :    34.839267319213750
 Root     93 :    34.999327439307710
 Root     94 :    35.255077321393810
 Root     95 :    35.255088521563490
 Root     96 :    35.449868894148210
 Root     97 :    35.449871276608920
 Root     98 :    35.457058349860630
 Root     99 :    35.739050185197530
 Root    100 :    36.571271143982510
 Root    101 :    36.571271563601270
 Root    102 :    37.113258843015520
 Root    103 :    38.281492081187230
 Root    104 :    38.811230377593340
 Root    105 :    38.811231292727150
 Root    106 :    38.933365062460160
 Root    107 :    39.249952053192690
 Root    108 :    39.265748846499500
 Root    109 :    39.265748846499600
 Root    110 :    39.478435123305000
 Root    111 :    39.478435123305210
 Root    112 :    40.777130673527870
 Root    113 :    41.454610418980270
 Root    114 :    41.454610418980270
 Root    115 :    43.470698111375430
 Root    116 :    43.470698111375800
 Root    117 :    43.566877519070530
 Root    118 :    43.566880064405510
 Root    119 :    44.283645305035570
 Root    120 :    44.283696041484190
 Root    121 :    44.467692927287440
 Root    122 :    44.801273870737790
 Root    123 :    44.898619583826490
 Root    124 :    45.595469370896130
 Root    125 :    46.038218009501930
 Root    126 :    46.149825056890530
 Root    127 :    46.149825056890560
 Root    128 :    48.268857025101230
 Root    129 :    48.268878517687790
 Root    130 :    48.286304027434710
 Root    131 :    48.286304027434830
 Root    132 :    48.710003115684150
 Root    133 :    48.748134792831870
 Root    134 :    49.658680381571980
 Root    135 :    49.658680381572130
 Root    136 :    49.842411198544650
 Root    137 :    50.441604518682420
 Root    138 :    50.441604518682620
 Root    139 :    52.376273158653970
 Root    140 :    52.451957856726830
 Root    141 :    52.451957856726860
 Root    142 :    52.682190192019530
 Root    143 :    54.314722265744590
 Root    144 :    54.580644596040840
 Root    145 :    54.580644596041000
 Root    146 :    56.326726962108360
 Root    147 :    56.326726962108460
 Root    148 :    56.742021300423870
 Root    149 :    57.551866180085430
 Root    150 :    57.551866180085490
 Root    151 :    57.655068694873680
 Root    152 :    58.628307835574670
 Root    153 :    58.628307835574730
 Root    154 :    59.097225127202920
 Root    155 :    60.377423917283070
 Root    156 :    60.377428058326340
 Root    157 :    60.528287588799510
 Root    158 :    60.695970967183240
 Root    159 :    60.988302962993610
 Root    160 :    60.988302962995770
 Root    161 :    61.236582795805300
 Root    162 :    61.236582795805400
 Root    163 :    63.957242200204940
 Root    164 :    64.955613517785210
 Root    165 :    65.823285467407400
 Root    166 :    65.823285467407570
 Root    167 :    66.499271746047730
 Root    168 :    67.427235421461110
 Root    169 :    67.731014034835970
 Root    170 :    67.731014034836520
 Root    171 :    69.163538111064360
 Root    172 :    71.798397609132620
 Root    173 :    72.561079957234300
 Root    174 :    72.561079957234340
 Root    175 :    73.236159753490820
 Root    176 :    73.236159753490980
 Root    177 :    73.536241905541770
 Root    178 :    73.618718698282630
 Root    179 :    73.618759530481850
 Root    180 :    73.836062411401160
 Root    181 :    73.836066158984220
 Root    182 :    74.105738721277900
 Root    183 :    74.105738721278040
 Root    184 :    74.138391039425440
 Root    185 :    74.384438063903900
 Root    186 :    75.057317291249890
 Root    187 :    75.057324453768470
 Root    188 :    75.486771456309400
 Root    189 :    75.486771456309500
 Root    190 :    77.133205916540040
 Root    191 :    77.133333848216220
 Root    192 :    77.489824375576120
 Root    193 :    78.648273949838010
 Root    194 :    78.961632820662030
 Root    195 :    78.961690524026510
 Root    196 :    79.343281219204840
 Root    197 :    79.343281219205050
 Root    198 :    80.207139390921230
 Root    199 :    80.207139390921300
 Root    200 :    80.748973163041680
 Root    201 :    80.925044132891940
 Root    202 :    80.925050769804430
 Root    203 :    81.289658807747760
 Root    204 :    81.289658807748050
 Root    205 :    81.397377421998310
 Root    206 :    81.397377422000030
 Root    207 :    81.996885062352230
 Root    208 :    81.996885062352310
 Root    209 :    82.142847143166520
 Root    210 :    82.253246059777980
 Root    211 :    82.253246059778080
 Root    212 :    84.011426538800720
 Root    213 :    84.011426538800780
 Root    214 :    84.936804884091130
 Root    215 :    84.936845509692300
 Root    216 :    85.640621333352430
 Root    217 :    85.640621333352460
 Root    218 :    85.894306630791950
 Root    219 :    85.894402673740860
 Root    220 :    85.996666833247180
 Root    221 :    85.996669494045190
 Root    222 :    86.110948855933630
 Root    223 :    86.110948855933630
 Root    224 :    86.691648133393630
 Root    225 :    86.691648133393700
 Root    226 :    86.879664384679770
 Root    227 :    86.879664384683080
 Root    228 :    86.965690226594430
 Root    229 :    86.965690226594560
 Root    230 :    87.086874058528010
 Root    231 :    87.586128955476940
 Root    232 :    87.586161753517440
 Root    233 :    87.818549003561530
 Root    234 :    87.881792611271730
 Root    235 :    87.985947710768440
 Root    236 :    87.985947710768510
 Root    237 :    88.180875126124950
 Root    238 :    88.218853363939120
 Root    239 :    88.434139504730910
 Root    240 :    88.434139504731040
 Root    241 :    89.630833131420800
 Root    242 :    89.765558710075080
 Root    243 :    89.765558710075330
 Root    244 :    90.106956212534240
 Root    245 :    90.811626641057400
 Root    246 :    90.811626641057470
 Root    247 :    91.702143542807120
 Root    248 :    91.702143542807180
 Root    249 :    92.294855568965740
 Root    250 :    92.294894015973330
 Root    251 :    92.296314875863760
 Root    252 :    93.712856485341620
 Root    253 :    93.712962367540910
 Root    254 :    93.834115605794220
 Root    255 :    93.834115605794280
 Root    256 :    93.974884532867690
 Root    257 :    93.974884532867730
 Root    258 :    94.052594838899200
 Root    259 :    94.520717722324020
 Root    260 :    95.455224332659000
 Root    261 :    95.665025697313510
 Root    262 :    95.665053279178620
 Root    263 :    95.852294124642750
 Root    264 :    95.852294124642880
 Root    265 :    96.949884238370840
 Root    266 :    96.949945410771950
 Root    267 :    98.228879170990540
 Root    268 :    98.228879170990850
 Root    269 :    99.526363641833900
 Root    270 :    99.526396862967770
 Root    271 :    99.612579442497590
 Root    272 :   100.619401881553700
 Root    273 :   100.619401881553800
 Root    274 :   101.644544750291300
 Root    275 :   101.644565786482800
 Root    276 :   103.122615340139000
 Root    277 :   103.122615340139100
 Root    278 :   103.831378736298500
 Root    279 :   103.831378736298600
 Root    280 :   106.481719336882600
 Root    281 :   106.481719336882700
 Root    282 :   109.442302068375400
 Root    283 :   109.442331724447600
 Root    284 :   110.527747890994500
 Root    285 :   110.527778869441200
 Root    286 :   110.821994328851600
 Root    287 :   111.081913594700700
 Root    288 :   111.619214270524100
 Root    289 :   111.619222304394800
 Root    290 :   112.283685013764800
 Root    291 :   113.993825434649900
 Root    292 :   116.151166845927900
 Root    293 :   116.151220781518900
 Root    294 :   116.779265239790000
 Root    295 :   116.779265239790100
 Root    296 :   118.904065879616000
 Root    297 :   118.904065879616000
 Root    298 :   119.463934128519700
 Root    299 :   123.498279390246900
 Root    300 :   123.498279390246900
 Root    301 :   130.978240607670600
 Root    302 :   130.978240607670900
 Root    303 :   131.662259002958900
 Root    304 :   131.662431418795100
 Root    305 :   131.851611750135300
 Root    306 :   132.490436992064200
 Root    307 :   135.985722863861800
 Root    308 :   135.985722863862300
 Root    309 :   137.490427841653600
 Root    310 :   138.147747781141900
 Root    311 :   138.147747781142200
 Root    312 :   139.019804302381800
 Root    313 :   140.284778366364500
 Root    314 :   140.284778366364700
 Root    315 :   142.185259184870300
 Root    316 :   143.895488353365300
 Root    317 :   144.474214267302000
 Root    318 :   144.474214267302100
 Root    319 :   144.497555394058200
 Root    320 :   149.218679809115900
 Root    321 :   153.469927718233200
 Root    322 :   153.469927718233700
 Root    323 :   159.541724822780600
 Root    324 :   161.417749048242400
 Root    325 :   166.580532740765700
 Root    326 :   601.408680454458400
 Root    327 :   601.408680454460600
 Root    328 :   607.254527565973100
 Root    329 :   610.178921347532500
 Root    330 :   614.992449295837000
 Root    331 :   623.989784158424600
 Root    332 :   623.989784158424900
 Root    333 :   629.959341722350600
 Root    334 :   632.904677911361700
 Root    335 :   637.509894361567300
 Convergence achieved for final wavefunctions.
 ***********************************************************************
 Excited states from <AA,BB:AA,BB> singles matrix:
 ***********************************************************************
 
 1PDM for each excited state written to RWF  633
 Ground to excited state transition densities written to RWF  633
 Ground to excited state transition electric dipole moments (Au):
       state          X           Y           Z        Dip. S.      Osc.
         1         0.0000     -0.0000     -0.0000      0.0000      0.0000
         2        -0.0000     -0.0000     -0.0000      0.0000      0.0000
         3        -0.0000     -0.0000     -0.0000      0.0000      0.0000
         4         0.0000      0.0000      0.0000      0.0000      0.0000
         5        -0.0000     -0.0000      0.0000      0.0000      0.0000
         6         0.0445      0.0506      0.0000      0.0045      0.0011
         7         0.0506     -0.0445     -0.0000      0.0045      0.0011
         8         0.0000      0.0000     -1.8410      3.3893      0.8689
         9        -0.9783      0.2513     -0.0000      1.0201      0.2657
        10        -0.2513     -0.9783     -0.0000      1.0201      0.2657
        11        -0.0000      0.0000     -0.0000      0.0000      0.0000
        12         0.0000      0.0000     -0.0000      0.0000      0.0000
        13        -0.0000     -0.0000      0.0000      0.0000      0.0000
        14        -0.0000      0.0000     -0.0000      0.0000      0.0000
        15        -0.0000     -0.0000     -0.0000      0.0000      0.0000
        16        -0.0000     -0.0000     -0.0000      0.0000      0.0000
        17        -0.0000     -0.0000     -0.0000      0.0000      0.0000
        18         0.0000      0.0000     -0.0000      0.0000      0.0000
        19         0.0000      0.0000     -1.3621      1.8554      0.6742
        20         0.0257     -0.7256     -0.0000      0.5272      0.2025
        21        -0.7256     -0.0257      0.0000      0.5272      0.2025
        22         0.0000      0.0000     -0.0000      0.0000      0.0000
        23        -0.0000     -0.0000      0.0000      0.0000      0.0000
        24        -0.0000     -0.0000      0.0000      0.0000      0.0000
        25        -0.0000     -0.0000      0.0000      0.0000      0.0000
        26         0.0000     -0.0000     -0.0000      0.0000      0.0000
        27         0.0000      0.0000      0.0000      0.0000      0.0000
        28         0.0000     -0.0000      0.0000      0.0000      0.0000
        29         0.0000      0.0000      0.2582      0.0667      0.0281
        30         0.0000      0.0000     -0.0000      0.0000      0.0000
        31        -0.0354     -0.0085      0.0000      0.0013      0.0006
        32         0.0085     -0.0354     -0.0000      0.0013      0.0006
        33         0.0000     -0.0000      0.4675      0.2186      0.0981
        34         0.1270     -0.2738      0.0000      0.0911      0.0415
        35        -0.2738     -0.1270      0.0000      0.0911      0.0415
        36        -0.0000     -0.0000     -0.2831      0.0802      0.0373
        37        -0.0000      0.0000     -0.0000      0.0000      0.0000
        38         0.0000     -0.0000     -0.0000      0.0000      0.0000
        39        -0.0000     -0.0000      0.9062      0.8213      0.4050
        40         0.0000      0.0000      0.0000      0.0000      0.0000
        41        -0.0000      0.0000     -0.0000      0.0000      0.0000
        42         0.0000      0.0000      0.0000      0.0000      0.0000
        43         0.0000     -0.0000      0.0000      0.0000      0.0000
        44         0.0000     -0.0000     -0.0000      0.0000      0.0000
        45         0.0547     -0.0194      0.0000      0.0034      0.0018
        46         0.0194      0.0547      0.0000      0.0034      0.0018
        47         0.0000     -0.0000      0.0000      0.0000      0.0000
        48        -0.0000     -0.0000      0.0000      0.0000      0.0000
        49         0.0000      0.0000      0.6506      0.4233      0.2332
        50        -0.0000      0.0000      0.3724      0.1387      0.0775
        51         0.0000     -0.0000     -0.0000      0.0000      0.0000
        52        -0.4024     -0.8148      0.0000      0.8258      0.4759
        53        -0.8148      0.4024     -0.0000      0.8258      0.4759
        54         0.0000     -0.0000     -0.0000      0.0000      0.0000
        55        -0.0000     -0.0000     -0.0000      0.0000      0.0000
        56        -0.0000      0.0000      0.0000      0.0000      0.0000
        57        -0.0000      0.0000     -0.0000      0.0000      0.0000
        58         0.5261      0.8873     -0.0000      1.0640      0.6461
        59         0.8873     -0.5261      0.0000      1.0640      0.6461
        60        -0.0000     -0.0000     -0.0000      0.0000      0.0000
        61        -0.0000      0.0000     -0.0000      0.0000      0.0000
        62         0.0000     -0.0000     -0.0000      0.0000      0.0000
        63        -0.0000      0.0000     -0.0000      0.0000      0.0000
        64        -0.0000      0.0000      0.4184      0.1750      0.1117
        65         0.3905      0.1105     -0.0000      0.1647      0.1063
        66        -0.1105      0.3905     -0.0000      0.1647      0.1063
        67         0.0000     -0.0000      0.0215      0.0005      0.0003
        68         0.0000     -0.0000     -0.0000      0.0000      0.0000
        69         0.0000     -0.0000      0.0000      0.0000      0.0000
        70         0.0000      0.0000     -0.0000      0.0000      0.0000
        71        -0.0000     -0.0000      0.0000      0.0000      0.0000
        72        -0.0000      0.0000     -0.0000      0.0000      0.0000
        73        -0.0000     -0.0000     -0.0000      0.0000      0.0000
        74        -0.0000      0.0000      0.4364      0.1905      0.1394
        75        -0.0000      0.0000      0.1346      0.0181      0.0133
        76        -0.0000     -0.0000     -0.0000      0.0000      0.0000
        77         0.0000      0.0000      0.0000      0.0000      0.0000
        78        -0.0000     -0.0000     -0.0000      0.0000      0.0000
        79         0.0000      0.0000     -0.0000      0.0000      0.0000
        80        -0.0000      0.0000     -0.1451      0.0211      0.0159
        81         0.0000     -0.0000     -0.0000      0.0000      0.0000
        82         0.0000     -0.0000      0.0000      0.0000      0.0000
        83         0.0000     -0.0000      0.0000      0.0000      0.0000
        84        -0.0000      0.0000      0.0000      0.0000      0.0000
        85         0.0000      0.0000     -0.0000      0.0000      0.0000
        86        -0.0000     -0.0000     -0.0000      0.0000      0.0000
        87        -0.0450     -0.1672      0.0000      0.0300      0.0237
        88        -0.1672      0.0450     -0.0000      0.0300      0.0237
        89        -0.9780      0.6012     -0.0000      1.3180      1.0768
        90        -0.6012     -0.9780     -0.0000      1.3180      1.0768
        91         0.0000     -0.0000     -0.0000      0.0000      0.0000
        92        -0.0000      0.0000     -0.0000      0.0000      0.0000
        93         0.0000     -0.0000      0.0000      0.0000      0.0000
        94         0.0000     -0.0000     -0.0000      0.0000      0.0000
        95        -0.0000     -0.0000      0.0000      0.0000      0.0000
        96         0.0000     -0.0000      0.0000      0.0000      0.0000
        97        -0.0000     -0.0000      0.0000      0.0000      0.0000
        98        -0.0000     -0.0000      0.0000      0.0000      0.0000
        99         0.0000     -0.0000     -0.4165      0.1734      0.1519
       100        -0.0000      0.0000      0.0000      0.0000      0.0000
       101        -0.0000      0.0000     -0.0000      0.0000      0.0000
       102         0.0000     -0.0000      0.0474      0.0022      0.0020
       103         0.0000     -0.0000      0.1412      0.0199      0.0187
       104        -0.0000     -0.0000      0.0000      0.0000      0.0000
       105        -0.0000      0.0000      0.0000      0.0000      0.0000
       106        -0.0000     -0.0000      0.0000      0.0000      0.0000
       107        -0.0000      0.0000      0.0000      0.0000      0.0000
       108         0.0823      0.0249     -0.0000      0.0074      0.0071
       109        -0.0249      0.0823      0.0000      0.0074      0.0071
       110        -0.0000      0.0000      0.0000      0.0000      0.0000
       111        -0.0000     -0.0000      0.0000      0.0000      0.0000
       112        -0.0000     -0.0000     -0.0826      0.0068      0.0068
       113        -0.0000     -0.0000     -0.0000      0.0000      0.0000
       114         0.0000     -0.0000      0.0000      0.0000      0.0000
       115        -0.4106      0.0456      0.0000      0.1707      0.1818
       116        -0.0456     -0.4106     -0.0000      0.1707      0.1818
       117         0.0000      0.0000      0.0000      0.0000      0.0000
       118         0.0000      0.0000     -0.0000      0.0000      0.0000
       119        -0.0000     -0.0000      0.0000      0.0000      0.0000
       120         0.0000     -0.0000      0.0000      0.0000      0.0000
       121        -0.0000      0.0000     -0.3565      0.1271      0.1385
       122         0.0000      0.0000      0.0000      0.0000      0.0000
       123         0.0000     -0.0000     -0.1706      0.0291      0.0320
       124         0.0000      0.0000      0.0000      0.0000      0.0000
       125         0.0000      0.0000      0.0000      0.0000      0.0000
       126        -0.0306      0.0285     -0.0000      0.0017      0.0020
       127        -0.0285     -0.0306      0.0000      0.0017      0.0020
       128         0.0000     -0.0000     -0.0000      0.0000      0.0000
       129         0.0000     -0.0000      0.0000      0.0000      0.0000
       130        -0.0000     -0.0000      0.0000      0.0000      0.0000
       131        -0.0000      0.0000     -0.0000      0.0000      0.0000
       132        -0.0000     -0.0000      0.0000      0.0000      0.0000
       133        -0.0000      0.0000      0.0000      0.0000      0.0000
       134        -0.0000     -0.0000     -0.0000      0.0000      0.0000
       135        -0.0000     -0.0000      0.0000      0.0000      0.0000
       136        -0.0000     -0.0000      0.0524      0.0027      0.0034
       137        -0.0017      0.0304     -0.0000      0.0009      0.0011
       138         0.0304      0.0017      0.0000      0.0009      0.0011
       139         0.0000     -0.0000      0.0000      0.0000      0.0000
       140         0.0000      0.0000     -0.0000      0.0000      0.0000
       141         0.0000     -0.0000     -0.0000      0.0000      0.0000
       142        -0.0000     -0.0000     -0.0485      0.0023      0.0030
       143        -0.0000      0.0000     -0.1784      0.0318      0.0424
       144        -0.0000      0.0000     -0.0000      0.0000      0.0000
       145         0.0000      0.0000     -0.0000      0.0000      0.0000
       146         0.1051     -0.2345     -0.0000      0.0660      0.0911
       147        -0.2345     -0.1051     -0.0000      0.0660      0.0911
       148        -0.0000      0.0000     -0.0618      0.0038      0.0053
       149        -0.0640     -0.2063      0.0000      0.0467      0.0658
       150        -0.2063      0.0640     -0.0000      0.0467      0.0658
       151        -0.0000      0.0000      0.0000      0.0000      0.0000
       152        -0.0085      0.0018     -0.0000      0.0001      0.0001
       153        -0.0018     -0.0085      0.0000      0.0001      0.0001
       154         0.0000     -0.0000     -0.0000      0.0000      0.0000
       155        -0.0000     -0.0000      0.0000      0.0000      0.0000
       156        -0.0000     -0.0000     -0.0000      0.0000      0.0000
       157        -0.0000     -0.0000     -0.0000      0.0000      0.0000
       158         0.0000      0.0000     -0.0000      0.0000      0.0000
       159        -0.0000      0.0000      0.0000      0.0000      0.0000
       160         0.0000     -0.0000     -0.0000      0.0000      0.0000
       161         0.0000      0.0000      0.0000      0.0000      0.0000
       162        -0.0000      0.0000      0.0000      0.0000      0.0000
       163         0.0000     -0.0000      0.2464      0.0607      0.0951
       164        -0.0000     -0.0000      0.0000      0.0000      0.0000
       165        -0.0981      0.0230     -0.0000      0.0102      0.0164
       166        -0.0230     -0.0981     -0.0000      0.0102      0.0164
       167        -0.0000     -0.0000      0.0618      0.0038      0.0062
       168        -0.0000      0.0000     -0.0528      0.0028      0.0046
       169         0.0000      0.0000     -0.0000      0.0000      0.0000
       170         0.0000     -0.0000      0.0000      0.0000      0.0000
       171         0.0000      0.0000      0.0000      0.0000      0.0000
       172         0.0000      0.0000     -0.0000      0.0000      0.0000
       173        -0.0000      0.0000     -0.0000      0.0000      0.0000
       174        -0.0000     -0.0000      0.0000      0.0000      0.0000
       175        -0.0337     -0.0818      0.0000      0.0078      0.0140
       176        -0.0818      0.0337      0.0000      0.0078      0.0140
       177        -0.0000      0.0000     -0.0387      0.0015      0.0027
       178         0.0000      0.0000      0.0000      0.0000      0.0000
       179        -0.0000      0.0000     -0.0000      0.0000      0.0000
       180         0.0000      0.0000     -0.0000      0.0000      0.0000
       181         0.0000      0.0000      0.0000      0.0000      0.0000
       182        -0.0057     -0.0459     -0.0000      0.0021      0.0039
       183         0.0459     -0.0057      0.0000      0.0021      0.0039
       184         0.0000      0.0000      0.0000      0.0000      0.0000
       185         0.0000     -0.0000      0.0508      0.0026      0.0047
       186        -0.0000     -0.0000     -0.0000      0.0000      0.0000
       187        -0.0000     -0.0000      0.0000      0.0000      0.0000
       188         0.0548     -0.0371      0.0000      0.0044      0.0081
       189         0.0371      0.0548      0.0000      0.0044      0.0081
       190         0.0000     -0.0000     -0.0000      0.0000      0.0000
       191         0.0000     -0.0000     -0.0000      0.0000      0.0000
       192        -0.0000     -0.0000      0.0000      0.0000      0.0000
       193         0.0000     -0.0000     -0.0000      0.0000      0.0000
       194         0.0000     -0.0000     -0.0000      0.0000      0.0000
       195         0.0000      0.0000      0.0000      0.0000      0.0000
       196        -0.0000      0.0000     -0.0000      0.0000      0.0000
       197         0.0000     -0.0000     -0.0000      0.0000      0.0000
       198         0.0000     -0.0000      0.0000      0.0000      0.0000
       199         0.0000      0.0000     -0.0000      0.0000      0.0000
       200        -0.0000     -0.0000      0.0000      0.0000      0.0000
       201         0.0000     -0.0000     -0.0000      0.0000      0.0000
       202        -0.0000      0.0000     -0.0000      0.0000      0.0000
       203         0.0572      0.0602      0.0000      0.0069      0.0137
       204         0.0602     -0.0572     -0.0000      0.0069      0.0137
       205        -0.0000     -0.0000     -0.0000      0.0000      0.0000
       206        -0.0000     -0.0000     -0.0000      0.0000      0.0000
       207        -0.0682      0.0294     -0.0000      0.0055      0.0111
       208        -0.0294     -0.0682     -0.0000      0.0055      0.0111
       209         0.0000      0.0000     -0.0020      0.0000      0.0000
       210         0.0000     -0.0000     -0.0000      0.0000      0.0000
       211        -0.0000     -0.0000      0.0000      0.0000      0.0000
       212        -0.0724     -0.1133     -0.0000      0.0181      0.0372
       213        -0.1133      0.0724     -0.0000      0.0181      0.0372
       214        -0.0000     -0.0000     -0.0000      0.0000      0.0000
       215        -0.0000      0.0000      0.0000      0.0000      0.0000
       216        -0.0000      0.0000     -0.0000      0.0000      0.0000
       217        -0.0000     -0.0000     -0.0000      0.0000      0.0000
       218         0.0000     -0.0000      0.0000      0.0000      0.0000
       219         0.0000     -0.0000      0.0000      0.0000      0.0000
       220         0.0000     -0.0000     -0.0000      0.0000      0.0000
       221        -0.0000      0.0000     -0.0000      0.0000      0.0000
       222        -0.0000     -0.0000     -0.0000      0.0000      0.0000
       223         0.0000     -0.0000     -0.0000      0.0000      0.0000
       224        -0.0000      0.0000      0.0000      0.0000      0.0000
       225        -0.0000      0.0000     -0.0000      0.0000      0.0000
       226        -0.0000     -0.0000     -0.0000      0.0000      0.0000
       227        -0.0000     -0.0000      0.0000      0.0000      0.0000
       228        -0.0000     -0.0000     -0.0000      0.0000      0.0000
       229        -0.0000      0.0000      0.0000      0.0000      0.0000
       230         0.0000      0.0000      0.0151      0.0002      0.0005
       231         0.0000     -0.0000     -0.0000      0.0000      0.0000
       232        -0.0000     -0.0000      0.0000      0.0000      0.0000
       233        -0.0000      0.0000     -0.0000      0.0000      0.0000
       234        -0.0000     -0.0000     -0.0000      0.0000      0.0000
       235        -0.1468     -0.0193     -0.0000      0.0219      0.0472
       236        -0.0193      0.1468     -0.0000      0.0219      0.0472
       237         0.0000      0.0000     -0.1270      0.0161      0.0349
       238         0.0000     -0.0000     -0.0000      0.0000      0.0000
       239         0.0000      0.0000     -0.0000      0.0000      0.0000
       240         0.0000      0.0000      0.0000      0.0000      0.0000
       241         0.0000     -0.0000      0.0000      0.0000      0.0000
       242         0.0000     -0.0000      0.0000      0.0000      0.0000
       243         0.0000     -0.0000      0.0000      0.0000      0.0000
       244        -0.0000     -0.0000      0.0946      0.0089      0.0198
       245         0.1450      0.0153      0.0000      0.0212      0.0473
       246        -0.0153      0.1450      0.0000      0.0212      0.0473
       247        -0.0000     -0.0000      0.0000      0.0000      0.0000
       248        -0.0000      0.0000      0.0000      0.0000      0.0000
       249        -0.0000     -0.0000     -0.0000      0.0000      0.0000
       250         0.0000      0.0000     -0.0000      0.0000      0.0000
       251        -0.0000      0.0000      0.0170      0.0003      0.0007
       252        -0.0000     -0.0000      0.0000      0.0000      0.0000
       253         0.0000      0.0000     -0.0000      0.0000      0.0000
       254         0.0000      0.0000     -0.0000      0.0000      0.0000
       255         0.0000     -0.0000     -0.0000      0.0000      0.0000
       256         0.0000      0.0000      0.0000      0.0000      0.0000
       257         0.0000     -0.0000     -0.0000      0.0000      0.0000
       258         0.0000     -0.0000     -0.0000      0.0000      0.0000
       259         0.0000     -0.0000     -0.0641      0.0041      0.0095
       260         0.0000     -0.0000      0.0000      0.0000      0.0000
       261         0.0000     -0.0000     -0.0000      0.0000      0.0000
       262        -0.0000      0.0000     -0.0000      0.0000      0.0000
       263        -0.0168     -0.0472      0.0000      0.0025      0.0059
       264        -0.0472      0.0168     -0.0000      0.0025      0.0059
       265        -0.0000     -0.0000      0.0000      0.0000      0.0000
       266        -0.0000      0.0000      0.0000      0.0000      0.0000
       267         0.0000      0.0000     -0.0000      0.0000      0.0000
       268        -0.0000      0.0000      0.0000      0.0000      0.0000
       269         0.0000      0.0000     -0.0000      0.0000      0.0000
       270        -0.0000      0.0000     -0.0000      0.0000      0.0000
       271         0.0000      0.0000      0.0544      0.0030      0.0072
       272        -0.0000      0.0000     -0.0000      0.0000      0.0000
       273        -0.0000      0.0000     -0.0000      0.0000      0.0000
       274         0.0000     -0.0000      0.0000      0.0000      0.0000
       275         0.0000     -0.0000     -0.0000      0.0000      0.0000
       276         0.0000      0.0000     -0.0000      0.0000      0.0000
       277         0.0000      0.0000      0.0000      0.0000      0.0000
       278        -0.0000     -0.0000     -0.0000      0.0000      0.0000
       279        -0.0000     -0.0000      0.0000      0.0000      0.0000
       280         0.0574      0.0251     -0.0000      0.0039      0.0102
       281        -0.0251      0.0574      0.0000      0.0039      0.0102
       282        -0.0000     -0.0000      0.0000      0.0000      0.0000
       283        -0.0000      0.0000     -0.0000      0.0000      0.0000
       284         0.0000      0.0000     -0.0000      0.0000      0.0000
       285         0.0000      0.0000     -0.0000      0.0000      0.0000
       286        -0.0000     -0.0000      0.0000      0.0000      0.0000
       287        -0.0000      0.0000      0.0000      0.0000      0.0000
       288         0.0000      0.0000     -0.0000      0.0000      0.0000
       289         0.0000      0.0000     -0.0000      0.0000      0.0000
       290         0.0000      0.0000     -0.0000      0.0000      0.0000
       291        -0.0000      0.0000      0.0026      0.0000      0.0000
       292        -0.0000     -0.0000     -0.0000      0.0000      0.0000
       293         0.0000      0.0000     -0.0000      0.0000      0.0000
       294         0.0020     -0.0007      0.0000      0.0000      0.0000
       295         0.0007      0.0020     -0.0000      0.0000      0.0000
       296         0.0000     -0.0000      0.0000      0.0000      0.0000
       297        -0.0000      0.0000     -0.0000      0.0000      0.0000
       298         0.0000      0.0000     -0.0000      0.0000      0.0000
       299        -0.0001     -0.0351     -0.0000      0.0012      0.0037
       300        -0.0351      0.0001      0.0000      0.0012      0.0037
       301         0.0000     -0.0000      0.0000      0.0000      0.0000
       302         0.0000     -0.0000     -0.0000      0.0000      0.0000
       303         0.0000      0.0000      0.0000      0.0000      0.0000
       304         0.0000      0.0000      0.0000      0.0000      0.0000
       305         0.0000     -0.0000      0.0893      0.0080      0.0258
       306        -0.0000     -0.0000      0.0000      0.0000      0.0000
       307         0.0000     -0.0000      0.0000      0.0000      0.0000
       308         0.0000      0.0000      0.0000      0.0000      0.0000
       309         0.0000     -0.0000      0.0644      0.0041      0.0140
       310         0.0000      0.0000     -0.0000      0.0000      0.0000
       311        -0.0000     -0.0000      0.0000      0.0000      0.0000
       312         0.0000      0.0000     -0.0000      0.0000      0.0000
       313        -0.0134      0.0674      0.0000      0.0047      0.0162
       314         0.0674      0.0134      0.0000      0.0047      0.0162
       315         0.0000      0.0000     -0.0229      0.0005      0.0018
       316        -0.0000     -0.0000     -0.0000      0.0000      0.0000
       317         0.0000      0.0000     -0.0000      0.0000      0.0000
       318        -0.0000     -0.0000      0.0000      0.0000      0.0000
       319         0.0000     -0.0000      0.0055      0.0000      0.0001
       320         0.0000      0.0000     -0.0719      0.0052      0.0189
       321         0.0067      0.0054      0.0000      0.0001      0.0003
       322        -0.0054      0.0067     -0.0000      0.0001      0.0003
       323         0.0000     -0.0000      0.0000      0.0000      0.0000
       324         0.0000     -0.0000     -0.0232      0.0005      0.0021
       325         0.0000     -0.0000     -0.0000      0.0000      0.0000
       326        -0.0268      0.0023      0.0000      0.0007      0.0106
       327        -0.0023     -0.0268      0.0000      0.0007      0.0106
       328        -0.0000     -0.0000     -0.0000      0.0000      0.0000
       329         0.0000     -0.0000     -0.0134      0.0002      0.0027
       330         0.0000      0.0000      0.0000      0.0000      0.0000
       331         0.0000     -0.0000     -0.0000      0.0000      0.0000
       332         0.0000     -0.0000     -0.0000      0.0000      0.0000
       333        -0.0000     -0.0000     -0.0168      0.0003      0.0044
       334         0.0000      0.0000      0.0000      0.0000      0.0000
       335         0.0000     -0.0000     -0.0067      0.0000      0.0007
 Ground to excited state transition velocity dipole moments (Au):
       state          X           Y           Z        Dip. S.      Osc.
         1        -0.0000      0.0000     -0.0000      0.0000      0.0000
         2        -0.0000      0.0000     -0.0000      0.0000      0.0000
         3        -0.0000      0.0000      0.0000      0.0000      0.0000
         4        -0.0000     -0.0000     -0.0000      0.0000      0.0000
         5         0.0000     -0.0000     -0.0000      0.0000      0.0000
         6        -0.0162     -0.0184     -0.0000      0.0006      0.0011
         7        -0.0184      0.0162      0.0000      0.0006      0.0011
         8         0.0000     -0.0000      0.7156      0.5121      0.8878
         9         0.3660     -0.0940      0.0000      0.1428      0.2436
        10         0.0940      0.3660      0.0000      0.1428      0.2436
        11        -0.0000     -0.0000      0.0000      0.0000      0.0000
        12        -0.0000     -0.0000      0.0000      0.0000      0.0000
        13         0.0000     -0.0000     -0.0000      0.0000      0.0000
        14        -0.0000     -0.0000      0.0000      0.0000      0.0000
        15        -0.0000     -0.0000      0.0000      0.0000      0.0000
        16        -0.0000     -0.0000      0.0000      0.0000      0.0000
        17        -0.0000     -0.0000      0.0000      0.0000      0.0000
        18        -0.0000     -0.0000      0.0000      0.0000      0.0000
        19        -0.0000      0.0000      0.7446      0.5544      0.6780
        20        -0.0153      0.4326      0.0000      0.1873      0.2167
        21         0.4326      0.0153      0.0000      0.1873      0.2167
        22        -0.0000     -0.0000      0.0000      0.0000      0.0000
        23         0.0000      0.0000     -0.0000      0.0000      0.0000
        24        -0.0000      0.0000     -0.0000      0.0000      0.0000
        25         0.0000      0.0000     -0.0000      0.0000      0.0000
        26        -0.0000      0.0000      0.0000      0.0000      0.0000
        27        -0.0000      0.0000     -0.0000      0.0000      0.0000
        28        -0.0000      0.0000     -0.0000      0.0000      0.0000
        29        -0.0000      0.0000     -0.1541      0.0237      0.0251
        30        -0.0000     -0.0000      0.0000      0.0000      0.0000
        31         0.0416      0.0100      0.0000      0.0018      0.0018
        32        -0.0100      0.0416      0.0000      0.0018      0.0018
        33         0.0000      0.0000     -0.3189      0.1017      0.1007
        34        -0.0837      0.1805     -0.0000      0.0396      0.0386
        35         0.1805      0.0837     -0.0000      0.0396      0.0386
        36         0.0000      0.0000      0.1987      0.0395      0.0377
        37         0.0000     -0.0000      0.0000      0.0000      0.0000
        38         0.0000      0.0000      0.0000      0.0000      0.0000
        39         0.0000      0.0000     -0.6687      0.4472      0.4030
        40        -0.0000      0.0000     -0.0000      0.0000      0.0000
        41         0.0000      0.0000      0.0000      0.0000      0.0000
        42        -0.0000     -0.0000     -0.0000      0.0000      0.0000
        43        -0.0000      0.0000     -0.0000      0.0000      0.0000
        44        -0.0000      0.0000      0.0000      0.0000      0.0000
        45        -0.0454      0.0161     -0.0000      0.0023      0.0019
        46        -0.0161     -0.0454     -0.0000      0.0023      0.0019
        47        -0.0000      0.0000     -0.0000      0.0000      0.0000
        48         0.0000      0.0000     -0.0000      0.0000      0.0000
        49        -0.0000     -0.0000     -0.5322      0.2833      0.2286
        50        -0.0000     -0.0000     -0.3080      0.0949      0.0754
        51        -0.0000      0.0000      0.0000      0.0000      0.0000
        52         0.2969      0.6012     -0.0000      0.4496      0.3467
        53         0.6012     -0.2969      0.0000      0.4496      0.3467
        54        -0.0000     -0.0000      0.0000      0.0000      0.0000
        55         0.0000      0.0000      0.0000      0.0000      0.0000
        56         0.0000     -0.0000     -0.0000      0.0000      0.0000
        57         0.0000     -0.0000      0.0000      0.0000      0.0000
        58        -0.4096     -0.6909      0.0000      0.6451      0.4721
        59        -0.6909      0.4096     -0.0000      0.6451      0.4721
        60         0.0000     -0.0000      0.0000      0.0000      0.0000
        61         0.0000     -0.0000      0.0000      0.0000      0.0000
        62        -0.0000      0.0000      0.0000      0.0000      0.0000
        63         0.0000     -0.0000      0.0000      0.0000      0.0000
        64         0.0000     -0.0000     -0.3921      0.1538      0.1071
        65        -0.3194     -0.0904      0.0000      0.1102      0.0759
        66         0.0904     -0.3194      0.0000      0.1102      0.0759
        67        -0.0000      0.0000     -0.0097      0.0001      0.0001
        68        -0.0000     -0.0000     -0.0000      0.0000      0.0000
        69        -0.0000     -0.0000     -0.0000      0.0000      0.0000
        70        -0.0000     -0.0000      0.0000      0.0000      0.0000
        71        -0.0000     -0.0000     -0.0000      0.0000      0.0000
        72         0.0000     -0.0000      0.0000      0.0000      0.0000
        73         0.0000      0.0000      0.0000      0.0000      0.0000
        74         0.0000      0.0000     -0.4780      0.2284      0.1387
        75         0.0000     -0.0000     -0.1458      0.0213      0.0128
        76         0.0000     -0.0000      0.0000      0.0000      0.0000
        77         0.0000     -0.0000     -0.0000      0.0000      0.0000
        78         0.0000     -0.0000      0.0000      0.0000      0.0000
        79        -0.0000     -0.0000      0.0000      0.0000      0.0000
        80         0.0000     -0.0000      0.1667      0.0278      0.0163
        81        -0.0000     -0.0000      0.0000      0.0000      0.0000
        82        -0.0000     -0.0000     -0.0000      0.0000      0.0000
        83        -0.0000      0.0000     -0.0000      0.0000      0.0000
        84         0.0000     -0.0000     -0.0000      0.0000      0.0000
        85        -0.0000     -0.0000      0.0000      0.0000      0.0000
        86         0.0000      0.0000      0.0000      0.0000      0.0000
        87         0.0292      0.1086     -0.0000      0.0127      0.0071
        88         0.1086     -0.0292      0.0000      0.0127      0.0071
        89         1.1264     -0.6924      0.0000      1.7482      0.9510
        90         0.6924      1.1264      0.0000      1.7482      0.9510
        91        -0.0000      0.0000     -0.0000      0.0000      0.0000
        92        -0.0000     -0.0000      0.0000      0.0000      0.0000
        93         0.0000      0.0000     -0.0000      0.0000      0.0000
        94         0.0000     -0.0000      0.0000      0.0000      0.0000
        95         0.0000      0.0000     -0.0000      0.0000      0.0000
        96        -0.0000      0.0000     -0.0000      0.0000      0.0000
        97        -0.0000      0.0000     -0.0000      0.0000      0.0000
        98         0.0000      0.0000     -0.0000      0.0000      0.0000
        99        -0.0000      0.0000      0.5412      0.2929      0.1487
       100         0.0000     -0.0000     -0.0000      0.0000      0.0000
       101        -0.0000     -0.0000     -0.0000      0.0000      0.0000
       102        -0.0000      0.0000     -0.0527      0.0028      0.0014
       103        -0.0000      0.0000     -0.1996      0.0398      0.0189
       104         0.0000      0.0000     -0.0000      0.0000      0.0000
       105         0.0000     -0.0000     -0.0000      0.0000      0.0000
       106         0.0000      0.0000     -0.0000      0.0000      0.0000
       107         0.0000      0.0000     -0.0000      0.0000      0.0000
       108        -0.1159     -0.0351      0.0000      0.0147      0.0068
       109         0.0351     -0.1159     -0.0000      0.0147      0.0068
       110         0.0000      0.0000     -0.0000      0.0000      0.0000
       111         0.0000      0.0000     -0.0000      0.0000      0.0000
       112        -0.0000      0.0000      0.1242      0.0154      0.0069
       113         0.0000      0.0000      0.0000      0.0000      0.0000
       114        -0.0000     -0.0000      0.0000      0.0000      0.0000
       115         0.6228     -0.0692      0.0000      0.3927      0.1639
       116         0.0692      0.6228      0.0000      0.3927      0.1639
       117        -0.0000     -0.0000     -0.0000      0.0000      0.0000
       118        -0.0000     -0.0000      0.0000      0.0000      0.0000
       119         0.0000      0.0000     -0.0000      0.0000      0.0000
       120        -0.0000     -0.0000     -0.0000      0.0000      0.0000
       121         0.0000     -0.0000      0.5767      0.3326      0.1357
       122        -0.0000     -0.0000     -0.0000      0.0000      0.0000
       123        -0.0000     -0.0000      0.3073      0.0944      0.0382
       124        -0.0000     -0.0000     -0.0000      0.0000      0.0000
       125        -0.0000     -0.0000     -0.0000      0.0000      0.0000
       126         0.0915     -0.0852     -0.0000      0.0156      0.0061
       127         0.0852      0.0915     -0.0000      0.0156      0.0061
       128        -0.0000     -0.0000      0.0000      0.0000      0.0000
       129         0.0000     -0.0000     -0.0000      0.0000      0.0000
       130         0.0000      0.0000      0.0000      0.0000      0.0000
       131         0.0000     -0.0000      0.0000      0.0000      0.0000
       132         0.0000      0.0000     -0.0000      0.0000      0.0000
       133         0.0000      0.0000     -0.0000      0.0000      0.0000
       134         0.0000      0.0000      0.0000      0.0000      0.0000
       135         0.0000      0.0000      0.0000      0.0000      0.0000
       136         0.0000     -0.0000     -0.0849      0.0072      0.0026
       137         0.0013     -0.0234      0.0000      0.0005      0.0002
       138        -0.0234     -0.0013      0.0000      0.0005      0.0002
       139        -0.0000     -0.0000     -0.0000      0.0000      0.0000
[...]
     13   0.000000D+00  0.000000D+00  0.000000D+00  0.000000D+00  0.000000D+00
     14   0.000000D+00  0.000000D+00  0.000000D+00  0.000000D+00  0.303792D-02
     15   0.000000D+00  0.000000D+00  0.000000D+00  0.000000D+00  0.000000D+00
     16   0.000000D+00  0.000000D+00  0.000000D+00  0.000000D+00  0.000000D+00
               266           267           268           269           270 
      1  -0.737653D+02 -0.737183D+02 -0.737183D+02 -0.736706D+02 -0.736706D+02
      2   0.000000D+00  0.000000D+00  0.000000D+00  0.000000D+00  0.000000D+00
      3   0.000000D+00  0.000000D+00  0.000000D+00  0.000000D+00  0.000000D+00
      4   0.000000D+00  0.000000D+00  0.000000D+00  0.000000D+00  0.000000D+00
      5   0.000000D+00  0.000000D+00  0.000000D+00  0.000000D+00  0.000000D+00
      6   0.000000D+00  0.000000D+00  0.000000D+00  0.000000D+00  0.000000D+00
      7   0.000000D+00  0.000000D+00  0.000000D+00  0.000000D+00  0.000000D+00
      8   0.000000D+00  0.000000D+00  0.000000D+00  0.000000D+00  0.000000D+00
      9   0.000000D+00  0.000000D+00  0.000000D+00  0.000000D+00  0.000000D+00
     10   0.000000D+00  0.000000D+00  0.000000D+00  0.000000D+00  0.000000D+00
     11   0.304557D-02  0.000000D+00  0.000000D+00 -0.413493D-01  0.000000D+00
     12  -0.304557D-02  0.000000D+00  0.000000D+00  0.413493D-01  0.000000D+00
     13   0.000000D+00  0.000000D+00  0.000000D+00  0.000000D+00  0.000000D+00
     14   0.000000D+00  0.000000D+00  0.000000D+00  0.000000D+00 -0.413502D-01
     15   0.000000D+00  0.150691D-05  0.129079D-05  0.000000D+00  0.000000D+00
     16   0.000000D+00  0.129079D-05 -0.150691D-05  0.000000D+00  0.000000D+00
               271           272           273           274           275 
      1  -0.736675D+02 -0.736305D+02 -0.736305D+02 -0.735928D+02 -0.735928D+02
      2   0.000000D+00  0.000000D+00  0.000000D+00  0.000000D+00  0.000000D+00
      3   0.000000D+00  0.000000D+00  0.000000D+00  0.000000D+00  0.000000D+00
      4   0.543515D-01  0.000000D+00  0.000000D+00  0.000000D+00  0.000000D+00
      5   0.000000D+00  0.000000D+00  0.000000D+00  0.000000D+00  0.000000D+00
      6   0.000000D+00  0.000000D+00  0.000000D+00  0.000000D+00  0.000000D+00
      7  -0.175690D+00  0.000000D+00  0.000000D+00  0.000000D+00  0.000000D+00
      8   0.000000D+00 -0.854744D-01  0.121204D+00  0.000000D+00  0.000000D+00
      9   0.000000D+00 -0.121204D+00 -0.854744D-01  0.000000D+00  0.000000D+00
     10   0.000000D+00  0.000000D+00  0.000000D+00  0.000000D+00  0.000000D+00
     11   0.000000D+00  0.000000D+00  0.000000D+00  0.000000D+00  0.000000D+00
     12   0.000000D+00  0.000000D+00  0.000000D+00  0.000000D+00  0.000000D+00
     13   0.000000D+00  0.000000D+00  0.000000D+00  0.000000D+00  0.000000D+00
     14   0.000000D+00  0.000000D+00  0.000000D+00  0.000000D+00  0.000000D+00
     15   0.000000D+00 -0.319030D+00 -0.224984D+00  0.000000D+00  0.000000D+00
     16   0.000000D+00  0.224984D+00 -0.319030D+00  0.000000D+00  0.000000D+00
               276           277           278           279           280 
      1  -0.735385D+02 -0.735385D+02 -0.735124D+02 -0.735124D+02 -0.734150D+02
      2   0.000000D+00  0.000000D+00  0.000000D+00  0.000000D+00  0.573904D-01
      3   0.000000D+00  0.000000D+00  0.000000D+00  0.000000D+00  0.250751D-01
      4   0.000000D+00  0.000000D+00  0.000000D+00  0.000000D+00  0.000000D+00
      5   0.000000D+00  0.000000D+00  0.000000D+00  0.000000D+00 -0.203318D+00
      6   0.000000D+00  0.000000D+00  0.000000D+00  0.000000D+00 -0.888341D-01
      7   0.000000D+00  0.000000D+00  0.000000D+00  0.000000D+00  0.000000D+00
      8   0.000000D+00  0.000000D+00  0.230825D+00 -0.122966D-01  0.000000D+00
      9   0.000000D+00  0.000000D+00 -0.122966D-01 -0.230825D+00  0.000000D+00
     10   0.000000D+00  0.000000D+00  0.000000D+00  0.000000D+00  0.000000D+00
     11   0.000000D+00  0.000000D+00  0.000000D+00  0.000000D+00  0.000000D+00
     12   0.000000D+00  0.000000D+00  0.000000D+00  0.000000D+00  0.000000D+00
     13   0.000000D+00  0.000000D+00  0.000000D+00  0.000000D+00  0.000000D+00
     14   0.000000D+00  0.000000D+00  0.000000D+00  0.000000D+00  0.000000D+00
     15  -0.190728D-05  0.000000D+00  0.164527D-01  0.308841D+00  0.000000D+00
     16   0.000000D+00 -0.190728D-05  0.308841D+00 -0.164527D-01  0.000000D+00
               281           282           283           284           285 
      1  -0.734150D+02 -0.733062D+02 -0.733062D+02 -0.732663D+02 -0.732663D+02
      2  -0.250751D-01  0.000000D+00  0.000000D+00  0.000000D+00  0.000000D+00
      3   0.573904D-01  0.000000D+00  0.000000D+00  0.000000D+00  0.000000D+00
      4   0.000000D+00  0.000000D+00  0.000000D+00  0.000000D+00  0.000000D+00
      5   0.888341D-01  0.000000D+00  0.000000D+00  0.000000D+00  0.000000D+00
      6  -0.203318D+00  0.000000D+00  0.000000D+00  0.000000D+00  0.000000D+00
      7   0.000000D+00  0.000000D+00  0.000000D+00  0.000000D+00  0.000000D+00
      8   0.000000D+00  0.000000D+00  0.000000D+00  0.000000D+00  0.000000D+00
      9   0.000000D+00  0.000000D+00  0.000000D+00  0.000000D+00  0.000000D+00
     10   0.000000D+00  0.000000D+00  0.000000D+00  0.000000D+00  0.000000D+00
     11   0.000000D+00  0.000000D+00  0.000000D+00  0.000000D+00 -0.460763D-01
     12   0.000000D+00  0.000000D+00  0.000000D+00  0.000000D+00  0.460763D-01
     13   0.000000D+00  0.000000D+00  0.000000D+00  0.000000D+00  0.000000D+00
     14   0.000000D+00  0.000000D+00  0.000000D+00 -0.460695D-01  0.000000D+00
     15   0.000000D+00  0.000000D+00  0.000000D+00  0.000000D+00  0.000000D+00
     16   0.000000D+00  0.000000D+00  0.000000D+00  0.000000D+00  0.000000D+00
               286           287           288           289           290 
      1  -0.732555D+02 -0.732460D+02 -0.732262D+02 -0.732262D+02 -0.732018D+02
      2   0.000000D+00  0.000000D+00  0.000000D+00  0.000000D+00  0.000000D+00
      3   0.000000D+00  0.000000D+00  0.000000D+00  0.000000D+00  0.000000D+00
      4   0.000000D+00  0.000000D+00  0.000000D+00  0.000000D+00  0.000000D+00
      5   0.000000D+00  0.000000D+00  0.000000D+00  0.000000D+00  0.000000D+00
      6   0.000000D+00  0.000000D+00  0.000000D+00  0.000000D+00  0.000000D+00
      7   0.000000D+00  0.000000D+00  0.000000D+00  0.000000D+00  0.000000D+00
      8   0.000000D+00  0.000000D+00  0.000000D+00  0.000000D+00  0.000000D+00
      9   0.000000D+00  0.000000D+00  0.000000D+00  0.000000D+00  0.000000D+00
     10   0.000000D+00  0.000000D+00  0.000000D+00  0.000000D+00  0.000000D+00
     11  -0.317117D+00  0.000000D+00  0.000000D+00  0.407700D+00  0.536677D-02
     12  -0.317117D+00  0.000000D+00  0.000000D+00 -0.407700D+00  0.536677D-02
     13   0.101568D+01  0.000000D+00  0.000000D+00  0.000000D+00  0.116533D+01
     14   0.000000D+00  0.000000D+00  0.407701D+00  0.000000D+00  0.000000D+00
     15   0.000000D+00  0.000000D+00  0.000000D+00  0.000000D+00  0.000000D+00
     16   0.000000D+00  0.000000D+00  0.000000D+00  0.000000D+00  0.000000D+00
               291           292           293           294           295 
      1  -0.731390D+02 -0.730597D+02 -0.730597D+02 -0.730366D+02 -0.730366D+02
      2   0.000000D+00  0.000000D+00  0.000000D+00  0.197922D-02  0.706048D-03
      3   0.000000D+00  0.000000D+00  0.000000D+00 -0.706048D-03  0.197922D-02
      4   0.256578D-02  0.000000D+00  0.000000D+00  0.000000D+00  0.000000D+00
      5   0.000000D+00  0.000000D+00  0.000000D+00  0.852575D-01  0.304140D-01
      6   0.000000D+00  0.000000D+00  0.000000D+00 -0.304140D-01  0.852575D-01
      7   0.220822D-01  0.000000D+00  0.000000D+00  0.000000D+00  0.000000D+00
      8   0.000000D+00  0.000000D+00  0.000000D+00  0.000000D+00  0.000000D+00
      9   0.000000D+00  0.000000D+00  0.000000D+00  0.000000D+00  0.000000D+00
     10   0.000000D+00  0.000000D+00  0.000000D+00  0.000000D+00  0.000000D+00
     11   0.000000D+00  0.000000D+00  0.000000D+00  0.000000D+00  0.000000D+00
     12   0.000000D+00  0.000000D+00  0.000000D+00  0.000000D+00  0.000000D+00
     13   0.000000D+00  0.000000D+00  0.000000D+00  0.000000D+00  0.000000D+00
     14   0.000000D+00  0.000000D+00  0.000000D+00  0.000000D+00  0.000000D+00
     15   0.000000D+00  0.000000D+00  0.000000D+00  0.000000D+00  0.000000D+00
     16   0.000000D+00  0.000000D+00  0.000000D+00  0.000000D+00  0.000000D+00
               296           297           298           299           300 
      1  -0.729585D+02 -0.729585D+02 -0.729379D+02 -0.727897D+02 -0.727897D+02
      2   0.000000D+00  0.000000D+00  0.000000D+00 -0.635272D-04 -0.351479D-01
      3   0.000000D+00  0.000000D+00  0.000000D+00 -0.351479D-01  0.635272D-04
      4   0.000000D+00  0.000000D+00  0.000000D+00  0.000000D+00  0.000000D+00
      5   0.000000D+00  0.000000D+00  0.000000D+00  0.347167D-03  0.192078D+00
      6   0.000000D+00  0.000000D+00  0.000000D+00  0.192078D+00 -0.347167D-03
      7   0.000000D+00  0.000000D+00  0.000000D+00  0.000000D+00  0.000000D+00
      8  -0.212395D+00 -0.403948D-01  0.000000D+00  0.000000D+00  0.000000D+00
      9  -0.403948D-01  0.212395D+00  0.000000D+00  0.000000D+00  0.000000D+00
     10   0.000000D+00  0.000000D+00  0.000000D+00  0.000000D+00  0.000000D+00
     11   0.000000D+00  0.000000D+00  0.400219D-01  0.000000D+00  0.000000D+00
     12   0.000000D+00  0.000000D+00  0.400219D-01  0.000000D+00  0.000000D+00
     13   0.000000D+00  0.000000D+00 -0.105712D+01  0.000000D+00  0.000000D+00
     14   0.000000D+00  0.000000D+00  0.000000D+00  0.000000D+00  0.000000D+00
     15  -0.456131D-01  0.239833D+00  0.000000D+00  0.000000D+00  0.000000D+00
     16   0.239833D+00  0.456131D-01  0.000000D+00  0.000000D+00  0.000000D+00
               301           302           303           304           305 
      1  -0.725148D+02 -0.725148D+02 -0.724897D+02 -0.724897D+02 -0.724827D+02
      2   0.000000D+00  0.000000D+00  0.000000D+00  0.000000D+00  0.000000D+00
      3   0.000000D+00  0.000000D+00  0.000000D+00  0.000000D+00  0.000000D+00
      4   0.000000D+00  0.000000D+00  0.000000D+00  0.000000D+00  0.893313D-01
      5   0.000000D+00  0.000000D+00  0.000000D+00  0.000000D+00  0.000000D+00
      6   0.000000D+00  0.000000D+00  0.000000D+00  0.000000D+00  0.000000D+00
      7   0.000000D+00  0.000000D+00  0.000000D+00  0.000000D+00 -0.390529D+00
      8  -0.320593D+00  0.631252D-01  0.000000D+00  0.000000D+00  0.000000D+00
      9   0.631252D-01  0.320593D+00  0.000000D+00  0.000000D+00  0.000000D+00
     10   0.000000D+00  0.000000D+00  0.000000D+00  0.000000D+00  0.000000D+00
     11   0.000000D+00  0.000000D+00  0.000000D+00  0.000000D+00  0.000000D+00
     12   0.000000D+00  0.000000D+00  0.000000D+00  0.000000D+00  0.000000D+00
     13   0.000000D+00  0.000000D+00  0.000000D+00  0.000000D+00  0.000000D+00
     14   0.000000D+00  0.000000D+00  0.000000D+00  0.000000D+00  0.000000D+00
     15   0.806120D-01  0.409403D+00  0.000000D+00  0.000000D+00  0.000000D+00
     16   0.409403D+00 -0.806120D-01  0.000000D+00  0.000000D+00  0.000000D+00
               306           307           308           309           310 
      1  -0.724592D+02 -0.723308D+02 -0.723308D+02 -0.722755D+02 -0.722513D+02
      2   0.000000D+00  0.000000D+00  0.000000D+00  0.000000D+00  0.000000D+00
      3   0.000000D+00  0.000000D+00  0.000000D+00  0.000000D+00  0.000000D+00
      4   0.000000D+00  0.000000D+00  0.000000D+00  0.643743D-01  0.000000D+00
      5   0.000000D+00  0.000000D+00  0.000000D+00  0.000000D+00  0.000000D+00
      6   0.000000D+00  0.000000D+00  0.000000D+00  0.000000D+00  0.000000D+00
      7   0.000000D+00  0.000000D+00  0.000000D+00 -0.347406D+00  0.000000D+00
      8   0.000000D+00  0.196672D-01  0.195905D-02  0.000000D+00  0.912331D-01
      9   0.000000D+00  0.195905D-02 -0.196672D-01  0.000000D+00 -0.264543D+00
     10   0.000000D+00  0.000000D+00  0.000000D+00  0.000000D+00  0.000000D+00
     11   0.000000D+00  0.000000D+00  0.000000D+00  0.000000D+00  0.000000D+00
     12   0.000000D+00  0.000000D+00  0.000000D+00  0.000000D+00  0.000000D+00
     13   0.000000D+00  0.000000D+00  0.000000D+00  0.000000D+00  0.000000D+00
     14   0.000000D+00  0.000000D+00  0.000000D+00  0.000000D+00  0.000000D+00
     15   0.000000D+00 -0.163038D-01  0.163675D+00  0.000000D+00 -0.243636D+00
     16   0.000000D+00  0.163675D+00  0.163038D-01  0.000000D+00 -0.840229D-01
               311           312           313           314           315 
      1  -0.722513D+02 -0.722193D+02 -0.721728D+02 -0.721728D+02 -0.721030D+02
      2   0.000000D+00  0.000000D+00 -0.133826D-01  0.674105D-01  0.000000D+00
      3   0.000000D+00  0.000000D+00  0.674105D-01  0.133826D-01  0.000000D+00
      4   0.000000D+00  0.000000D+00  0.000000D+00  0.000000D+00 -0.228946D-01
      5   0.000000D+00  0.000000D+00  0.505033D-01 -0.254394D+00  0.000000D+00
      6   0.000000D+00  0.000000D+00 -0.254394D+00 -0.505033D-01  0.000000D+00
      7   0.000000D+00  0.000000D+00  0.000000D+00  0.000000D+00  0.926194D-01
      8   0.264543D+00  0.000000D+00  0.000000D+00  0.000000D+00  0.000000D+00
      9   0.912331D-01  0.000000D+00  0.000000D+00  0.000000D+00  0.000000D+00
     10   0.000000D+00  0.000000D+00  0.000000D+00  0.000000D+00  0.000000D+00
     11   0.000000D+00  0.128160D+00  0.000000D+00  0.000000D+00  0.000000D+00
     12   0.000000D+00  0.128160D+00  0.000000D+00  0.000000D+00  0.000000D+00
     13   0.000000D+00 -0.728326D+00  0.000000D+00  0.000000D+00  0.000000D+00
     14   0.000000D+00  0.000000D+00  0.000000D+00  0.000000D+00  0.000000D+00
     15   0.840229D-01  0.000000D+00  0.000000D+00  0.000000D+00  0.000000D+00
     16  -0.243636D+00  0.000000D+00  0.000000D+00  0.000000D+00  0.000000D+00
               316           317           318           319           320 
      1  -0.720401D+02 -0.720188D+02 -0.720188D+02 -0.720180D+02 -0.718445D+02
      2   0.000000D+00  0.000000D+00  0.000000D+00  0.000000D+00  0.000000D+00
      3   0.000000D+00  0.000000D+00  0.000000D+00  0.000000D+00  0.000000D+00
      4   0.000000D+00  0.000000D+00  0.000000D+00  0.549529D-02 -0.719241D-01
      5   0.000000D+00  0.000000D+00  0.000000D+00  0.000000D+00  0.000000D+00
      6   0.000000D+00  0.000000D+00  0.000000D+00  0.000000D+00  0.000000D+00
      7   0.000000D+00  0.000000D+00  0.000000D+00 -0.206085D-01  0.365617D+00
      8   0.000000D+00  0.654677D-01  0.248228D-01  0.000000D+00  0.000000D+00
      9   0.000000D+00  0.248228D-01 -0.654677D-01  0.000000D+00  0.000000D+00
     10   0.000000D+00  0.000000D+00  0.000000D+00  0.000000D+00  0.000000D+00
     11   0.476680D-01  0.000000D+00  0.000000D+00  0.000000D+00  0.000000D+00
     12   0.476680D-01  0.000000D+00  0.000000D+00  0.000000D+00  0.000000D+00
     13   0.648335D+00  0.000000D+00  0.000000D+00  0.000000D+00  0.000000D+00
     14   0.000000D+00  0.000000D+00  0.000000D+00  0.000000D+00  0.000000D+00
     15   0.000000D+00 -0.703305D-02  0.185490D-01  0.000000D+00  0.000000D+00
     16   0.000000D+00  0.185490D-01  0.703305D-02  0.000000D+00  0.000000D+00
               321           322           323           324           325 
      1  -0.716882D+02 -0.716882D+02 -0.714651D+02 -0.713962D+02 -0.712064D+02
      2   0.666604D-02 -0.540619D-02  0.000000D+00  0.000000D+00  0.000000D+00
      3   0.540619D-02  0.666604D-02  0.000000D+00  0.000000D+00  0.000000D+00
      4   0.000000D+00  0.000000D+00  0.000000D+00 -0.232260D-01  0.000000D+00
      5  -0.288475D-02  0.233954D-02  0.000000D+00  0.000000D+00  0.000000D+00
      6  -0.233954D-02 -0.288475D-02  0.000000D+00  0.000000D+00  0.000000D+00
      7   0.000000D+00  0.000000D+00  0.000000D+00  0.201729D+00  0.000000D+00
      8   0.000000D+00  0.000000D+00  0.000000D+00  0.000000D+00  0.000000D+00
      9   0.000000D+00  0.000000D+00  0.000000D+00  0.000000D+00  0.000000D+00
     10   0.000000D+00  0.000000D+00  0.000000D+00  0.000000D+00  0.000000D+00
     11   0.000000D+00  0.000000D+00 -0.194117D+00  0.000000D+00  0.896154D-02
     12   0.000000D+00  0.000000D+00 -0.194117D+00  0.000000D+00  0.896154D-02
     13   0.000000D+00  0.000000D+00  0.575937D-01  0.000000D+00  0.746641D+00
     14   0.000000D+00  0.000000D+00  0.000000D+00  0.000000D+00  0.000000D+00
     15   0.000000D+00  0.000000D+00  0.000000D+00  0.000000D+00  0.000000D+00
     16   0.000000D+00  0.000000D+00  0.000000D+00  0.000000D+00  0.000000D+00
               326           327           328           329           330 
      1  -0.552268D+02 -0.552268D+02 -0.550120D+02 -0.549045D+02 -0.547276D+02
      2  -0.267630D-01 -0.229884D-02  0.000000D+00  0.000000D+00  0.000000D+00
      3   0.229884D-02 -0.267630D-01  0.000000D+00  0.000000D+00  0.000000D+00
      4   0.000000D+00  0.000000D+00  0.000000D+00 -0.134244D-01  0.000000D+00
      5   0.202669D+00  0.174084D-01  0.000000D+00  0.000000D+00  0.000000D+00
      6  -0.174084D-01  0.202669D+00  0.000000D+00  0.000000D+00  0.000000D+00
      7   0.000000D+00  0.000000D+00  0.000000D+00  0.139559D+00  0.000000D+00
      8   0.000000D+00  0.000000D+00  0.000000D+00  0.000000D+00  0.000000D+00
      9   0.000000D+00  0.000000D+00  0.000000D+00  0.000000D+00  0.000000D+00
     10   0.000000D+00  0.000000D+00  0.000000D+00  0.000000D+00  0.000000D+00
     11   0.000000D+00  0.000000D+00 -0.532193D-01  0.000000D+00  0.258062D+00
     12   0.000000D+00  0.000000D+00 -0.532193D-01  0.000000D+00  0.258062D+00
     13   0.000000D+00  0.000000D+00  0.501873D+00  0.000000D+00  0.222503D+00
     14   0.000000D+00  0.000000D+00  0.000000D+00  0.000000D+00  0.000000D+00
     15   0.000000D+00  0.000000D+00  0.000000D+00  0.000000D+00  0.000000D+00
     16   0.000000D+00  0.000000D+00  0.000000D+00  0.000000D+00  0.000000D+00
               331           332           333           334           335 
      1  -0.543970D+02 -0.543970D+02 -0.541776D+02 -0.540693D+02 -0.539001D+02
      2   0.000000D+00  0.000000D+00  0.000000D+00  0.000000D+00  0.000000D+00
      3   0.000000D+00  0.000000D+00  0.000000D+00  0.000000D+00  0.000000D+00
      4   0.000000D+00  0.000000D+00 -0.167948D-01  0.000000D+00 -0.667169D-02
      5   0.000000D+00  0.000000D+00  0.000000D+00  0.000000D+00  0.000000D+00
      6   0.000000D+00  0.000000D+00  0.000000D+00  0.000000D+00  0.000000D+00
      7   0.000000D+00  0.000000D+00  0.208600D+00  0.000000D+00  0.178671D-01
      8   0.305955D-01 -0.194714D+00  0.000000D+00  0.000000D+00  0.000000D+00
      9   0.194714D+00  0.305955D-01  0.000000D+00  0.000000D+00  0.000000D+00
     10   0.000000D+00  0.000000D+00  0.000000D+00  0.000000D+00  0.000000D+00
     11   0.000000D+00  0.000000D+00  0.000000D+00  0.149938D+00  0.000000D+00
     12   0.000000D+00  0.000000D+00  0.000000D+00  0.149938D+00  0.000000D+00
     13   0.000000D+00  0.000000D+00  0.000000D+00  0.549369D+00  0.000000D+00
     14   0.000000D+00  0.000000D+00  0.000000D+00  0.000000D+00  0.000000D+00
     15   0.194833D+00  0.306142D-01  0.000000D+00  0.000000D+00  0.000000D+00
     16  -0.306142D-01  0.194833D+00  0.000000D+00  0.000000D+00  0.000000D+00
 Unable to Open any file for archive entry.
 1\1\GINC-HEL15\SP\RwB97XD TD-FC\def2TZVP\C2H2\PRAKRITI\14-Aug-2021\0\\
 #P TD(Nstates=10000) wB97XD/def2TZVP SCF(maxcycles=100) Int(Grid=ultra
 fine)\\xGDB7_00001_tier4.com\\0,1\C,0,0.,0.,0.597322\C,0,0.,0.,-0.5973
 22\H,0,0.,0.,1.661338\H,0,0.,0.,-1.661338\\Version=EM64L-G16RevC.01\St
 ate=1-SGG\HF=-77.3281632\RMSD=3.971e-09\PG=D*H [C*(H1C1.C1H1)]\\@
 The archive entry for this job was punched.


 IF AT FIRST YOU DON'T SUCCEED, TRY, TRY AGAIN.
 THEN GIVE UP;
 THERE'S NO USE BEING A DAMN FOOL ABOUT IT.

                                 -- W. C. FIELDS
 Job cpu time:       0 days  0 hours  1 minutes 20.9 seconds.
 Elapsed time:       0 days  0 hours  0 minutes 10.4 seconds.
 File lengths (MBytes):  RWF=    151 Int=      0 D2E=      0 Chk=     43 Scr=      1
 Normal termination of Gaussian 16 at Sat Aug 14 06:18:53 2021.
