 Entering Gaussian System, Link 0=g16
 Input=xGDB7_000001_TDDFT.com
 Output=xGDB7_000001_TDDFT.log
 Initial command:
 /home/prakriti/g16/l1.exe "/scratch/prakriti/PBS_7421628.helios/Gau-128944.inp" -scrdir="/scratch/prakriti/PBS_7421628.helios/"
 Entering Link 1 = /home/prakriti/g16/l1.exe PID=    128945.
  
 Copyright (c) 1988-2019, Gaussian, Inc.  All Rights Reserved.
  
 This is part of the Gaussian(R) 16 program.  It is based on
 the Gaussian(R) 09 system (copyright 2009, Gaussian, Inc.),
 the Gaussian(R) 03 system (copyright 2003, Gaussian, Inc.),
 the Gaussian(R) 98 system (copyright 1998, Gaussian, Inc.),
 the Gaussian(R) 94 system (copyright 1995, Gaussian, Inc.),
 the Gaussian 92(TM) system (copyright 1992, Gaussian, Inc.),
 the Gaussian 90(TM) system (copyright 1990, Gaussian, Inc.),
 the Gaussian 88(TM) system (copyright 1988, Gaussian, Inc.),
 the Gaussian 86(TM) system (copyright 1986, Carnegie Mellon
 University), and the Gaussian 82(TM) system (copyright 1983,
 Carnegie Mellon University). Gaussian is a federally registered
 trademark of Gaussian, Inc.
  
 This software contains proprietary and confidential information,
 including trade secrets, belonging to Gaussian, Inc.
  
 This software is provided under written license and may be
 used, copied, transmitted, or stored only in accord with that
 written license.
  
 The following legend is applicable only to US Government
 contracts under FAR:
  
                    RESTRICTED RIGHTS LEGEND
  
 Use, reproduction and disclosure by the US Government is
 subject to restrictions as set forth in subparagraphs (a)
 and (c) of the Commercial Computer Software - Restricted
 Rights clause in FAR 52.227-19.
  
 Gaussian, Inc.
 340 Quinnipiac St., Bldg. 40, Wallingford CT 06492
  
  
 ---------------------------------------------------------------
 Warning -- This program may not be used in any manner that
 competes with the business of Gaussian, Inc. or will provide
 assistance to any competitor of Gaussian, Inc.  The licensee
 of this program is prohibited from giving any competitor of
 Gaussian, Inc. access to this program.  By using this program,
 the user acknowledges that Gaussian, Inc. is engaged in the
 business of creating and licensing software in the field of
 computational chemistry and represents and warrants to the
 licensee that it is not a competitor of Gaussian, Inc. and that
 it will not use this program in any manner prohibited above.
 ---------------------------------------------------------------
  

 Cite this work as:
 Gaussian 16, Revision C.01,
 M. J. Frisch, G. W. Trucks, H. B. Schlegel, G. E. Scuseria, 
 M. A. Robb, J. R. Cheeseman, G. Scalmani, V. Barone, 
 G. A. Petersson, H. Nakatsuji, X. Li, M. Caricato, A. V. Marenich, 
 J. Bloino, B. G. Janesko, R. Gomperts, B. Mennucci, H. P. Hratchian, 
 J. V. Ortiz, A. F. Izmaylov, J. L. Sonnenberg, D. Williams-Young, 
 F. Ding, F. Lipparini, F. Egidi, J. Goings, B. Peng, A. Petrone, 
 T. Henderson, D. Ranasinghe, V. G. Zakrzewski, J. Gao, N. Rega, 
 G. Zheng, W. Liang, M. Hada, M. Ehara, K. Toyota, R. Fukuda, 
 J. Hasegawa, M. Ishida, T. Nakajima, Y. Honda, O. Kitao, H. Nakai, 
 T. Vreven, K. Throssell, J. A. Montgomery, Jr., J. E. Peralta, 
 F. Ogliaro, M. J. Bearpark, J. J. Heyd, E. N. Brothers, K. N. Kudin, 
 V. N. Staroverov, T. A. Keith, R. Kobayashi, J. Normand, 
 K. Raghavachari, A. P. Rendell, J. C. Burant, S. S. Iyengar, 
 J. Tomasi, M. Cossi, J. M. Millam, M. Klene, C. Adamo, R. Cammi, 
 J. W. Ochterski, R. L. Martin, K. Morokuma, O. Farkas, 
 J. B. Foresman, and D. J. Fox, Gaussian, Inc., Wallingford CT, 2019.
 
 ******************************************
 Gaussian 16:  EM64L-G16RevC.01  3-Jul-2019
                14-Aug-2021 
 ******************************************
 %mem=8gb
 %nproc=8
 Will use up to    8 processors via shared memory.
 ----------------------------------------------------------------------
 #P TD(Nstates=10000) wB97XD/def2TZVP SCF(maxcycles=100) Int(Grid=ultra
 fine)
 ----------------------------------------------------------------------
 1/38=1,172=1/1;
 2/12=2,17=6,18=5,40=1/2;
 3/5=44,7=101,11=9,25=1,30=1,74=-58,75=-5/1,2,3,8;
 4//1;
 5/5=2,7=100,38=5/2;
 8/6=1,10=1,108=10000/1;
 9/41=10000,42=1,70=2/14;
 6/7=2,8=2,9=2,10=2/1;
 99/5=1,9=1/99;
 Leave Link    1 at Sat Aug 14 06:22:01 2021, MaxMem=  1073741824 cpu:               0.3 elap:               0.1
 (Enter /home/prakriti/g16/l101.exe)
 ---------------------
 xGDB7_00001_tier4.com
 ---------------------
 Symbolic Z-matrix:
 Charge =  0 Multiplicity = 1
 6                     0.        0.00001   0. 
 1                     0.98523   0.46299  -0.02804 
 1                    -0.05618  -0.68294   0.84631 
 1                    -0.16813  -0.55191  -0.92354 
 1                    -0.76094   0.77183   0.10527 
 
 ITRead=  0  0  0  0  0
 MicOpt= -1 -1 -1 -1 -1
 NAtoms=      5 NQM=        5 NQMF=       0 NMMI=      0 NMMIF=      0
                NMic=       0 NMicF=      0.
                    Isotopes and Nuclear Properties:
 (Nuclear quadrupole moments (NQMom) in fm**2, nuclear magnetic moments (NMagM)
  in nuclear magnetons)

  Atom         1           2           3           4           5
 IAtWgt=          12           1           1           1           1
 AtmWgt=  12.0000000   1.0078250   1.0078250   1.0078250   1.0078250
 NucSpn=           0           1           1           1           1
 AtZEff=  -0.0000000  -0.0000000  -0.0000000  -0.0000000  -0.0000000
 NQMom=    0.0000000   0.0000000   0.0000000   0.0000000   0.0000000
 NMagM=    0.0000000   2.7928460   2.7928460   2.7928460   2.7928460
 AtZNuc=   6.0000000   1.0000000   1.0000000   1.0000000   1.0000000
 Leave Link  101 at Sat Aug 14 06:22:01 2021, MaxMem=  1073741824 cpu:               0.7 elap:               0.1
 (Enter /home/prakriti/g16/l202.exe)
                          Input orientation:                          
 ---------------------------------------------------------------------
 Center     Atomic      Atomic             Coordinates (Angstroms)
 Number     Number       Type             X           Y           Z
 ---------------------------------------------------------------------
      1          6           0        0.000001    0.000006    0.000000
      2          1           0        0.985233    0.462990   -0.028035
      3          1           0       -0.056180   -0.682943    0.846305
      4          1           0       -0.168125   -0.551911   -0.923536
      5          1           0       -0.760937    0.771825    0.105269
 ---------------------------------------------------------------------
                    Distance matrix (angstroms):
                    1          2          3          4          5
     1  C    0.000000
     2  H    1.088955   0.000000
     3  H    1.088948   1.778250   0.000000
     4  H    1.088943   1.778252   1.778212   0.000000
     5  H    1.088950   1.778274   1.778248   1.778241   0.000000
 Stoichiometry    CH4
 Framework group  C1[X(CH4)]
 Deg. of freedom     9
 Full point group                 C1      NOp   1
 Largest Abelian subgroup         C1      NOp   1
 Largest concise Abelian subgroup C1      NOp   1
                         Standard orientation:                         
 ---------------------------------------------------------------------
 Center     Atomic      Atomic             Coordinates (Angstroms)
 Number     Number       Type             X           Y           Z
 ---------------------------------------------------------------------
      1          6           0       -0.000001    0.000006    0.000000
      2          1           0       -0.991926    0.448073    0.033817
      3          1           0        0.066172   -0.671147   -0.854975
      4          1           0        0.176250   -0.561167    0.916416
      5          1           0        0.749514    0.784204   -0.095260
 ---------------------------------------------------------------------
 Rotational constants (GHZ):         158.5824917         158.5804390         158.5768253
 Leave Link  202 at Sat Aug 14 06:22:01 2021, MaxMem=  1073741824 cpu:               0.1 elap:               0.0
 (Enter /home/prakriti/g16/l301.exe)
 Standard basis: def2TZVP (5D, 7F)
 Ernie: Thresh=  0.10000D-02 Tol=  0.10000D-05 Strict=F.
 There are    60 symmetry adapted cartesian basis functions of A   symmetry.
 There are    55 symmetry adapted basis functions of A   symmetry.
    55 basis functions,    83 primitive gaussians,    60 cartesian basis functions
     5 alpha electrons        5 beta electrons
       nuclear repulsion energy        13.4483556150 Hartrees.
 IExCor= 4639 DFT=T Ex+Corr=wB97XD ExCW=0 ScaHFX=  1.000000
 ScaDFX=  1.000000  1.000000  1.000000  1.000000 ScalE2=  1.000000  1.000000
 IRadAn=      5 IRanWt=     -1 IRanGd=            0 ICorTp=0 IEmpDi=121
 HFx  wShort=  0.000000 wLong=  0.200000 cFull=  0.222036 cShort=  0.000000 cLong=  0.777964
 DFx  wShort=  0.000000 wLong=  0.200000 cFull=  0.000000 cShort=  0.000000 cLong=  1.000000
 NAtoms=    5 NActive=    5 NUniq=    5 SFac= 1.00D+00 NAtFMM=   60 NAOKFM=F Big=F
 Integral buffers will be    131072 words long.
 Raffenetti 1 integral format.
 Two-electron integral symmetry is turned on.
 R6Disp:  Grimme-D2 Dispersion energy=       -0.0003954214 Hartrees.
 Nuclear repulsion after empirical dispersion term =       13.4479601936 Hartrees.
 Leave Link  301 at Sat Aug 14 06:22:01 2021, MaxMem=  1073741824 cpu:               0.4 elap:               0.1
 (Enter /home/prakriti/g16/l302.exe)
 NPDir=0 NMtPBC=     1 NCelOv=     1 NCel=       1 NClECP=     1 NCelD=      1
         NCelK=      1 NCelE2=     1 NClLst=     1 CellRange=     0.0.
 One-electron integrals computed using PRISM.
 One-electron integral symmetry used in STVInt
   1 Symmetry operations used in ECPInt.
 ECPInt:  NShTT=     378 NPrTT=    1024 LenC2=     379 LenP2D=     994.
 LDataN:  DoStor=T MaxTD1= 6 Len=  172
 NBasis=    55 RedAO= T EigKep=  1.44D-03  NBF=    55
 NBsUse=    55 1.00D-06 EigRej= -1.00D+00 NBFU=    55
 Precomputing XC quadrature grid using
 IXCGrd= 4 IRadAn=           5 IRanWt=          -1 IRanGd=           0 AccXCQ= 0.00D+00.
 Generated NRdTot=       0 NPtTot=           0 NUsed=           0 NTot=          32
 NSgBfM=    60    60    60    60    60 MxSgAt=     5 MxSgA2=     5.
 Leave Link  302 at Sat Aug 14 06:22:01 2021, MaxMem=  1073741824 cpu:               1.1 elap:               0.2
 (Enter /home/prakriti/g16/l303.exe)
 DipDrv:  MaxL=1.
 Leave Link  303 at Sat Aug 14 06:22:02 2021, MaxMem=  1073741824 cpu:               0.2 elap:               0.0
 (Enter /home/prakriti/g16/l308.exe)
 Leave Link  308 at Sat Aug 14 06:22:02 2021, MaxMem=  1073741824 cpu:               0.2 elap:               0.0
 (Enter /home/prakriti/g16/l401.exe)
 ExpMin= 9.52D-02 ExpMax= 1.36D+04 ExpMxC= 4.63D+02 IAcc=3 IRadAn=         5 AccDes= 0.00D+00
 Harris functional with IExCor= 4639 and IRadAn=       5 diagonalized for initial guess.
 HarFok:  IExCor= 4639 AccDes= 0.00D+00 IRadAn=         5 IDoV= 1 UseB2=F ITyADJ=14
 ICtDFT=  3500011 ScaDFX=  1.000000  1.000000  1.000000  1.000000
 FoFCou: FMM=F IPFlag=           0 FMFlag=      100000 FMFlg1=           0
         NFxFlg=           0 DoJE=T BraDBF=F KetDBF=T FulRan=T
         wScrn=  0.000000 ICntrl=       500 IOpCl=  0 I1Cent=   200000004 NGrid=           0
         NMat0=    1 NMatS0=      1 NMatT0=    0 NMatD0=    1 NMtDS0=    0 NMtDT0=    0
 Petite list used in FoFCou.
 Harris En= -38.2744865560261    
 JPrj=0 DoOrth=F DoCkMO=F.
 Leave Link  401 at Sat Aug 14 06:22:02 2021, MaxMem=  1073741824 cpu:               2.2 elap:               0.3
 (Enter /home/prakriti/g16/l502.exe)
 Keep R1 ints in memory in canonical form, NReq=9542132.
 FoFCou: FMM=F IPFlag=           0 FMFlag=           0 FMFlg1=           0
         NFxFlg=           0 DoJE=F BraDBF=F KetDBF=F FulRan=T
         wScrn=  0.000000 ICntrl=       600 IOpCl=  0 I1Cent=           0 NGrid=           0
         NMat0=    1 NMatS0=   1540 NMatT0=    0 NMatD0=    1 NMtDS0=    0 NMtDT0=    0
 Symmetry not used in FoFCou.
 Two-electron integral symmetry not used.
 Closed shell SCF:
 Using DIIS extrapolation, IDIIS=  1040.
 NGot=  1073741824 LenX=  1071360126 LenY=  1071356085
 Requested convergence on RMS density matrix=1.00D-08 within 100 cycles.
 Requested convergence on MAX density matrix=1.00D-06.
 Requested convergence on             energy=1.00D-06.
 No special actions if energy rises.
 Integral accuracy reduced to 1.0D-05 until final iterations.

 Cycle   1  Pass 0  IDiag  1:
 E= -40.4937651315782    
 DIIS: error= 9.25D-02 at cycle   1 NSaved=   1.
 NSaved= 1 IEnMin= 1 EnMin= -40.4937651315782     IErMin= 1 ErrMin= 9.25D-02
 ErrMax= 9.25D-02  0.00D+00 EMaxC= 1.00D-01 BMatC= 9.17D-02 BMatP= 9.17D-02
 IDIUse=3 WtCom= 7.53D-02 WtEn= 9.25D-01
 Coeff-Com:  0.100D+01
 Coeff-En:   0.100D+01
 Coeff:      0.100D+01
 Gap=     0.568 Goal=   None    Shift=    0.000
 GapD=    0.568 DampG=2.000 DampE=0.500 DampFc=1.0000 IDamp=-1.
 RMSDP=2.29D-03 MaxDP=3.15D-02              OVMax= 7.05D-02

 Cycle   2  Pass 0  IDiag  1:
 E= -40.5096364165877     Delta-E=       -0.015871285010 Rises=F Damp=F
 DIIS: error= 1.96D-02 at cycle   2 NSaved=   2.
 NSaved= 2 IEnMin= 2 EnMin= -40.5096364165877     IErMin= 2 ErrMin= 1.96D-02
 ErrMax= 1.96D-02  0.00D+00 EMaxC= 1.00D-01 BMatC= 1.00D-02 BMatP= 9.17D-02
 IDIUse=3 WtCom= 8.04D-01 WtEn= 1.96D-01
 Coeff-Com:  0.172D+00 0.828D+00
 Coeff-En:   0.144D+00 0.856D+00
 Coeff:      0.166D+00 0.834D+00
 Gap=     0.622 Goal=   None    Shift=    0.000
 RMSDP=1.28D-03 MaxDP=2.51D-02 DE=-1.59D-02 OVMax= 4.04D-02

 Cycle   3  Pass 0  IDiag  1:
 E= -40.5171399974259     Delta-E=       -0.007503580838 Rises=F Damp=F
 DIIS: error= 9.18D-03 at cycle   3 NSaved=   3.
 NSaved= 3 IEnMin= 3 EnMin= -40.5171399974259     IErMin= 3 ErrMin= 9.18D-03
 ErrMax= 9.18D-03  0.00D+00 EMaxC= 1.00D-01 BMatC= 2.40D-03 BMatP= 1.00D-02
 IDIUse=3 WtCom= 9.08D-01 WtEn= 9.18D-02
 Coeff-Com:  0.236D-01 0.334D+00 0.643D+00
 Coeff-En:   0.000D+00 0.813D-01 0.919D+00
 Coeff:      0.214D-01 0.311D+00 0.668D+00
 Gap=     0.605 Goal=   None    Shift=    0.000
 RMSDP=4.48D-04 MaxDP=7.91D-03 DE=-7.50D-03 OVMax= 1.39D-02

 Cycle   4  Pass 0  IDiag  1:
 E= -40.5192756013758     Delta-E=       -0.002135603950 Rises=F Damp=F
 DIIS: error= 5.10D-04 at cycle   4 NSaved=   4.
 NSaved= 4 IEnMin= 4 EnMin= -40.5192756013758     IErMin= 4 ErrMin= 5.10D-04
 ErrMax= 5.10D-04  0.00D+00 EMaxC= 1.00D-01 BMatC= 9.61D-06 BMatP= 2.40D-03
 IDIUse=3 WtCom= 9.95D-01 WtEn= 5.10D-03
 Coeff-Com: -0.411D-02-0.649D-01-0.568D-01 0.113D+01
 Coeff-En:   0.000D+00 0.000D+00 0.000D+00 0.100D+01
 Coeff:     -0.409D-02-0.645D-01-0.565D-01 0.113D+01
 Gap=     0.606 Goal=   None    Shift=    0.000
 RMSDP=4.95D-05 MaxDP=7.04D-04 DE=-2.14D-03 OVMax= 8.79D-04

 Cycle   5  Pass 0  IDiag  1:
 E= -40.5192851427321     Delta-E=       -0.000009541356 Rises=F Damp=F
 DIIS: error= 2.75D-05 at cycle   5 NSaved=   5.
 NSaved= 5 IEnMin= 5 EnMin= -40.5192851427321     IErMin= 5 ErrMin= 2.75D-05
 ErrMax= 2.75D-05  0.00D+00 EMaxC= 1.00D-01 BMatC= 3.40D-08 BMatP= 9.61D-06
 IDIUse=1 WtCom= 1.00D+00 WtEn= 0.00D+00
 Coeff-Com:  0.417D-04 0.834D-03-0.469D-02-0.148D+00 0.115D+01
 Coeff:      0.417D-04 0.834D-03-0.469D-02-0.148D+00 0.115D+01
 Gap=     0.606 Goal=   None    Shift=    0.000
 RMSDP=1.28D-05 MaxDP=9.64D-05 DE=-9.54D-06 OVMax= 1.31D-04

 Cycle   6  Pass 0  IDiag  1:
 E= -40.5192852237128     Delta-E=       -0.000000080981 Rises=F Damp=F
 DIIS: error= 3.75D-06 at cycle   6 NSaved=   6.
 NSaved= 6 IEnMin= 6 EnMin= -40.5192852237128     IErMin= 6 ErrMin= 3.75D-06
 ErrMax= 3.75D-06  0.00D+00 EMaxC= 1.00D-01 BMatC= 2.81D-10 BMatP= 3.40D-08
 IDIUse=1 WtCom= 1.00D+00 WtEn= 0.00D+00
 Coeff-Com:  0.683D-05 0.200D-03 0.103D-02 0.213D-01-0.245D+00 0.122D+01
 Coeff:      0.683D-05 0.200D-03 0.103D-02 0.213D-01-0.245D+00 0.122D+01
 Gap=     0.606 Goal=   None    Shift=    0.000
 RMSDP=2.24D-06 MaxDP=1.85D-05 DE=-8.10D-08 OVMax= 1.57D-05

 Initial convergence to 1.0D-05 achieved.  Increase integral accuracy.
 Cycle   7  Pass 1  IDiag  1:
 E= -40.5192767642098     Delta-E=        0.000008459503 Rises=F Damp=F
 DIIS: error= 3.41D-05 at cycle   1 NSaved=   1.
 NSaved= 1 IEnMin= 1 EnMin= -40.5192767642098     IErMin= 1 ErrMin= 3.41D-05
 ErrMax= 3.41D-05  0.00D+00 EMaxC= 1.00D-01 BMatC= 4.42D-08 BMatP= 4.42D-08
 IDIUse=1 WtCom= 1.00D+00 WtEn= 0.00D+00
 Coeff-Com:  0.100D+01
 Coeff:      0.100D+01
 Gap=     0.606 Goal=   None    Shift=    0.000
 RMSDP=2.24D-06 MaxDP=1.85D-05 DE= 8.46D-06 OVMax= 4.11D-05

 Cycle   8  Pass 1  IDiag  1:
 E= -40.5192767938815     Delta-E=       -0.000000029672 Rises=F Damp=F
 DIIS: error= 4.13D-06 at cycle   2 NSaved=   2.
 NSaved= 2 IEnMin= 2 EnMin= -40.5192767938815     IErMin= 2 ErrMin= 4.13D-06
 ErrMax= 4.13D-06  0.00D+00 EMaxC= 1.00D-01 BMatC= 5.11D-10 BMatP= 4.42D-08
 IDIUse=1 WtCom= 1.00D+00 WtEn= 0.00D+00
 Coeff-Com: -0.571D-01 0.106D+01
 Coeff:     -0.571D-01 0.106D+01
 Gap=     0.606 Goal=   None    Shift=    0.000
 RMSDP=2.83D-07 MaxDP=3.86D-06 DE=-2.97D-08 OVMax= 1.06D-05

 Cycle   9  Pass 1  IDiag  1:
 E= -40.5192767943449     Delta-E=       -0.000000000463 Rises=F Damp=F
 DIIS: error= 1.89D-06 at cycle   3 NSaved=   3.
 NSaved= 3 IEnMin= 3 EnMin= -40.5192767943449     IErMin= 3 ErrMin= 1.89D-06
 ErrMax= 1.89D-06  0.00D+00 EMaxC= 1.00D-01 BMatC= 1.02D-10 BMatP= 5.11D-10
 IDIUse=1 WtCom= 1.00D+00 WtEn= 0.00D+00
 Coeff-Com: -0.263D-01 0.330D+00 0.697D+00
 Coeff:     -0.263D-01 0.330D+00 0.697D+00
 Gap=     0.606 Goal=   None    Shift=    0.000
 RMSDP=1.08D-07 MaxDP=1.89D-06 DE=-4.63D-10 OVMax= 3.73D-06

 Cycle  10  Pass 1  IDiag  1:
 E= -40.5192767944394     Delta-E=       -0.000000000094 Rises=F Damp=F
 DIIS: error= 4.78D-07 at cycle   4 NSaved=   4.
 NSaved= 4 IEnMin= 4 EnMin= -40.5192767944394     IErMin= 4 ErrMin= 4.78D-07
 ErrMax= 4.78D-07  0.00D+00 EMaxC= 1.00D-01 BMatC= 5.20D-12 BMatP= 1.02D-10
 IDIUse=1 WtCom= 1.00D+00 WtEn= 0.00D+00
 Coeff-Com: -0.211D-03-0.228D-01 0.139D+00 0.884D+00
 Coeff:     -0.211D-03-0.228D-01 0.139D+00 0.884D+00
 Gap=     0.606 Goal=   None    Shift=    0.000
 RMSDP=3.40D-08 MaxDP=4.46D-07 DE=-9.45D-11 OVMax= 1.20D-06

 Cycle  11  Pass 1  IDiag  1:
 E= -40.5192767944458     Delta-E=       -0.000000000006 Rises=F Damp=F
 DIIS: error= 7.50D-08 at cycle   5 NSaved=   5.
 NSaved= 5 IEnMin= 5 EnMin= -40.5192767944458     IErMin= 5 ErrMin= 7.50D-08
 ErrMax= 7.50D-08  0.00D+00 EMaxC= 1.00D-01 BMatC= 1.50D-13 BMatP= 5.20D-12
 IDIUse=1 WtCom= 1.00D+00 WtEn= 0.00D+00
 Coeff-Com:  0.152D-02-0.211D-01-0.280D-01 0.784D-01 0.969D+00
 Coeff:      0.152D-02-0.211D-01-0.280D-01 0.784D-01 0.969D+00
 Gap=     0.606 Goal=   None    Shift=    0.000
 RMSDP=1.09D-08 MaxDP=8.54D-08 DE=-6.40D-12 OVMax= 2.62D-07

 Cycle  12  Pass 1  IDiag  1:
 E= -40.5192767944461     Delta-E=       -0.000000000000 Rises=F Damp=F
 DIIS: error= 8.32D-09 at cycle   6 NSaved=   6.
 NSaved= 6 IEnMin= 6 EnMin= -40.5192767944461     IErMin= 6 ErrMin= 8.32D-09
 ErrMax= 8.32D-09  0.00D+00 EMaxC= 1.00D-01 BMatC= 2.55D-15 BMatP= 1.50D-13
 IDIUse=1 WtCom= 1.00D+00 WtEn= 0.00D+00
 Coeff-Com:  0.145D-04 0.784D-03-0.497D-02-0.288D-01-0.143D-01 0.105D+01
 Coeff:      0.145D-04 0.784D-03-0.497D-02-0.288D-01-0.143D-01 0.105D+01
 Gap=     0.606 Goal=   None    Shift=    0.000
 RMSDP=3.05D-09 MaxDP=2.82D-08 DE=-2.70D-13 OVMax= 5.61D-08

 SCF Done:  E(RwB97XD) =  -40.5192767944     A.U. after   12 cycles
            NFock= 12  Conv=0.30D-08     -V/T= 2.0067
 KE= 4.025115513123D+01 PE=-1.201397451952D+02 EE= 2.592135307594D+01
 Leave Link  502 at Sat Aug 14 06:22:03 2021, MaxMem=  1073741824 cpu:              10.5 elap:               1.3
 (Enter /home/prakriti/g16/l801.exe)
 DoSCS=F DFT=T ScalE2(SS,OS)=  1.000000  1.000000
 ExpMin= 9.52D-02 ExpMax= 1.36D+04 ExpMxC= 4.63D+02 IAcc=3 IRadAn=         5 AccDes= 0.00D+00
 HarFok:  IExCor=  205 AccDes= 0.00D+00 IRadAn=         5 IDoV=-2 UseB2=F ITyADJ=14
 ICtDFT= 12500011 ScaDFX=  1.000000  1.000000  1.000000  1.000000
 Largest valence mixing into a core orbital is  6.12D-05
 Largest core mixing into a valence orbital is  8.49D-06
 Range of M.O.s used for correlation:     2    55
 NBasis=    55 NAE=     5 NBE=     5 NFC=     1 NFV=     0
 NROrb=     54 NOA=     4 NOB=     4 NVA=    50 NVB=    50

 **** Warning!!: The largest alpha MO coefficient is  0.15155694D+02

 Leave Link  801 at Sat Aug 14 06:22:03 2021, MaxMem=  1073741824 cpu:               0.5 elap:               0.1
 (Enter /home/prakriti/g16/l914.exe)
 RHF ground state
 Keep R1, R2, and R3 ints in memory in canonical form, NReq=83939144.
 FoFCou: FMM=F IPFlag=           0 FMFlag=           0 FMFlg1=           0
         NFxFlg=           0 DoJE=F BraDBF=F KetDBF=F FulRan=T
         wScrn=  0.000000 ICntrl=       600 IOpCl=  0 I1Cent=           0 NGrid=           0
         NMat0=    1 NMatS0=   1540 NMatT0=    0 NMatD0=    1 NMtDS0=    0 NMtDT0=    0
 Symmetry not used in FoFCou.
 Two-electron integral symmetry not used.
 MDV=  1073741824 DFT=T DoStab=F Mixed=T DoRPA=T DoScal=F NonHer=T
 Making orbital integer symmetry assigments:
 Orbital symmetries:
       Occupied  (A) (A) (A) (A) (A)
       Virtual   (A) (A) (A) (A) (A) (A) (A) (A) (A) (A) (A) (A)
                 (A) (A) (A) (A) (A) (A) (A) (A) (A) (A) (A) (A)
                 (A) (A) (A) (A) (A) (A) (A) (A) (A) (A) (A) (A)
                 (A) (A) (A) (A) (A) (A) (A) (A) (A) (A) (A) (A)
                 (A) (A)
   200 initial guesses have been made.
 Convergence on wavefunction:    0.001000000000000
 Davidson Disk Diagonalization:  ConvIn= 1.00D-03 SkipCon=T Conv= 1.00D-03.
 Max sub-space:  1200 roots to seek:   400 dimension of matrix:          400
 *** WARNING: Number of orthogonal guesses is          200
 Iteration     1 Dimension   200 NMult     0 NNew    200
 CISAX will form   200 AO SS matrices at one time.
 NMat=   200 NSing=   200 JSym2X= 0.
 New state      5 was old state      6
 New state      6 was old state     12
 New state      7 was old state     11
 New state      8 was old state      9
 New state      9 was old state      5
 New state     11 was old state      7
 New state     12 was old state     13
 New state     13 was old state     19
 New state     14 was old state     17
 New state     15 was old state     16
 New state     16 was old state     15
 New state     17 was old state     18
 New state     18 was old state     14
 New state     19 was old state     21
 New state     21 was old state     22
 New state     22 was old state     29
 New state     29 was old state     30
 New state     30 was old state     32
 New state     31 was old state     34
 New state     32 was old state     33
 New state     33 was old state     35
 New state     34 was old state     31
 New state     35 was old state     37
 New state     37 was old state     38
 New state     38 was old state     39
 New state     39 was old state     40
 New state     40 was old state     41
 New state     41 was old state     42
 New state     42 was old state     43
 New state     43 was old state     50
 New state     45 was old state     48
 New state     46 was old state     47
 New state     47 was old state     45
 New state     48 was old state     46
 New state     50 was old state     54
 New state     54 was old state     61
 New state     58 was old state     62
 New state     59 was old state     58
 New state     60 was old state     63
 New state     61 was old state     59
 New state     62 was old state     60
 New state     63 was old state     64
 No map to state     64
 No map to state     65
 New state     69 was old state     73
 New state     70 was old state     80
 New state     71 was old state     77
 New state     72 was old state     76
 New state     73 was old state     74
 New state     74 was old state     75
 New state     75 was old state     78
 New state     76 was old state     79
 New state     77 was old state     69
 New state     78 was old state     70
 New state     79 was old state     71
 New state     80 was old state     83
 New state     81 was old state     86
 New state     82 was old state     89
 New state     83 was old state     81
 New state     84 was old state     87
 New state     86 was old state     82
 New state     87 was old state     84
 New state     89 was old state     72
 New state     90 was old state     91
 New state     91 was old state     92
 New state     92 was old state     93
 New state     93 was old state     90
 New state     94 was old state     95
 New state     95 was old state     94
 New state     98 was old state     99
 New state     99 was old state     98
 New state    100 was old state    103
 New state    101 was old state    107
 New state    102 was old state    106
 New state    103 was old state    104
 New state    104 was old state    108
 New state    105 was old state    102
 New state    106 was old state    101
 New state    107 was old state    100
 New state    108 was old state    105
 New state    110 was old state    114
 New state    111 was old state    110
 New state    112 was old state    113
 New state    113 was old state    115
 New state    114 was old state    112
 New state    115 was old state    116
 New state    116 was old state    117
 New state    117 was old state    111
 New state    123 was old state    124
 New state    124 was old state    126
 New state    125 was old state    123
 New state    126 was old state    127
 New state    127 was old state    125
 New state    128 was old state    131
 New state    129 was old state    128
 New state    130 was old state    129
 New state    131 was old state    130
 New state    132 was old state    137
 New state    133 was old state    134
 New state    134 was old state    136
 New state    135 was old state    133
 New state    136 was old state    135
 New state    137 was old state    132
 New state    138 was old state    139
 New state    139 was old state    138
 New state    146 was old state    148
 New state    147 was old state    149
 New state    148 was old state    147
 New state    149 was old state    150
 New state    150 was old state    146
 New state    157 was old state    158
 New state    158 was old state    164
 New state    159 was old state    163
 New state    160 was old state    165
 New state    162 was old state    157
 New state    163 was old state    162
 New state    164 was old state    160
 New state    165 was old state    159
 New state    166 was old state    168
 New state    167 was old state    173
 New state    168 was old state    167
 New state    169 was old state    166
 New state    170 was old state    171
 New state    171 was old state    172
 New state    172 was old state    169
 New state    173 was old state    170
 New state    181 was old state    187
 New state    183 was old state    188
 New state    184 was old state    183
 New state    185 was old state    181
 New state    187 was old state    184
 New state    188 was old state    185
 New state    190 was old state    192
 New state    191 was old state    190
 New state    192 was old state    191
 Excitation Energies [eV] at current iteration:
 Root      1 :    11.389161441041870
 Root      2 :    11.389282994350200
 Root      3 :    11.389350978721740
 Root      4 :    13.108392757988820
 Root      5 :    13.108496919193330
 Root      6 :    13.108561665141440
 Root      7 :    13.312802390905010
 Root      8 :    13.312836408007430
 Root      9 :    13.431239038011190
 Root     10 :    13.431278984289740
 Root     11 :    13.431330858506820
 Root     12 :    13.750935562741210
 Root     13 :    14.918473959419430
 Root     14 :    14.918502326050820
 Root     15 :    15.125102172538370
 Root     16 :    15.125132158135050
 Root     17 :    15.125191906067220
 Root     18 :    15.672345621657770
 Root     19 :    15.672396446910770
 Root     20 :    15.672488026639780
 Root     21 :    16.636779027973440
 Root     22 :    20.184814639118740
 Root     23 :    20.399828036910940
 Root     24 :    20.399948199762450
 Root     25 :    20.400014922567060
 Root     26 :    21.972087892279910
 Root     27 :    21.972119360525900
 Root     28 :    21.972142891985060
 Root     29 :    22.168274914501100
 Root     30 :    22.168513039938570
 Root     31 :    22.168585005237070
 Root     32 :    22.373120580169740
 Root     33 :    22.373167413693950
 Root     34 :    22.922474843807490
 Root     35 :    22.922589776161470
 Root     36 :    22.922745049309520
 Root     37 :    23.863898164388580
 Root     38 :    23.863907275839630
 Root     39 :    23.863915863053260
 Root     40 :    24.391460713190330
 Root     41 :    24.391561276068890
 Root     42 :    24.391568851469040
 Root     43 :    24.831047538707540
 Root     44 :    24.876529659705060
 Root     45 :    24.876749382205740
 Root     46 :    24.876772293821310
 Root     47 :    27.107498532042650
 Root     48 :    27.107634328823500
 Root     49 :    27.107768559855770
 Root     50 :    29.412584310448110
 Root     51 :    31.271629047413740
 Root     52 :    31.271706761445050
 Root     53 :    31.271758983161460
 Root     54 :    32.865020173352690
 Root     55 :    34.029200676729350
 Root     56 :    34.029236492184130
 Root     57 :    34.210449796117190
 Root     58 :    34.210480453993400
 Root     59 :    34.270022551120700
 Root     60 :    34.270175078691710
 Root     61 :    34.270217448997370
 Root     62 :    35.332507083856730
 Root     63 :    35.381938827545530
 Root     64 :    35.381950945175430
 Root     65 :    35.382012346255260
 Root     66 :    43.074724272903070
 Root     67 :    43.074781243405350
 Root     68 :    43.074851671492110
 Root     69 :    48.508013420132570
 Root     70 :    48.508095670545350
 Root     71 :    48.508244293853560
 Root     72 :    49.036083812872950
 Root     73 :    49.036139706897890
 Root     74 :    49.107178458199190
 Root     75 :    49.107361123999100
 Root     76 :    49.107539303721170
 Root     77 :    49.287230913502890
 Root     78 :    49.287401161103220
 Root     79 :    49.287530228269480
 Root     80 :    50.767400434646220
 Root     81 :    50.767444446596710
 Root     82 :    50.767770880268410
 Root     83 :    50.907008695723780
 Root     84 :    51.056164603933560
 Root     85 :    51.056217959635800
 Root     86 :    51.116631248075610
 Root     87 :    51.117021200493520
 Root     88 :    51.117206056159260
 Root     89 :    52.194973237357460
 Root     90 :    57.551444080559440
 Root     91 :    57.551599445411090
 Root     92 :    57.551856430923390
 Root     93 :    58.921569954403450
 Root     94 :    59.221404464962910
 Root     95 :    59.221602285122330
 Root     96 :    59.222131307737970
 Root     97 :    62.555875832718320
 Root     98 :    62.555928597610840
 Root     99 :    62.556019247031680
 Root    100 :    62.942505535702780
 Root    101 :    62.944014898696640
 Root    102 :    62.944276530054970
 Root    103 :    63.122490265877400
 Root    104 :    63.278215381169350
 Root    105 :    63.278406818089000
 Root    106 :    63.403399990711950
 Root    107 :    63.403766423206840
 Root    108 :    63.404072719983350
 Root    109 :    69.762493830234930
 Root    110 :    69.762597621032370
 Root    111 :    69.782711449205240
 Root    112 :    69.783038299912920
 Root    113 :    69.783178365158290
 Root    114 :    70.026355102542060
 Root    115 :    70.026384986033120
 Root    116 :    70.026477002016970
 Root    117 :    70.402883443025370
 Root    118 :    70.951467961829000
 Root    119 :    71.468488612879180
 Root    120 :    71.468726264457500
 Root    121 :    71.469264921599650
 Root    122 :    74.163362486427720
 Root    123 :    74.163593107455230
 Root    124 :    74.163661369032060
 Root    125 :    74.375967199055640
 Root    126 :    74.376416750674180
 Root    127 :    74.376544149039590
 Root    128 :    77.818073693339290
 Root    129 :    78.288658331716360
 Root    130 :    78.288877121003840
 Root    131 :    78.288918968281510
 Root    132 :    78.847570228554060
 Root    133 :    78.847904309681300
 Root    134 :    78.848185605414970
 Root    135 :    78.959887689241160
 Root    136 :    78.959990359977330
 Root    137 :    79.006483654304060
 Root    138 :    79.006612424255690
 Root    139 :    79.006888537985730
 Root    140 :    82.779504585420270
 Root    141 :    82.779747832101460
 Root    142 :    87.339930270267630
 Root    143 :    87.340050586146250
 Root    144 :    87.340425470372740
 Root    145 :    88.872048936078000
 Root    146 :    88.874065591469820
 Root    147 :    88.874703000814760
 Root    148 :    90.139678065178430
 Root    149 :    90.140456456849360
 Root    150 :    90.140668465582690
 Root    151 :    90.405415466824220
 Root    152 :    90.405513472386200
 Root    153 :    90.405705853958570
 Root    154 :    97.829696346689350
 Root    155 :    97.829973746714770
 Root    156 :    99.065895503819220
 Root    157 :    99.546800977546430
 Root    158 :    99.548081760768230
 Root    159 :    99.548458977886540
 Root    160 :    99.588496627433060
 Root    161 :    99.588916923015590
 Root    162 :    99.775412378335570
 Root    163 :    99.776318087639050
 Root    164 :    99.777658230787520
 Root    165 :    99.902561277121780
 Root    166 :   102.765304890450500
 Root    167 :   103.196692696685000
 Root    168 :   103.196845146743200
 Root    169 :   103.197361885470600
 Root    170 :   103.587156875477000
 Root    171 :   103.587208589982800
 Root    172 :   103.587465931731500
 Root    173 :   103.611183902253800
 Root    174 :   103.611415769590200
 Root    175 :   108.026887838625600
 Root    176 :   108.029461437185000
 Root    177 :   108.029694687760800
 Root    178 :   111.721944637771500
 Root    179 :   111.722170020330400
 Root    180 :   111.722620361068300
 Root    181 :   121.926932466917400
 Root    182 :   122.570323505805100
 Root    183 :   122.570920795541800
 Root    184 :   122.570980996758500
 Root    185 :   122.733302802026800
 Root    186 :   122.735497241958700
 Root    187 :   122.737391405876900
 Root    188 :   123.154334230541600
 Root    189 :   123.154808359978900
 Root    190 :   129.720016261597200
 Root    191 :   129.720228266246700
 Root    192 :   129.720296883196100
 Root    193 :   131.116296098036300
 Root    194 :   131.117512930673000
 Root    195 :   131.118384996495100
 Root    196 :   137.973155693174000
 Root    197 :   611.555624800112200
 Root    198 :   611.555978556032200
 Root    199 :   611.556174240629000
 Root    200 :   621.153923015675200
 Convergence achieved for final wavefunctions.
 ***********************************************************************
 Excited states from <AA,BB:AA,BB> singles matrix:
 ***********************************************************************
 
 1PDM for each excited state written to RWF  633
 Ground to excited state transition densities written to RWF  633
 Ground to excited state transition electric dipole moments (Au):
       state          X           Y           Z        Dip. S.      Osc.
         1        -0.0613      0.1655      0.8685      0.7855      0.2192
         2        -0.0751      0.8665     -0.1704      0.7855      0.2192
         3         0.8810      0.0854      0.0459      0.7855      0.2192
         4         0.0000     -0.0000      0.0002      0.0000      0.0000
         5         0.0000     -0.0000     -0.0001      0.0000      0.0000
         6        -0.0002     -0.0000     -0.0000      0.0000      0.0000
         7        -0.0002      0.0003      0.0003      0.0000      0.0000
         8         0.0004     -0.0005      0.0004      0.0000      0.0000
         9         0.0107     -0.5051     -0.8909      1.0490      0.3452
        10        -0.5036      0.7733     -0.4444      1.0490      0.3452
        11         0.8918      0.4427     -0.2403      1.0490      0.3452
        12        -0.0000      0.0001      0.0000      0.0000      0.0000
        13        -0.0000      0.0000      0.0000      0.0000      0.0000
        14        -0.0000      0.0000     -0.0000      0.0000      0.0000
        15         0.0000     -0.0000      0.0001      0.0000      0.0000
        16        -0.0000      0.0000     -0.0000      0.0000      0.0000
        17         0.0000      0.0000     -0.0000      0.0000      0.0000
        18        -0.0743     -0.2296     -0.7281      0.5884      0.2259
        19         0.1965     -0.7126      0.2047      0.5884      0.2259
        20         0.7377      0.1667     -0.1278      0.5884      0.2259
        21        -0.0000      0.0000      0.0000      0.0000      0.0000
        22         0.0000     -0.0000      0.0000      0.0000      0.0000
        23         0.0170     -0.0512     -0.2525      0.0667      0.0333
        24         0.0353     -0.2502      0.0531      0.0667      0.0333
        25        -0.2552     -0.0380     -0.0095      0.0667      0.0333
        26         0.0776     -0.0631     -0.0940      0.0188      0.0101
        27         0.1040     -0.0054      0.0894      0.0188      0.0101
        28         0.0448      0.1217     -0.0447      0.0188      0.0101
        29        -0.0000      0.0000     -0.0000      0.0000      0.0000
        30        -0.0000     -0.0000     -0.0000      0.0000      0.0000
        31        -0.0001      0.0000     -0.0000      0.0000      0.0000
        32         0.0000     -0.0000     -0.0000      0.0000      0.0000
        33        -0.0000      0.0001     -0.0000      0.0000      0.0000
        34         0.0169      0.0215      0.1637      0.0275      0.0155
        35        -0.0368      0.1609     -0.0174      0.0275      0.0155
        36         0.1610      0.0344     -0.0212      0.0275      0.0155
        37         0.1831      0.2141     -0.2681      0.1512      0.0884
        38        -0.1970     -0.1832     -0.2808      0.1512      0.0884
        39        -0.2809      0.2681      0.0221      0.1512      0.0884
        40        -0.0915      0.0729      0.3053      0.1069      0.0639
        41        -0.2192      0.2128     -0.1164      0.1069      0.0639
        42         0.2247      0.2373      0.0107      0.1069      0.0639
        43         0.0000      0.0001     -0.0000      0.0000      0.0000
        44        -0.0000      0.0000     -0.0001      0.0000      0.0000
        45         0.0001     -0.0000     -0.0000      0.0000      0.0000
        46         0.0000      0.0000      0.0001      0.0000      0.0000
        47        -1.2341      0.4195      0.1523      1.7222      1.1438
        48         0.4184      1.2434     -0.0339      1.7223      1.1438
        49        -0.1551      0.0167     -1.3031      1.7223      1.1438
        50        -0.0000      0.0000     -0.0000      0.0000      0.0000
        51         0.0269     -0.0365     -0.0524      0.0048      0.0037
        52        -0.0521      0.0205     -0.0409      0.0048      0.0037
        53         0.0370      0.0552     -0.0195      0.0048      0.0037
        54         0.0000     -0.0000      0.0000      0.0000      0.0000
        55        -0.0000     -0.0000     -0.0000      0.0000      0.0000
        56         0.0000      0.0000     -0.0000      0.0000      0.0000
        57         0.0000     -0.0000     -0.0000      0.0000      0.0000
        58        -0.0000      0.0000      0.0000      0.0000      0.0000
        59         0.0000     -0.0000      0.0000      0.0000      0.0000
        60         0.0000      0.0000     -0.0000      0.0000      0.0000
        61         0.0000      0.0000      0.0000      0.0000      0.0000
        62         0.0000     -0.0002     -0.0001      0.0000      0.0000
        63         0.0882      0.2934      0.3552      0.2200      0.1907
        64        -0.1215      0.3636     -0.2702      0.2200      0.1907
        65        -0.4444     -0.0411      0.1444      0.2200      0.1907
        66        -0.1909     -0.0240      0.0192      0.0374      0.0394
        67        -0.0246      0.1917     -0.0043      0.0374      0.0394
        68        -0.0185     -0.0067     -0.1923      0.0374      0.0394
        69        -0.0114      0.0088     -0.0357      0.0015      0.0018
        70        -0.0256      0.0249      0.0143      0.0015      0.0018
        71         0.0264      0.0280     -0.0015      0.0015      0.0018
        72         0.0000      0.0000     -0.0000      0.0000      0.0000
        73         0.0000      0.0000      0.0000      0.0000      0.0000
        74         0.0000     -0.0000      0.0000      0.0000      0.0000
        75        -0.0000      0.0000      0.0000      0.0000      0.0000
        76         0.0000     -0.0000     -0.0000      0.0000      0.0000
        77        -0.0047      0.0332      0.1034      0.0118      0.0143
        78        -0.0238      0.1007     -0.0334      0.0118      0.0143
        79         0.1060      0.0242     -0.0029      0.0118      0.0143
        80        -0.0001      0.0001     -0.0001      0.0000      0.0000
        81         0.0000      0.0001      0.0000      0.0000      0.0000
        82        -0.0001      0.0000     -0.0001      0.0000      0.0000
        83        -0.0000      0.0000     -0.0000      0.0000      0.0000
        84         0.0016     -0.0002      0.0019      0.0000      0.0000
        85         0.0009      0.0002     -0.0016      0.0000      0.0000
        86        -0.3515      0.1119      0.0314      0.1370      0.1716
        87         0.1138      0.3114      0.1647      0.1370      0.1716
        88        -0.0234     -0.1660      0.3300      0.1370      0.1716
        89         0.0000      0.0000      0.0000      0.0000      0.0000
        90        -0.0113     -0.0005     -0.2830      0.0802      0.1131
        91         0.0195     -0.2826     -0.0003      0.0802      0.1131
        92        -0.2823     -0.0195      0.0113      0.0802      0.1131
        93        -0.0000     -0.0000     -0.0000      0.0000      0.0000
        94        -0.0000      0.0000     -0.0000      0.0000      0.0000
        95        -0.0000     -0.0000      0.0000      0.0000      0.0000
        96         0.0000      0.0000      0.0000      0.0000      0.0000
        97        -0.0012      0.0138      0.0165      0.0005      0.0007
        98         0.0167      0.0111     -0.0081      0.0005      0.0007
        99        -0.0137      0.0123     -0.0113      0.0005      0.0007
       100         0.0000     -0.0000      0.0000      0.0000      0.0000
       101         0.0000      0.0000     -0.0000      0.0000      0.0000
       102         0.0000      0.0000      0.0000      0.0000      0.0000
       103        -0.0001      0.0000      0.0000      0.0000      0.0000
       104         0.0001     -0.0001      0.0000      0.0000      0.0000
       105        -0.0000     -0.0000     -0.0001      0.0000      0.0000
       106        -0.0027      0.0126      0.0501      0.0027      0.0042
       107         0.0317     -0.0392      0.0116      0.0027      0.0042
       108        -0.0408     -0.0313      0.0057      0.0027      0.0042
       109        -0.0000     -0.0000     -0.0003      0.0000      0.0000
       110        -0.0002     -0.0002     -0.0001      0.0000      0.0000
       111        -0.0325     -0.0368     -0.0018      0.0024      0.0041
       112        -0.0359      0.0312      0.0124      0.0024      0.0041
       113         0.0081     -0.0095      0.0475      0.0024      0.0041
       114         0.0000      0.0000     -0.0000      0.0000      0.0000
       115         0.0000      0.0000      0.0000      0.0000      0.0000
       116         0.0000      0.0000     -0.0000      0.0000      0.0000
       117        -0.0000     -0.0000      0.0000      0.0000      0.0000
       118         0.0000     -0.0000      0.0000      0.0000      0.0000
       119        -0.0022      0.0088      0.0107      0.0002      0.0003
       120        -0.0061      0.0091     -0.0087      0.0002      0.0003
       121         0.0124      0.0060     -0.0024      0.0002      0.0003
       122         0.0467     -0.0131     -0.0329      0.0034      0.0062
       123         0.0329     -0.0042      0.0484      0.0034      0.0062
       124        -0.0132     -0.0570      0.0040      0.0034      0.0062
       125         0.0000      0.0000     -0.0000      0.0000      0.0000
       126         0.0000     -0.0000     -0.0000      0.0000      0.0000
       127         0.0001     -0.0000      0.0000      0.0000      0.0000
       128         0.0000     -0.0000     -0.0000      0.0000      0.0000
       129        -0.0207     -0.0064      0.0050      0.0005      0.0009
       130        -0.0048      0.0207      0.0064      0.0005      0.0009
       131        -0.0065      0.0048     -0.0207      0.0005      0.0009
       132         0.0000      0.0000     -0.0000      0.0000      0.0000
       133        -0.0000      0.0000      0.0000      0.0000      0.0000
       134        -0.0000     -0.0000      0.0000      0.0000      0.0000
       135        -0.0000      0.0001     -0.0002      0.0000      0.0000
       136        -0.0000     -0.0002     -0.0001      0.0000      0.0000
       137        -0.0019     -0.0263     -0.0473      0.0029      0.0057
       138        -0.0193      0.0445     -0.0239      0.0029      0.0057
       139        -0.0505     -0.0160      0.0109      0.0029      0.0057
       140        -0.0000      0.0000      0.0000      0.0000      0.0000
       141         0.0000     -0.0000      0.0000      0.0000      0.0000
       142        -0.0006      0.0025      0.0155      0.0002      0.0005
       143        -0.0054     -0.0146      0.0021      0.0002      0.0005
       144         0.0147     -0.0052      0.0014      0.0002      0.0005
       145         0.0000      0.0000     -0.0000      0.0000      0.0000
       146         0.0000     -0.0000     -0.0000      0.0000      0.0000
       147         0.0000     -0.0000      0.0000      0.0000      0.0000
       148        -0.0308      0.0340      0.0046      0.0021      0.0047
       149         0.0013      0.0074     -0.0456      0.0021      0.0047
       150        -0.0343     -0.0303     -0.0059      0.0021      0.0047
       151         0.0050     -0.0093     -0.0170      0.0004      0.0009
       152         0.0114     -0.0129      0.0103      0.0004      0.0009
       153        -0.0157     -0.0122      0.0020      0.0004      0.0009
       154        -0.0000      0.0000      0.0000      0.0000      0.0000
       155        -0.0000     -0.0000     -0.0000      0.0000      0.0000
       156         0.0000     -0.0000      0.0000      0.0000      0.0000
       157        -0.0000      0.0000     -0.0000      0.0000      0.0000
       158        -0.0001      0.0001     -0.0000      0.0000      0.0000
       159        -0.0001      0.0000     -0.0001      0.0000      0.0000
       160        -0.0001      0.0001     -0.0001      0.0000      0.0000
       161         0.0000      0.0000     -0.0001      0.0000      0.0000
       162        -0.0117      0.0110      0.0065      0.0003      0.0007
       163        -0.0085     -0.0001     -0.0151      0.0003      0.0007
       164        -0.0096     -0.0134      0.0054      0.0003      0.0007
       165         0.0000      0.0000      0.0000      0.0000      0.0000
       166         0.0000     -0.0000     -0.0000      0.0000      0.0000
       167        -0.0000     -0.0000      0.0000      0.0000      0.0000
       168        -0.0000     -0.0000      0.0000      0.0000      0.0000
       169        -0.0000      0.0000     -0.0001      0.0000      0.0000
       170         0.0953      0.0129     -0.0054      0.0093      0.0235
       171         0.0137     -0.0939      0.0165      0.0093      0.0235
       172        -0.0031     -0.0171     -0.0947      0.0093      0.0235
       173        -0.0003      0.0006      0.0000      0.0000      0.0000
       174         0.0000     -0.0005      0.0008      0.0000      0.0000
       175        -0.0000     -0.0000     -0.0000      0.0000      0.0000
       176        -0.0000      0.0000      0.0000      0.0000      0.0000
       177         0.0000      0.0000      0.0000      0.0000      0.0000
       178         0.0269      0.0010     -0.0015      0.0007      0.0020
       179         0.0012     -0.0265      0.0045      0.0007      0.0020
       180        -0.0013     -0.0046     -0.0265      0.0007      0.0020
       181         0.0000     -0.0000      0.0000      0.0000      0.0000
       182        -0.0620      0.0067      0.0031      0.0039      0.0117
       183         0.0035      0.0030      0.0623      0.0039      0.0117
       184         0.0065      0.0621     -0.0033      0.0039      0.0117
       185         0.0000      0.0000      0.0003      0.0000      0.0000
       186         0.0002     -0.0000      0.0001      0.0000      0.0000
       187        -0.0002     -0.0001     -0.0002      0.0000      0.0000
       188        -0.0000     -0.0000     -0.0000      0.0000      0.0000
       189         0.0000     -0.0000      0.0001      0.0000      0.0000
       190         0.0161     -0.0096     -0.0102      0.0005      0.0014
       191         0.0135      0.0068      0.0150      0.0005      0.0014
       192         0.0035      0.0178     -0.0112      0.0005      0.0014
       193         0.0230     -0.0141     -0.0024      0.0007      0.0024
       194         0.0143      0.0226      0.0042      0.0007      0.0024
       195        -0.0002     -0.0049      0.0266      0.0007      0.0024
       196         0.0000     -0.0000     -0.0000      0.0000      0.0000
       197        -0.0019      0.0013      0.0133      0.0002      0.0027
       198        -0.0072      0.0112     -0.0021      0.0002      0.0027
       199         0.0113      0.0074      0.0008      0.0002      0.0027
       200        -0.0000      0.0000     -0.0000      0.0000      0.0000
 Ground to excited state transition velocity dipole moments (Au):
       state          X           Y           Z        Dip. S.      Osc.
         1         0.0257     -0.0693     -0.3638      0.1378      0.2195
         2         0.0315     -0.3629      0.0714      0.1378      0.2195
         3        -0.3690     -0.0358     -0.0192      0.1378      0.2195
         4        -0.0000      0.0000     -0.0001      0.0000      0.0000
         5        -0.0000      0.0000      0.0001      0.0000      0.0000
         6         0.0001      0.0000      0.0000      0.0000      0.0000
         7         0.0001     -0.0001     -0.0001      0.0000      0.0000
         8        -0.0002      0.0002     -0.0002      0.0000      0.0000
         9        -0.0053      0.2527      0.4458      0.2626      0.3547
        10         0.2520     -0.3869      0.2224      0.2626      0.3547
        11        -0.4462     -0.2215      0.1202      0.2627      0.3547
        12         0.0000     -0.0000     -0.0000      0.0000      0.0000
        13         0.0000     -0.0000     -0.0000      0.0000      0.0000
        14         0.0000     -0.0000      0.0000      0.0000      0.0000
        15        -0.0000      0.0000     -0.0000      0.0000      0.0000
        16         0.0000     -0.0000      0.0000      0.0000      0.0000
        17        -0.0000     -0.0000      0.0000      0.0000      0.0000
        18         0.0416      0.1285      0.4073      0.1842      0.2132
        19        -0.1099      0.3987     -0.1145      0.1842      0.2132
        20        -0.4127     -0.0933      0.0715      0.1842      0.2132
        21         0.0000     -0.0000     -0.0000      0.0000      0.0000
        22        -0.0000      0.0000     -0.0000      0.0000      0.0000
        23        -0.0128      0.0386      0.1903      0.0379      0.0337
        24        -0.0266      0.1885     -0.0400      0.0379      0.0337
        25         0.1923      0.0287      0.0071      0.0379      0.0337
        26        -0.0528      0.0429      0.0640      0.0087      0.0072
        27        -0.0708      0.0037     -0.0608      0.0087      0.0072
        28        -0.0305     -0.0829      0.0305      0.0087      0.0072
        29         0.0000     -0.0000      0.0000      0.0000      0.0000
        30         0.0000      0.0000      0.0000      0.0000      0.0000
        31         0.0000     -0.0000      0.0000      0.0000      0.0000
        32        -0.0000      0.0000      0.0000      0.0000      0.0000
        33         0.0000     -0.0000      0.0000      0.0000      0.0000
        34        -0.0171     -0.0217     -0.1652      0.0280      0.0222
        35         0.0371     -0.1624      0.0175      0.0280      0.0222
        36        -0.1624     -0.0348      0.0214      0.0281      0.0222
        37        -0.1460     -0.1706      0.2137      0.0961      0.0730
        38         0.1570      0.1460      0.2238      0.0961      0.0730
        39         0.2239     -0.2137     -0.0177      0.0961      0.0730
        40         0.0896     -0.0714     -0.2992      0.1026      0.0763
        41         0.2148     -0.2085      0.1141      0.1026      0.0763
        42        -0.2201     -0.2325     -0.0105      0.1026      0.0763
        43        -0.0000     -0.0001      0.0000      0.0000      0.0000
        44         0.0000     -0.0000      0.0001      0.0000      0.0000
        45        -0.0000      0.0000      0.0000      0.0000      0.0000
        46        -0.0000     -0.0000     -0.0001      0.0000      0.0000
        47         1.0955     -0.3724     -0.1352      1.3571      0.9082
        48        -0.3714     -1.1038      0.0301      1.3572      0.9082
        49         0.1377     -0.0148      1.1567      1.3572      0.9083
        50         0.0000     -0.0000      0.0000      0.0000      0.0000
        51        -0.0320      0.0434      0.0623      0.0068      0.0039
        52         0.0619     -0.0243      0.0487      0.0068      0.0039
        53        -0.0440     -0.0657      0.0232      0.0068      0.0039
        54        -0.0000      0.0000     -0.0000      0.0000      0.0000
        55         0.0000      0.0000      0.0000      0.0000      0.0000
        56        -0.0000     -0.0000      0.0000      0.0000      0.0000
        57        -0.0000      0.0000      0.0000      0.0000      0.0000
        58         0.0000     -0.0000     -0.0000      0.0000      0.0000
        59        -0.0000      0.0000     -0.0000      0.0000      0.0000
        60        -0.0000     -0.0000      0.0000      0.0000      0.0000
        61        -0.0000     -0.0000     -0.0000      0.0000      0.0000
        62        -0.0001      0.0003      0.0001      0.0000      0.0000
        63        -0.1105     -0.3674     -0.4447      0.3450      0.1769
        64         0.1521     -0.4553      0.3384      0.3450      0.1769
        65         0.5564      0.0515     -0.1808      0.3450      0.1769
        66         0.3016      0.0380     -0.0304      0.0933      0.0393
        67         0.0388     -0.3029      0.0069      0.0933      0.0393
        68         0.0293      0.0106      0.3039      0.0933      0.0393
        69         0.0126     -0.0097      0.0395      0.0018      0.0007
        70         0.0283     -0.0276     -0.0158      0.0018      0.0007
        71        -0.0292     -0.0310      0.0017      0.0018      0.0007
        72         0.0000     -0.0000      0.0000      0.0000      0.0000
        73        -0.0000     -0.0001     -0.0000      0.0000      0.0000
        74        -0.0000      0.0000      0.0000      0.0000      0.0000
        75         0.0000     -0.0000     -0.0000      0.0000      0.0000
        76         0.0000      0.0000      0.0000      0.0000      0.0000
        77         0.0096     -0.0676     -0.2107      0.0491      0.0181
        78         0.0486     -0.2051      0.0681      0.0491      0.0181
        79        -0.2159     -0.0492      0.0059      0.0491      0.0181
        80         0.0002     -0.0002      0.0001      0.0000      0.0000
        81        -0.0000     -0.0001     -0.0000      0.0000      0.0000
        82         0.0002     -0.0001      0.0002      0.0000      0.0000
        83         0.0000     -0.0000      0.0000      0.0000      0.0000
        84        -0.0025      0.0003     -0.0029      0.0000      0.0000
        85        -0.0013     -0.0003      0.0024      0.0000      0.0000
        86         0.5336     -0.1699     -0.0476      0.3159      0.1121
        87        -0.1728     -0.4728     -0.2500      0.3159      0.1121
        88         0.0355      0.2520     -0.5011      0.3159      0.1121
        89        -0.0000     -0.0001     -0.0000      0.0000      0.0000
        90         0.0253      0.0011      0.6322      0.4004      0.1262
        91        -0.0436      0.6312      0.0006      0.4003      0.1262
        92         0.6307      0.0436     -0.0253      0.4003      0.1262
        93         0.0000      0.0001      0.0000      0.0000      0.0000
        94         0.0000     -0.0000      0.0000      0.0000      0.0000
        95         0.0000      0.0000     -0.0000      0.0000      0.0000
        96         0.0000     -0.0000     -0.0001      0.0000      0.0000
        97         0.0029     -0.0337     -0.0403      0.0028      0.0008
        98        -0.0406     -0.0270      0.0197      0.0028      0.0008
        99         0.0333     -0.0300      0.0275      0.0028      0.0008
       100        -0.0000      0.0000     -0.0000      0.0000      0.0000
       101        -0.0000     -0.0001      0.0000      0.0000      0.0000
       102        -0.0001     -0.0000     -0.0000      0.0000      0.0000
       103         0.0001     -0.0001     -0.0000      0.0000      0.0000
       104        -0.0002      0.0003     -0.0000      0.0000      0.0000
       105         0.0001      0.0001      0.0003      0.0000      0.0000
       106         0.0066     -0.0313     -0.1243      0.0165      0.0047
       107        -0.0786      0.0972     -0.0287      0.0165      0.0047
       108         0.1012      0.0776     -0.0142      0.0165      0.0047
       109         0.0000      0.0000      0.0003      0.0000      0.0000
       110         0.0002      0.0003      0.0001      0.0000      0.0000
       111         0.0402      0.0455      0.0022      0.0037      0.0010
       112         0.0444     -0.0385     -0.0153      0.0037      0.0010
       113        -0.0100      0.0117     -0.0587      0.0037      0.0010
       114        -0.0000     -0.0000      0.0000      0.0000      0.0000
       115        -0.0000     -0.0000     -0.0000      0.0000      0.0000
       116        -0.0000     -0.0000     -0.0000      0.0000      0.0000
       117        -0.0000      0.0000     -0.0000      0.0000      0.0000
       118        -0.0000     -0.0000     -0.0000      0.0000      0.0000
       119         0.0035     -0.0140     -0.0171      0.0005      0.0001
       120         0.0097     -0.0146      0.0139      0.0005      0.0001
       121        -0.0198     -0.0096      0.0038      0.0005      0.0001
       122        -0.2176      0.0612      0.1532      0.0745      0.0182
       123        -0.1531      0.0196     -0.2253      0.0746      0.0182
       124         0.0615      0.2654     -0.0186      0.0746      0.0182
       125        -0.0001     -0.0000      0.0000      0.0000      0.0000
       126        -0.0002      0.0000      0.0001      0.0000      0.0000
       127        -0.0004      0.0001     -0.0002      0.0000      0.0000
       128        -0.0000      0.0000     -0.0000      0.0000      0.0000
       129         0.1044      0.0322     -0.0252      0.0126      0.0029
       130         0.0245     -0.1046     -0.0322      0.0126      0.0029
       131         0.0328     -0.0245      0.1044      0.0126      0.0029
       132        -0.0000     -0.0001      0.0001      0.0000      0.0000
       133         0.0000     -0.0000     -0.0000      0.0000      0.0000
       134         0.0001      0.0001     -0.0000      0.0000      0.0000
       135         0.0001     -0.0003      0.0005      0.0000      0.0000
       136         0.0001      0.0005      0.0002      0.0000      0.0000
       137         0.0041      0.0559      0.1006      0.0133      0.0030
       138         0.0411     -0.0948      0.0510      0.0133      0.0030
       139         0.1076      0.0341     -0.0233      0.0133      0.0030
       140        -0.0000     -0.0000      0.0000      0.0000      0.0000
       141         0.0000      0.0000      0.0000      0.0000      0.0000
       142         0.0009     -0.0037     -0.0229      0.0005      0.0001
       143         0.0080      0.0216     -0.0032      0.0005      0.0001
       144        -0.0218      0.0077     -0.0021      0.0005      0.0001
       145        -0.0001     -0.0001      0.0000      0.0000      0.0000
       146        -0.0001      0.0002      0.0000      0.0000      0.0000
       147        -0.0001      0.0000     -0.0002      0.0000      0.0000
       148         0.2847     -0.3141     -0.0427      0.1815      0.0365
       149        -0.0120     -0.0681      0.4205      0.1816      0.0365
       150         0.3168      0.2798      0.0544      0.1816      0.0365
       151        -0.0024      0.0052      0.0086      0.0001      0.0000
       152        -0.0064      0.0069     -0.0052      0.0001      0.0000
       153         0.0081      0.0061     -0.0013      0.0001      0.0000
       154         0.0000     -0.0000     -0.0000      0.0000      0.0000
       155        -0.0000      0.0000      0.0001      0.0000      0.0000
       156        -0.0000      0.0000     -0.0000      0.0000      0.0000
       157        -0.0000     -0.0000      0.0000      0.0000      0.0000
       158         0.0001     -0.0001     -0.0000      0.0000      0.0000
       159         0.0001     -0.0000      0.0001      0.0000      0.0000
       160         0.0002     -0.0001      0.0001      0.0000      0.0000
       161        -0.0000     -0.0001      0.0002      0.0000      0.0000
       162         0.0112     -0.0105     -0.0062      0.0003      0.0000
       163         0.0081      0.0001      0.0144      0.0003      0.0000
       164         0.0091      0.0128     -0.0052      0.0003      0.0000
       165         0.0000     -0.0000      0.0000      0.0000      0.0000
       166        -0.0001      0.0001      0.0000      0.0000      0.0000
       167         0.0000      0.0000     -0.0000      0.0000      0.0000
       168         0.0001      0.0001     -0.0001      0.0000      0.0000
       169         0.0001     -0.0000      0.0005      0.0000      0.0000
       170        -0.4014     -0.0544      0.0229      0.1646      0.0288
       171        -0.0575      0.3956     -0.0696      0.1646      0.0288
       172         0.0130      0.0721      0.3991      0.1646      0.0288
       173         0.0012     -0.0027     -0.0000      0.0000      0.0000
       174        -0.0001      0.0019     -0.0032      0.0000      0.0000
       175         0.0000      0.0000      0.0000      0.0000      0.0000
       176         0.0000      0.0000      0.0000      0.0000      0.0000
       177         0.0000     -0.0000      0.0000      0.0000      0.0000
       178        -0.1184     -0.0043      0.0066      0.0141      0.0023
       179        -0.0053      0.1169     -0.0198      0.0141      0.0023
       180         0.0058      0.0201      0.1168      0.0141      0.0023
       181        -0.0002      0.0002     -0.0000      0.0000      0.0000
       182         0.3023     -0.0326     -0.0152      0.0927      0.0137
       183        -0.0168     -0.0145     -0.3036      0.0927      0.0137
       184        -0.0318     -0.3023      0.0163      0.0927      0.0137
       185        -0.0000     -0.0000     -0.0013      0.0000      0.0000
       186        -0.0008      0.0001     -0.0004      0.0000      0.0000
       187         0.0010      0.0004      0.0010      0.0000      0.0000
       188         0.0001      0.0001      0.0000      0.0000      0.0000
       189        -0.0001      0.0000     -0.0004      0.0000      0.0000
       190        -0.0557      0.0332      0.0352      0.0054      0.0008
       191        -0.0468     -0.0234     -0.0520      0.0054      0.0008
       192        -0.0122     -0.0616      0.0387      0.0054      0.0008
       193        -0.0792      0.0485      0.0084      0.0087      0.0012
       194        -0.0493     -0.0779     -0.0145      0.0087      0.0012
       195         0.0006      0.0168     -0.0918      0.0087      0.0012
       196        -0.0000      0.0000     -0.0000      0.0000      0.0000
       197         0.0204     -0.0143     -0.1466      0.0221      0.0007
       198         0.0796     -0.1234      0.0231      0.0221      0.0007
       199        -0.1239     -0.0817     -0.0093      0.0221      0.0007
       200         0.0000     -0.0000      0.0000      0.0000      0.0000
 Ground to excited state transition magnetic dipole moments (Au):
       state          X           Y           Z
         1        -0.0000     -0.0000      0.0000
         2         0.0000      0.0000      0.0000
         3        -0.0000      0.0000      0.0000
         4         0.5528      0.5730     -0.0692
         5        -0.5508      0.4952     -0.3000
         6        -0.1721      0.2552      0.7375
         7        -0.0000     -0.0003     -0.0001
         8         0.0000     -0.0003      0.0000
         9         0.0002      0.0000     -0.0000
        10         0.0001      0.0001     -0.0001
        11        -0.0000      0.0000      0.0001
        12         0.0000      0.0000     -0.0000
        13        -0.0001      0.0002     -0.0000
        14        -0.0000     -0.0001      0.0000
        15         0.5025      0.0916      0.0232
        16         0.0868     -0.4971      0.0824
        17         0.0373     -0.0770     -0.5042
        18         0.0000      0.0000      0.0000
        19        -0.0000     -0.0000     -0.0000
        20         0.0000     -0.0000      0.0000
        21         0.0000      0.0000     -0.0000
        22        -0.0000      0.0000      0.0000
        23         0.0000      0.0000     -0.0000
        24        -0.0000      0.0000      0.0000
        25        -0.0000     -0.0000     -0.0000
        26        -0.0000      0.0000      0.0000
        27        -0.0000      0.0001      0.0000
        28        -0.0000      0.0000     -0.0001
        29        -0.3394     -0.3824      0.0509
        30        -0.3447      0.2703     -0.2684
        31        -0.1730      0.2115      0.4351
        32         0.0001      0.0002      0.0001
        33        -0.0000      0.0002     -0.0000
        34        -0.0001     -0.0000      0.0000
        35         0.0000      0.0000      0.0000
        36         0.0000      0.0000      0.0001
        37        -0.0000     -0.0000     -0.0000
        38        -0.0000     -0.0000      0.0000
        39         0.0000     -0.0000      0.0000
        40        -0.0001     -0.0000     -0.0000
        41         0.0000      0.0000      0.0001
        42        -0.0000      0.0000     -0.0000
        43        -0.0000      0.0004     -0.0001
        44        -0.5884     -0.4946      0.1792
        45        -0.1450     -0.1060     -0.7686
        46         0.5057     -0.6059     -0.0119
        47         0.0000     -0.0000     -0.0000
        48         0.0000      0.0000     -0.0000
        49         0.0000     -0.0000     -0.0000
        50        -0.0000     -0.0000      0.0000
        51         0.0000      0.0000      0.0000
        52         0.0000      0.0000     -0.0000
        53         0.0000     -0.0000      0.0000
        54        -0.0000      0.0000     -0.0000
        55        -0.0000      0.0000      0.0000
        56         0.0000      0.0001      0.0000
        57        -0.0001      0.0006     -0.0001
        58        -0.0000      0.0004     -0.0001
        59         0.1821      0.2201     -0.0357
        60        -0.1621      0.0991     -0.2164
        61         0.1531     -0.1570     -0.1866
        62        -0.0000      0.0000     -0.0000
        63        -0.0000     -0.0000      0.0000
        64         0.0000      0.0000      0.0000
        65        -0.0000      0.0000     -0.0000
        66        -0.0000      0.0000     -0.0000
        67        -0.0000      0.0000      0.0000
        68         0.0000      0.0000     -0.0000
        69         0.0001     -0.0000     -0.0000
        70        -0.0000      0.0000     -0.0001
        71         0.0000     -0.0000      0.0001
        72        -0.0001     -0.0006     -0.0003
        73        -0.0001      0.0006     -0.0001
        74         0.3924      0.0381     -0.0166
        75         0.0391     -0.3918      0.0255
        76        -0.0140     -0.0270     -0.3934
        77         0.0000      0.0001     -0.0000
        78         0.0000      0.0000     -0.0000
        79         0.0000     -0.0001     -0.0001
        80         0.1396      0.2363      0.4448
        81        -0.1932     -0.4011      0.2738
        82        -0.4651      0.2376      0.0197
        83        -0.0005      0.0009     -0.0000
        84         0.0001     -0.0004      0.0000
        85         0.0000      0.0005      0.0002
        86         0.0001     -0.0002     -0.0002
        87        -0.0000      0.0001     -0.0001
        88        -0.0001      0.0001      0.0002
        89        -0.0000     -0.0000     -0.0000
        90        -0.0001     -0.0000     -0.0000
        91         0.0000      0.0000      0.0000
        92         0.0000     -0.0000      0.0001
        93        -0.0000     -0.0001     -0.0001
        94         0.2581      0.4963     -0.1120
        95        -0.0942     -0.0768     -0.5574
        96        -0.4999      0.2707      0.0472
        97        -0.0001     -0.0000      0.0000
        98        -0.0000      0.0001      0.0001
        99         0.0001     -0.0000     -0.0002
       100         0.3270      0.3301     -0.0464
       101         0.1017     -0.0369      0.4544
       102         0.3177     -0.3284     -0.0977
       103         0.0003     -0.0006      0.0002
       104         0.0001     -0.0001     -0.0000
       105         0.0001     -0.0001      0.0002
       106        -0.0001      0.0001      0.0001
       107        -0.0001      0.0001      0.0002
       108         0.0002     -0.0002      0.0002
       109         0.0001     -0.0002      0.0001
       110        -0.0000     -0.0000     -0.0000
       111         0.0000     -0.0000      0.0001
       112        -0.0000      0.0001     -0.0001
       113        -0.0001      0.0001      0.0000
       114         0.1373      0.1872      0.1815
       115         0.0212     -0.2124      0.2031
       116        -0.2598      0.0816      0.1125
       117        -0.0000      0.0000     -0.0000
       118        -0.0000      0.0000      0.0000
       119         0.0000      0.0000      0.0000
       120        -0.0000     -0.0000      0.0000
       121        -0.0000     -0.0000     -0.0000
       122        -0.0001     -0.0001     -0.0005
       123         0.0002     -0.0002     -0.0004
       124         0.0001     -0.0000      0.0000
       125         0.2355      0.3365     -0.0388
       126         0.2562     -0.1461      0.2885
       127        -0.2217      0.1888      0.2924
       128         0.0000      0.0000     -0.0000
       129         0.0000     -0.0000     -0.0000
       130        -0.0000      0.0000      0.0000
       131         0.0000     -0.0000     -0.0000
       132        -0.1034     -0.0829      0.0051
       133        -0.0825      0.1016     -0.0204
       134        -0.0089      0.0191      0.1308
       135        -0.0000     -0.0001     -0.0001
       136        -0.0000     -0.0001      0.0001
       137        -0.0000      0.0001     -0.0000
       138         0.0000      0.0001      0.0001
       139         0.0000     -0.0001     -0.0001
       140         0.0000      0.0000      0.0000
       141        -0.0000      0.0000      0.0000
       142        -0.0000      0.0000     -0.0000
       143         0.0000      0.0000      0.0000
       144         0.0000     -0.0000     -0.0000
       145         0.0641      0.0759     -0.0086
       146         0.0095      0.0031      0.0991
       147        -0.0757      0.0645      0.0052
       148        -0.0000      0.0000      0.0000
       149         0.0000      0.0000      0.0000
       150        -0.0000      0.0000     -0.0000
       151        -0.0000      0.0000     -0.0000
       152         0.0000      0.0000      0.0000
       153         0.0000      0.0000      0.0000
       154         0.0000     -0.0000      0.0000
       155        -0.0000     -0.0000     -0.0000
       156        -0.0000      0.0000      0.0000
       157        -0.0338     -0.0343      0.0027
       158         0.0087     -0.0049      0.0471
       159        -0.0332      0.0335      0.0097
       160        -0.0003      0.0002     -0.0003
       161         0.0003     -0.0001      0.0005
       162        -0.0000     -0.0000     -0.0002
       163         0.0002     -0.0001     -0.0001
       164        -0.0000     -0.0000      0.0000
       165         0.0000      0.0001      0.0000
       166         0.0000     -0.0000      0.0000
       167         0.0461     -0.0280      0.0031
       168         0.0024      0.0099      0.0531
       169        -0.0280     -0.0452      0.0096
       170         0.0000     -0.0000      0.0000
       171        -0.0000     -0.0000     -0.0000
       172         0.0000      0.0001     -0.0000
       173         0.0000     -0.0000      0.0000
       174        -0.0000     -0.0000      0.0000
       175        -0.0130     -0.0125      0.0025
       176         0.0124     -0.0115      0.0070
       177         0.0032     -0.0067     -0.0167
       178        -0.0000     -0.0000      0.0000
       179         0.0000     -0.0000      0.0000
       180         0.0000      0.0000     -0.0000
       181         0.0000     -0.0000      0.0000
       182         0.0001     -0.0001     -0.0001
       183        -0.0002     -0.0000      0.0001
       184        -0.0000      0.0000     -0.0000
       185         0.0172      0.0210     -0.0025
       186        -0.0024     -0.0013     -0.0271
       187        -0.0209      0.0173      0.0010
       188        -0.0000      0.0000     -0.0000
       189         0.0000     -0.0001     -0.0000
       190         0.0000     -0.0000     -0.0000
       191         0.0000     -0.0000      0.0000
       192         0.0000      0.0000      0.0000
       193        -0.0000      0.0000      0.0000
       194        -0.0000      0.0000     -0.0000
       195        -0.0000      0.0000      0.0000
       196        -0.0000      0.0000      0.0000
       197        -0.0000     -0.0000     -0.0000
       198         0.0000     -0.0000     -0.0000
       199        -0.0000      0.0000      0.0000
       200        -0.0000     -0.0000     -0.0000
 Ground to excited state transition velocity quadrupole moments (Au):
       state          XX          YY          ZZ          XY          XZ          YZ
         1        -0.0944      0.0706      0.0238      0.0539     -0.0811      0.4432
         2        -0.4122     -0.0419      0.4541     -0.1348      0.0744     -0.0227
         3         0.2149     -0.1608     -0.0540     -0.4101     -0.0014      0.0867
         4         0.0000      0.0000     -0.0000      0.0000      0.0000      0.0002
         5         0.0000     -0.0000     -0.0000     -0.0000      0.0000     -0.0001
         6        -0.0001      0.0001      0.0000      0.0001      0.0000     -0.0000
         7        -0.0270      0.0879     -0.0608     -0.0176      0.1091      0.0141
         8         0.0669     -0.1188      0.0519      0.0419      0.0743      0.0239
         9         0.3228     -0.0645     -0.2585      0.0406      0.0853     -0.6706
        10        -0.6825      0.0266      0.6560      0.0800      0.1363     -0.2698
        11         0.0796     -0.2805      0.2009     -0.6905      0.0721     -0.0387
        12        -0.4825     -0.4823     -0.4822     -0.0000      0.0000      0.0000
        13        -0.2100      0.6716     -0.4617     -0.1380      0.7970      0.0992
        14        -0.4887      0.8665     -0.3778     -0.3087     -0.5703     -0.1777
        15        -0.0001      0.0001     -0.0001     -0.0000      0.0000     -0.0000
        16         0.0000      0.0000     -0.0001      0.0000      0.0004      0.0001
        17        -0.0000     -0.0000      0.0000      0.0000     -0.0000     -0.0000
        18        -0.0700      0.0266      0.0435     -0.0234     -0.0520      0.3228
        19        -0.3151     -0.0123      0.3277     -0.0453      0.0570     -0.0498
        20        -0.1146      0.1271     -0.0124      0.3100     -0.0189      0.0026
        21         1.3699      1.3699      1.3699      0.0000      0.0000     -0.0000
        22        -0.8397     -0.8396     -0.8396      0.0000      0.0000     -0.0000
        23        -0.1296      0.0917      0.0379      0.0668     -0.1060      0.5856
        24        -0.5574     -0.0450      0.6024     -0.1497      0.0994     -0.0426
        25         0.2551     -0.2156     -0.0396     -0.5507      0.0039      0.1099
        26         0.5728     -0.2059     -0.3669     -0.3325      0.0638     -0.5264
        27         0.3609     -0.1313     -0.2296     -0.4506     -0.1130      0.5730
        28        -0.4709     -0.1973      0.6682     -0.5082      0.1406     -0.1124
        29        -0.0000     -0.0000      0.0000     -0.0000     -0.0000      0.0000
        30         0.0000      0.0000     -0.0000      0.0001     -0.0000      0.0000
        31        -0.0001      0.0000      0.0001      0.0000      0.0000     -0.0000
        32         0.0114     -0.0366      0.0251      0.0074     -0.0439     -0.0055
        33        -0.0270      0.0478     -0.0208     -0.0170     -0.0310     -0.0098
        34        -0.0141      0.0232     -0.0090     -0.0025     -0.0431      0.2286
        35        -0.2246     -0.0068      0.2315     -0.0373      0.0334      0.0039
        36         0.0833     -0.0881      0.0048     -0.2169      0.0111      0.0068
        37         0.1496      0.2234     -0.3730      0.4806     -0.1447      0.3651
        38        -0.0921     -0.0794      0.1715     -0.3597     -0.0634      0.5791
        39         0.6981     -0.1374     -0.5607     -0.2747     -0.0543     -0.0474
        40        -0.3880      0.2384      0.1496      0.3097     -0.1775      0.9873
        41        -1.0289      0.1322      0.8965      0.3410      0.1726     -0.3620
        42        -0.2750     -0.3345      0.6092     -0.9317      0.0889      0.2485
        43         0.8759      0.8760      0.8761     -0.0001      0.0000     -0.0000
        44         0.0002      0.0002      0.0003     -0.0000      0.0000     -0.0002
        45        -0.0001     -0.0000      0.0000      0.0000      0.0000     -0.0001
        46         0.0003      0.0003      0.0004     -0.0000      0.0000      0.0001
        47        -0.3390      0.1344      0.2047      0.3052      0.0087      0.0179
        48        -0.2742     -0.0868      0.3610     -0.2597      0.0518      0.0665
        49        -0.0306     -0.0460      0.0766     -0.0109      0.0868     -0.4110
        50         0.5856      0.5856      0.5856      0.0000     -0.0000     -0.0000
        51         0.2932     -0.0865     -0.2066     -0.1070      0.0376     -0.3291
        52        -0.2906      0.0636      0.2269      0.2062      0.0697     -0.2681
        53        -0.1714     -0.1320      0.3033     -0.3377      0.0670     -0.0367
        54        -0.3928     -0.3929     -0.3929      0.0000     -0.0000      0.0000
        55         0.6969     -1.4239      0.7270      0.4437      0.1586      0.1431
        56         0.0643      0.2321     -0.2965      0.0344      1.2798      0.2263
        57         0.1448     -0.4840      0.3391      0.0956     -0.6218     -0.0805
[...]
     13   0.765093D-04  0.364381D-03  0.469425D+00 -0.105689D-01  0.771793D-01
     14  -0.244501D-03 -0.332746D-03 -0.132776D-03 -0.819529D-01  0.749037D-02
     15  -0.152546D-04  0.484589D-04  0.142740D-04 -0.768546D-02  0.569922D-02
     16  -0.346199D-04  0.257231D-03 -0.101819D-04 -0.454203D-02 -0.345323D-01
               131           132           133           134           135 
      1  -0.376422D+02 -0.376217D+02 -0.376217D+02 -0.376217D+02 -0.376176D+02
      2   0.641319D-02 -0.222461D-05  0.233309D-04  0.298236D-04  0.360071D-04
      3   0.467241D-02  0.248436D-04  0.640036D-05 -0.231178D-04  0.138349D-03
      4   0.207199D-01  0.230175D-04 -0.201553D-04 -0.136506D-04  0.240139D-03
      5  -0.324261D-01  0.569643D-05 -0.478757D-04 -0.737968D-04 -0.735966D-04
      6  -0.236241D-01 -0.513063D-04 -0.140777D-04  0.577117D-04 -0.277722D-03
      7  -0.104750D+00 -0.595795D-04  0.403642D-04  0.291105D-04 -0.513051D-03
      8  -0.226935D-04  0.104570D+00  0.809625D-01  0.859984D-02  0.302801D-04
      9  -0.541458D-05 -0.813088D-01  0.102569D+00  0.208749D-01 -0.118588D-03
     10   0.121236D-04 -0.612393D-02  0.217469D-01 -0.130539D+00  0.854237D-04
     11  -0.299073D-01  0.273303D-03  0.569908D-04  0.709938D-04  0.961978D-01
     12  -0.712407D-02  0.778664D-04 -0.173364D-04 -0.481469D-03 -0.286364D+00
     13   0.370199D-01 -0.193476D-03 -0.314618D-04  0.364511D-03  0.190255D+00
     14  -0.588440D-02 -0.137706D-03  0.189336D-03  0.155223D-03 -0.520542D-01
     15   0.177355D-01  0.300502D-03 -0.289569D-03 -0.678878D-04 -0.304987D+00
     16   0.776617D-01 -0.197000D-03  0.225359D-03  0.424106D-04  0.233683D-01
               136           137           138           139           140 
      1  -0.376176D+02 -0.376158D+02 -0.376158D+02 -0.376158D+02 -0.374772D+02
      2   0.422909D-04  0.230489D-02  0.186652D-01  0.507722D-01  0.104298D-05
      3  -0.244851D-03 -0.268374D-01  0.445147D-01 -0.151476D-01  0.356791D-05
      4   0.947543D-04  0.469596D-01  0.245169D-01 -0.111494D-01  0.000000D+00
      5  -0.950890D-04 -0.490722D-02 -0.397138D-01 -0.108052D+00  0.388574D-05
      6   0.501770D-03  0.571055D-01 -0.947168D-01  0.322367D-01 -0.160119D-04
      7  -0.206442D-03 -0.999096D-01 -0.521625D-01  0.237296D-01 -0.214993D-04
      8   0.248942D-04  0.141694D-04 -0.450172D-04 -0.179178D-04 -0.700049D-05
      9  -0.108074D-03  0.766782D-04  0.560921D-04 -0.700961D-04  0.204653D-04
     10  -0.793091D-04  0.263980D-04 -0.629449D-04  0.678009D-04 -0.145746D-04
     11  -0.193892D+00 -0.160462D+00  0.358107D+00  0.924229D-01  0.135329D-01
     12   0.330147D+00  0.384502D-01  0.126563D-01 -0.141771D+00 -0.991846D-01
     13  -0.136251D+00  0.121973D+00 -0.370710D+00  0.497659D-01  0.856543D-01
     14   0.115494D+00  0.334795D-01 -0.650314D-02  0.373263D+00 -0.500450D-02
     15  -0.242130D+00 -0.388773D-01 -0.741476D-01  0.338130D-01 -0.243947D+00
     16   0.738685D-01 -0.363968D+00 -0.133034D+00  0.111915D-01  0.328359D-01
               141           142           143           144           145 
      1  -0.374772D+02 -0.373096D+02 -0.373096D+02 -0.373096D+02 -0.372533D+02
      2  -0.307428D-05  0.572578D-03  0.558310D-02 -0.146216D-01 -0.647985D-05
      3  -0.590877D-05  0.267652D-02 -0.144507D-01 -0.541480D-02  0.555129D-05
      4  -0.126824D-05 -0.154256D-01 -0.230300D-02 -0.148434D-02  0.224930D-05
      5  -0.525051D-05 -0.827953D-03 -0.828154D-02  0.216818D-01  0.572972D-04
      6   0.213359D-04 -0.397336D-02  0.214341D-01  0.803543D-02 -0.578253D-04
      7  -0.701230D-05  0.228924D-01  0.344777D-02  0.219547D-02 -0.941490D-05
      8   0.277089D-05  0.262163D-05 -0.106318D-05 -0.174016D-05 -0.651673D-01
      9   0.137051D-04  0.652367D-05  0.283262D-05 -0.255882D-05  0.748388D-01
     10  -0.209661D-05  0.000000D+00 -0.548695D-05  0.106829D-04  0.955495D-02
     11  -0.140618D+00  0.483503D-01 -0.191974D+00 -0.238117D+00 -0.108345D-04
     12   0.270172D+00 -0.508394D-01 -0.626847D-01  0.783356D-01 -0.190411D-04
     13  -0.129573D+00  0.249963D-02  0.254657D+00  0.159810D+00  0.679017D-05
     14   0.826581D-01  0.315542D-01  0.190995D+00 -0.212580D+00  0.767046D-05
     15  -0.778513D-01  0.508596D-01  0.456354D-01  0.160569D-01  0.452249D-04
     16   0.402486D-01  0.292738D+00 -0.191995D-01  0.459042D-01 -0.128369D-04
               146           147           148           149           150 
      1  -0.372532D+02 -0.372532D+02 -0.372067D+02 -0.372067D+02 -0.372067D+02
      2  -0.116384D-04 -0.629607D-05  0.303058D-01 -0.138960D-02  0.347625D-01
      3  -0.133018D-04 -0.434486D-05  0.345133D-01  0.675976D-02 -0.298681D-01
      4   0.468981D-05 -0.134443D-04 -0.419846D-02  0.456470D-01  0.547759D-02
      5   0.135687D-03  0.126928D-03 -0.280047D+00  0.129621D-01 -0.320883D+00
      6   0.215423D-03  0.410001D-04 -0.318786D+00 -0.625269D-01  0.275742D+00
      7   0.262170D-05  0.207704D-03  0.387045D-01 -0.421327D+00 -0.508016D-01
      8  -0.960203D-02  0.747111D-01  0.574082D-05 -0.269040D-05  0.000000D+00
      9   0.427512D-02  0.656190D-01  0.708263D-05  0.665891D-05  0.488719D-05
     10  -0.990212D-01 -0.441042D-02 -0.702450D-05 -0.329119D-05  0.159576D-04
     11   0.264853D-04  0.875014D-05 -0.115423D+00 -0.143637D-01  0.212725D-01
     12   0.135737D-04 -0.360988D-04  0.197998D-01 -0.220070D-01  0.311689D-01
     13  -0.267008D-04 -0.274448D-05  0.956180D-01  0.363721D-01 -0.524959D-01
     14  -0.170608D-04 -0.208934D-04 -0.407390D-01  0.232394D-01 -0.995730D-01
     15   0.539004D-04  0.685679D-05  0.830777D-02  0.243931D-01 -0.794541D-02
     16   0.254799D-04 -0.459215D-04 -0.151680D-01  0.106371D+00  0.371328D-01
               151           152           153           154           155 
      1  -0.371969D+02 -0.371969D+02 -0.371969D+02 -0.369241D+02 -0.369241D+02
      2  -0.491045D-02 -0.111927D-01  0.158484D-01  0.126541D-04  0.000000D+00
      3  -0.954688D-02 -0.128918D-01 -0.119688D-01  0.643160D-05 -0.219309D-05
      4   0.168570D-01 -0.104728D-01 -0.215313D-02  0.000000D+00  0.176096D-04
      5   0.233995D-02  0.628820D-02 -0.820800D-02 -0.466062D-04  0.367298D-05
      6   0.536432D-02  0.693362D-02  0.600148D-02 -0.185959D-04  0.477061D-05
      7  -0.854419D-02  0.528396D-02  0.142753D-02  0.000000D+00 -0.565897D-04
      8   0.901399D-05 -0.568631D-05  0.000000D+00 -0.400125D-05  0.306850D-05
      9   0.000000D+00  0.115557D-04  0.000000D+00 -0.166189D-05 -0.171487D-04
     10   0.484628D-05 -0.574164D-05 -0.649958D-05 -0.609182D-05  0.143381D-04
     11   0.878374D-01  0.140502D+00  0.201498D-01 -0.959801D-01 -0.471256D-01
     12  -0.308420D-01 -0.700258D-02  0.516801D-01  0.213235D+00  0.433037D-01
     13  -0.570033D-01 -0.133529D+00 -0.718610D-01 -0.117230D+00  0.380269D-02
     14   0.282691D-01  0.356588D-01 -0.147970D+00  0.550082D-01  0.295934D-01
     15   0.168983D-01 -0.290219D-01 -0.172582D-01  0.466751D-01 -0.187762D+00
     16   0.139879D+00 -0.756025D-01  0.167512D-01  0.128736D-01  0.373530D-01
               156           157           158           159           160 
      1  -0.368787D+02 -0.368610D+02 -0.368610D+02 -0.368609D+02 -0.368595D+02
      2  -0.413010D-05  0.147507D-05  0.610932D-04  0.613223D-04  0.143056D-03
      3  -0.363740D-05  0.134315D-04  0.605361D-04  0.482243D-05  0.106764D-03
      4  -0.167088D-05  0.310512D-04  0.617299D-05  0.635996D-04  0.640195D-04
      5   0.386665D-04  0.464819D-05 -0.691870D-04 -0.694219D-04 -0.195650D-03
      6   0.000000D+00 -0.240541D-04 -0.853019D-04 -0.115137D-04 -0.108535D-03
      7   0.205975D-05 -0.351734D-04  0.553854D-05 -0.837565D-04 -0.767384D-04
      8   0.130147D-04  0.343010D-01 -0.868316D-02  0.327181D-01  0.269136D-03
      9   0.236492D-04 -0.337543D-01 -0.447140D-02  0.341180D-01  0.154877D-03
     10   0.000000D+00 -0.311640D-02 -0.471937D-01 -0.926317D-02  0.287674D-03
     11   0.916804D-01 -0.270146D-03 -0.190908D-02 -0.895765D-03  0.225165D-02
     12   0.917100D-01 -0.101889D-03  0.246267D-03  0.238642D-03 -0.124442D-01
     13   0.916478D-01  0.407932D-03  0.170274D-02  0.547232D-03  0.102726D-01
     14  -0.102136D-03  0.148100D-03 -0.827577D-03 -0.104347D-02 -0.552865D-02
     15  -0.316235D-04  0.188533D-03  0.574086D-04  0.335191D-03  0.107665D-02
     16  -0.205693D-04  0.636827D-03  0.148737D-03  0.154006D-02 -0.118909D-04
               161           162           163           164           165 
      1  -0.368595D+02 -0.368526D+02 -0.368526D+02 -0.368525D+02 -0.368479D+02
      2  -0.166405D-04  0.115862D-01  0.846757D-02  0.974779D-02 -0.120503D-05
      3   0.446236D-04  0.112416D-01 -0.173519D-03 -0.132062D-01  0.000000D+00
      4   0.121944D-03 -0.635131D-02  0.151316D-01 -0.560305D-02 -0.188491D-05
      5   0.224862D-04 -0.110610D-01 -0.807311D-02 -0.929185D-02 -0.292029D-05
      6  -0.604261D-04 -0.107397D-01  0.167340D-03  0.125587D-01 -0.263853D-05
      7  -0.220565D-03  0.605043D-02 -0.143961D-01  0.534105D-02 -0.153919D-05
      8  -0.314989D-03  0.333977D-05 -0.168358D-03  0.737239D-05 -0.157583D-04
      9  -0.654610D-04 -0.204640D-04 -0.806440D-04 -0.493473D-04  0.615748D-04
     10  -0.484315D-03  0.178481D-03  0.128141D-03 -0.191119D-04  0.000000D+00
     11   0.342133D-03 -0.384025D+00 -0.105773D+00  0.163274D+00  0.235279D-04
     12   0.461447D-03  0.969298D-01  0.355810D-02  0.122580D+00 -0.652761D-05
     13  -0.814753D-03  0.287037D+00  0.102192D+00 -0.285987D+00 -0.172898D-04
     14   0.215534D-03 -0.180597D+00 -0.135758D+00 -0.329629D+00  0.327283D-04
     15   0.123116D-01  0.244883D-02  0.680556D-01 -0.698303D-01 -0.896900D-05
     16   0.284798D-03 -0.158067D+00  0.378646D+00 -0.448134D-01 -0.657457D-04
               166           167           168           169           170 
      1  -0.367427D+02 -0.367269D+02 -0.367269D+02 -0.367268D+02 -0.367125D+02
      2  -0.169752D-04  0.535304D-05  0.264350D-04  0.133570D-04 -0.954612D-01
      3  -0.284205D-04 -0.875845D-05 -0.308413D-04  0.000000D+00  0.114369D-01
      4   0.356035D-05 -0.176585D-05 -0.177793D-04  0.111640D-03  0.558979D-02
      5   0.879078D-04 -0.338306D-04 -0.106457D-03 -0.558175D-04  0.402175D+00
      6   0.125228D-03  0.385754D-04  0.133071D-03  0.000000D+00 -0.481846D-01
      7  -0.132339D-04  0.691250D-05  0.821479D-04 -0.468916D-03 -0.235561D-01
      8  -0.239399D-05 -0.457119D-01 -0.252930D-02  0.287072D-01 -0.238304D-05
      9  -0.139195D-04 -0.286148D-01  0.105077D-01 -0.446069D-01  0.000000D+00
     10  -0.162402D-05 -0.349137D-02 -0.529456D-01 -0.102207D-01 -0.147779D-04
     11   0.979417D-01 -0.264626D-04 -0.622680D-04  0.237190D-04 -0.349716D-01
     12   0.980499D-01  0.362792D-04  0.274733D-04 -0.271190D-04  0.287478D-01
     13   0.981031D-01 -0.658261D-04  0.882301D-04 -0.745853D-04  0.614603D-02
     14  -0.520911D-04  0.277753D-04  0.742714D-04 -0.337113D-04 -0.805748D-01
     15   0.448112D-05  0.155237D-03  0.741418D-05  0.267435D-03 -0.357015D-02
     16   0.281392D-05 -0.436156D-04  0.287747D-04 -0.158832D-03  0.803562D-02
               171           172           173           174           175 
      1  -0.367125D+02 -0.367125D+02 -0.367116D+02 -0.367116D+02 -0.365494D+02
      2  -0.122817D-01  0.334471D-02  0.274563D-03 -0.129418D-04  0.119355D-05
      3  -0.938615D-01 -0.182707D-01  0.643442D-03 -0.443362D-03  0.000000D+00
      4  -0.177102D-01  0.944948D-01  0.759350D-05 -0.764662D-03  0.000000D+00
      5   0.517434D-01 -0.140949D-01 -0.115091D-02  0.511102D-04 -0.492350D-05
      6   0.395440D+00  0.769725D-01 -0.270988D-02  0.186326D-02  0.649086D-05
      7   0.746183D-01 -0.398112D+00 -0.332266D-04  0.321221D-02 -0.106382D-05
      8   0.965791D-05 -0.272054D-04 -0.831174D-05  0.873194D-05  0.131923D-01
      9  -0.101999D-04  0.589357D-04 -0.625413D-05 -0.489927D-04 -0.122615D-01
     10   0.146410D-04  0.573917D-05 -0.779607D-05 -0.650606D-05 -0.264617D-02
     11  -0.796502D-01 -0.124229D-01  0.155241D+00 -0.604472D-01 -0.163811D-04
     12  -0.795142D-02  0.123653D-01 -0.335757D+00  0.385973D-01 -0.235444D-05
     13   0.875243D-01  0.390675D-04  0.180505D+00  0.218517D-01  0.246221D-05
     14   0.187229D-01 -0.285137D-02 -0.893018D-01  0.386260D-01  0.610346D-05
     15   0.153584D-01 -0.164298D-01 -0.473364D-01 -0.296748D+00  0.760814D-05
     16   0.171853D-02 -0.847845D-01 -0.247707D-01  0.563290D-01 -0.107856D-04
               176           177           178           179           180 
      1  -0.365493D+02 -0.365493D+02 -0.364136D+02 -0.364136D+02 -0.364135D+02
      2   0.000000D+00  0.000000D+00 -0.268774D-01 -0.822404D-03  0.139394D-02
      3   0.000000D+00  0.153040D-05  0.558523D-03 -0.264720D-01 -0.487749D-02
      4  -0.227472D-05 -0.135463D-05  0.152001D-02 -0.484010D-02  0.264392D-01
      5  -0.548343D-05 -0.103943D-04  0.118441D+00  0.362207D-02 -0.614202D-02
      6   0.360666D-05 -0.175946D-04 -0.246163D-02  0.116656D+00  0.214926D-01
      7   0.000000D+00 -0.182422D-05 -0.669661D-02  0.213321D-01 -0.116510D+00
      8  -0.122137D-01 -0.313794D-02  0.678670D-05  0.000000D+00 -0.217438D-05
      9  -0.115728D-01 -0.694826D-02  0.000000D+00 -0.322315D-05  0.508013D-05
     10  -0.713573D-02  0.166031D-01 -0.353270D-05 -0.297289D-05  0.358108D-05
     11  -0.112872D-04  0.687096D-04 -0.990957D-01 -0.177795D+00 -0.247227D-01
     12  -0.196272D-04  0.000000D+00  0.665876D-01 -0.185760D-01  0.277211D-01
     13   0.862142D-05 -0.803873D-04  0.324692D-01  0.196386D+00 -0.299193D-02
     14   0.372942D-04 -0.251747D-05 -0.179733D+00  0.626131D-01 -0.447925D-02
     15   0.100348D-04 -0.335537D-05 -0.478799D-02  0.322350D-01 -0.331083D-01
     16  -0.351435D-04 -0.329198D-04  0.156383D-01  0.153132D-02 -0.195968D+00
               181           182           183           184           185 
      1  -0.360385D+02 -0.360149D+02 -0.360149D+02 -0.360149D+02 -0.360089D+02
      2  -0.481650D-04  0.619406D-01 -0.351109D-02 -0.742985D-02 -0.390291D-05
      3  -0.430120D-04  0.763810D-02  0.373282D-02  0.619017D-01  0.762082D-05
      4  -0.968681D-05 -0.303655D-02 -0.622695D-01  0.413070D-02 -0.267456D-03
      5   0.224143D-03 -0.301759D+00  0.171052D-01  0.362002D-01  0.164014D-04
      6   0.211055D-03 -0.372061D-01 -0.181840D-01 -0.301575D+00 -0.331062D-04
      7   0.466206D-04  0.147927D-01  0.303360D+00 -0.201237D-01  0.129679D-02
      8  -0.142614D-04 -0.569292D-04  0.151601D-03  0.326426D-04 -0.175356D-01
      9  -0.201994D-04 -0.723700D-04 -0.332576D-04  0.291833D-04  0.207125D-01
     10  -0.144677D-04  0.730559D-04 -0.608648D-04  0.295402D-05  0.280645D-02
     11   0.125770D+00 -0.141928D+00 -0.313625D-02 -0.187518D+00 -0.184354D-04
     12   0.125461D+00  0.733309D-01  0.340589D-01 -0.280261D-01  0.174299D-03
     13   0.125310D+00  0.688926D-01 -0.309856D-01  0.215734D+00 -0.883595D-04
     14   0.882381D-04 -0.194043D+00 -0.136550D-01  0.994236D-01 -0.852731D-04
     15  -0.389484D-04 -0.916503D-03 -0.421422D-01  0.325250D-01 -0.389903D-03
     16  -0.507684D-04  0.138326D-01 -0.223501D+00 -0.279932D-01 -0.902953D-03
               186           187           188           189           190 
      1  -0.360088D+02 -0.360088D+02 -0.359934D+02 -0.359934D+02 -0.357522D+02
      2  -0.165154D-03  0.214693D-03  0.247139D-04 -0.183218D-04 -0.159490D-01
      3  -0.174217D-04 -0.846761D-04 -0.252124D-04 -0.176354D-05 -0.995047D-02
      4  -0.837206D-04  0.203996D-03  0.933259D-05 -0.732503D-04  0.100522D-01
      5   0.809853D-03 -0.105208D-02 -0.125185D-03  0.849707D-04  0.551769D-01
      6   0.996437D-04  0.410645D-03  0.129953D-03  0.117860D-04  0.344329D-01
      7   0.409193D-03 -0.100279D-02 -0.470114D-04  0.359582D-03 -0.347783D-01
      8   0.242137D-02  0.206857D-01  0.439275D-05  0.000000D+00  0.000000D+00
      9  -0.161915D-02  0.176262D-01  0.296058D-05 -0.533006D-04 -0.389837D-05
     10   0.270665D-01 -0.795104D-03  0.857387D-05  0.927520D-05  0.000000D+00
     11   0.284218D-03 -0.707988D-04  0.645528D-01 -0.149778D-01 -0.168306D+00
     12  -0.692429D-04  0.233363D-03 -0.134918D+00 -0.363911D-02  0.610034D-01
     13  -0.174601D-03  0.570776D-04  0.702884D-01  0.186196D-01  0.107303D+00
     14   0.462351D-03 -0.612742D-03 -0.375628D-01  0.101750D-01 -0.121478D+00
     15   0.219618D-04 -0.109769D-03 -0.191017D-02 -0.120108D+00 -0.817922D-02
     16  -0.329152D-03  0.840046D-03 -0.129226D-01  0.204287D-01 -0.923575D-01
               191           192           193           194           195 
      1  -0.357521D+02 -0.357521D+02 -0.357008D+02 -0.357008D+02 -0.357008D+02
      2  -0.136285D-01 -0.378189D-02 -0.227760D-01 -0.146262D-01  0.233710D-03
      3   0.676405D-02  0.175960D-01 -0.144532D-01  0.224371D-01 -0.452097D-02
      4  -0.149328D-01  0.114240D-01  0.224675D-02 -0.392726D-02 -0.266894D-01
      5   0.471498D-01  0.130783D-01  0.784808D-01  0.504057D-01 -0.805916D-03
      6  -0.233973D-01 -0.608749D-01  0.498022D-01 -0.773238D-01  0.155849D-01
      7   0.516666D-01 -0.395232D-01 -0.773705D-02  0.135321D-01  0.919804D-01
      8  -0.137845D-05 -0.365810D-05  0.604437D-05  0.272715D-05  0.823049D-05
      9  -0.584377D-05  0.271751D-05  0.240371D-05  0.852014D-05  0.150315D-04
     10  -0.332580D-05 -0.123398D-04 -0.181672D-04  0.547869D-05 -0.630349D-05
     11  -0.117690D-01  0.136792D+00  0.581913D-01 -0.292074D-01  0.987330D-02
     12   0.231093D-01  0.443588D-01 -0.158013D-01 -0.134809D-01  0.118308D-01
     13  -0.113410D-01 -0.181153D+00 -0.423959D-01  0.426927D-01 -0.217119D-01
     14  -0.122600D+00 -0.104288D+00  0.375483D-01  0.467343D-01 -0.121031D-01
     15   0.185767D-01 -0.448586D-01 -0.282141D-02  0.543598D-02 -0.136334D-01
     16   0.171319D+00 -0.740589D-01  0.404482D-02 -0.225448D-01 -0.588333D-01
               196           197           198           199           200 
      1  -0.354489D+02 -0.180450D+02 -0.180450D+02 -0.180450D+02 -0.176923D+02
      2  -0.204114D-05  0.183549D-02  0.707485D-02 -0.113742D-01  0.000000D+00
      3   0.000000D+00  0.149509D-02  0.113002D-01  0.727021D-02  0.000000D+00
      4   0.000000D+00 -0.133112D-01  0.224467D-02 -0.751487D-03  0.000000D+00
      5   0.807433D-05 -0.201842D-01 -0.778066D-01  0.125088D+00 -0.158253D-05
      6   0.586440D-05 -0.164425D-01 -0.124278D+00 -0.799567D-01 -0.218382D-05
      7   0.000000D+00  0.146392D+00 -0.246872D-01  0.826593D-02 -0.259120D-05
      8   0.000000D+00  0.186570D-05  0.000000D+00  0.000000D+00  0.000000D+00
      9   0.000000D+00  0.000000D+00  0.000000D+00  0.000000D+00  0.000000D+00
     10  -0.480459D-05  0.000000D+00  0.000000D+00 -0.157377D-05  0.000000D+00
     11  -0.607598D-01 -0.630774D-02 -0.404504D-01 -0.169944D-02 -0.202097D+00
     12  -0.607384D-01  0.817470D-02  0.316203D-02 -0.120277D-01 -0.202096D+00
     13  -0.607292D-01 -0.187733D-02  0.372876D-01  0.137207D-01 -0.202095D+00
     14   0.000000D+00 -0.845802D-02 -0.691342D-02  0.364396D-01  0.000000D+00
     15   0.000000D+00 -0.708033D-02  0.537122D-02  0.269179D-02  0.000000D+00
     16  -0.347167D-05 -0.378031D-01  0.332968D-02 -0.101550D-01  0.000000D+00
 Unable to Open any file for archive entry.
 1\1\GINC-HEL18\SP\RwB97XD TD-FC\def2TZVP\C1H4\PRAKRITI\14-Aug-2021\0\\
 #P TD(Nstates=10000) wB97XD/def2TZVP SCF(maxcycles=100) Int(Grid=ultra
 fine)\\xGDB7_00001_tier4.com\\0,1\C,0,0.000001,0.000006,0.\H,0,0.98523
 3,0.46299,-0.028035\H,0,-0.05618,-0.682943,0.846305\H,0,-0.168125,-0.5
 51911,-0.923536\H,0,-0.760937,0.771825,0.105269\\Version=EM64L-G16RevC
 .01\State=1-A\HF=-40.5192768\RMSD=3.047e-09\PG=C01 [X(C1H4)]\\@
 The archive entry for this job was punched.


 YOU KNOW YOU'RE A TEACHER WHEN YOU SAY 2, WRITE 3, AND MEAN 4.
 -- RONALD ANSTROM, HIGH SCHOOL TEACHER, UNDERWOOD, N.D. 1974
 Job cpu time:       0 days  0 hours  1 minutes 23.6 seconds.
 Elapsed time:       0 days  0 hours  0 minutes 10.8 seconds.
 File lengths (MBytes):  RWF=     55 Int=      0 D2E=      0 Chk=     15 Scr=      1
 Normal termination of Gaussian 16 at Sat Aug 14 06:22:12 2021.
