 Entering Gaussian System, Link 0=g16
 Input=xGDB7_000031_TDDFT.com
 Output=xGDB7_000031_TDDFT.log
 Initial command:
 /home/prakriti/g16/l1.exe "/scratch/prakriti/PBS_7421658.helios/Gau-54417.inp" -scrdir="/scratch/prakriti/PBS_7421658.helios/"
 Entering Link 1 = /home/prakriti/g16/l1.exe PID=     54418.
  
 Copyright (c) 1988-2019, Gaussian, Inc.  All Rights Reserved.
  
 This is part of the Gaussian(R) 16 program.  It is based on
 the Gaussian(R) 09 system (copyright 2009, Gaussian, Inc.),
 the Gaussian(R) 03 system (copyright 2003, Gaussian, Inc.),
 the Gaussian(R) 98 system (copyright 1998, Gaussian, Inc.),
 the Gaussian(R) 94 system (copyright 1995, Gaussian, Inc.),
 the Gaussian 92(TM) system (copyright 1992, Gaussian, Inc.),
 the Gaussian 90(TM) system (copyright 1990, Gaussian, Inc.),
 the Gaussian 88(TM) system (copyright 1988, Gaussian, Inc.),
 the Gaussian 86(TM) system (copyright 1986, Carnegie Mellon
 University), and the Gaussian 82(TM) system (copyright 1983,
 Carnegie Mellon University). Gaussian is a federally registered
 trademark of Gaussian, Inc.
  
 This software contains proprietary and confidential information,
 including trade secrets, belonging to Gaussian, Inc.
  
 This software is provided under written license and may be
 used, copied, transmitted, or stored only in accord with that
 written license.
  
 The following legend is applicable only to US Government
 contracts under FAR:
  
                    RESTRICTED RIGHTS LEGEND
  
 Use, reproduction and disclosure by the US Government is
 subject to restrictions as set forth in subparagraphs (a)
 and (c) of the Commercial Computer Software - Restricted
 Rights clause in FAR 52.227-19.
  
 Gaussian, Inc.
 340 Quinnipiac St., Bldg. 40, Wallingford CT 06492
  
  
 ---------------------------------------------------------------
 Warning -- This program may not be used in any manner that
 competes with the business of Gaussian, Inc. or will provide
 assistance to any competitor of Gaussian, Inc.  The licensee
 of this program is prohibited from giving any competitor of
 Gaussian, Inc. access to this program.  By using this program,
 the user acknowledges that Gaussian, Inc. is engaged in the
 business of creating and licensing software in the field of
 computational chemistry and represents and warrants to the
 licensee that it is not a competitor of Gaussian, Inc. and that
 it will not use this program in any manner prohibited above.
 ---------------------------------------------------------------
  

 Cite this work as:
 Gaussian 16, Revision C.01,
 M. J. Frisch, G. W. Trucks, H. B. Schlegel, G. E. Scuseria, 
 M. A. Robb, J. R. Cheeseman, G. Scalmani, V. Barone, 
 G. A. Petersson, H. Nakatsuji, X. Li, M. Caricato, A. V. Marenich, 
 J. Bloino, B. G. Janesko, R. Gomperts, B. Mennucci, H. P. Hratchian, 
 J. V. Ortiz, A. F. Izmaylov, J. L. Sonnenberg, D. Williams-Young, 
 F. Ding, F. Lipparini, F. Egidi, J. Goings, B. Peng, A. Petrone, 
 T. Henderson, D. Ranasinghe, V. G. Zakrzewski, J. Gao, N. Rega, 
 G. Zheng, W. Liang, M. Hada, M. Ehara, K. Toyota, R. Fukuda, 
 J. Hasegawa, M. Ishida, T. Nakajima, Y. Honda, O. Kitao, H. Nakai, 
 T. Vreven, K. Throssell, J. A. Montgomery, Jr., J. E. Peralta, 
 F. Ogliaro, M. J. Bearpark, J. J. Heyd, E. N. Brothers, K. N. Kudin, 
 V. N. Staroverov, T. A. Keith, R. Kobayashi, J. Normand, 
 K. Raghavachari, A. P. Rendell, J. C. Burant, S. S. Iyengar, 
 J. Tomasi, M. Cossi, J. M. Millam, M. Klene, C. Adamo, R. Cammi, 
 J. W. Ochterski, R. L. Martin, K. Morokuma, O. Farkas, 
 J. B. Foresman, and D. J. Fox, Gaussian, Inc., Wallingford CT, 2019.
 
 ******************************************
 Gaussian 16:  EM64L-G16RevC.01  3-Jul-2019
                14-Aug-2021 
 ******************************************
 %mem=8gb
 %nproc=8
 Will use up to    8 processors via shared memory.
 ----------------------------------------------------------------------
 #P TD(Nstates=10000) wB97XD/def2TZVP SCF(maxcycles=100) Int(Grid=ultra
 fine)
 ----------------------------------------------------------------------
 1/38=1,172=1/1;
 2/12=2,17=6,18=5,40=1/2;
 3/5=44,7=101,11=9,25=1,30=1,74=-58,75=-5/1,2,3,8;
 4//1;
 5/5=2,7=100,38=5/2;
 8/6=1,10=1,108=10000/1;
 9/41=10000,42=1,70=2/14;
 6/7=2,8=2,9=2,10=2/1;
 99/5=1,9=1/99;
 Leave Link    1 at Sat Aug 14 06:20:23 2021, MaxMem=  1073741824 cpu:               0.3 elap:               0.0
 (Enter /home/prakriti/g16/l101.exe)
 ---------------------
 xGDB7_00001_tier4.com
 ---------------------
 Symbolic Z-matrix:
 Charge =  0 Multiplicity = 1
 6                     0.51685   0.69483   0. 
 6                    -0.86017   0.1002    0. 
 6                     0.34331  -0.79502   0. 
 1                     0.86651   1.16486   0.90918 
 1                     0.86651   1.16486  -0.90918 
 1                    -1.44205   0.16796  -0.90918 
 1                    -1.44205   0.16797   0.90918 
 1                     0.57557  -1.33284  -0.90918 
 1                     0.57557  -1.33284   0.90918 
 
 ITRead=  0  0  0  0  0  0  0  0  0
 MicOpt= -1 -1 -1 -1 -1 -1 -1 -1 -1
 NAtoms=      9 NQM=        9 NQMF=       0 NMMI=      0 NMMIF=      0
                NMic=       0 NMicF=      0.
                    Isotopes and Nuclear Properties:
 (Nuclear quadrupole moments (NQMom) in fm**2, nuclear magnetic moments (NMagM)
  in nuclear magnetons)

  Atom         1           2           3           4           5           6           7           8           9
 IAtWgt=          12          12          12           1           1           1           1           1           1
 AtmWgt=  12.0000000  12.0000000  12.0000000   1.0078250   1.0078250   1.0078250   1.0078250   1.0078250   1.0078250
 NucSpn=           0           0           0           1           1           1           1           1           1
 AtZEff=  -0.0000000  -0.0000000  -0.0000000  -0.0000000  -0.0000000  -0.0000000  -0.0000000  -0.0000000  -0.0000000
 NQMom=    0.0000000   0.0000000   0.0000000   0.0000000   0.0000000   0.0000000   0.0000000   0.0000000   0.0000000
 NMagM=    0.0000000   0.0000000   0.0000000   2.7928460   2.7928460   2.7928460   2.7928460   2.7928460   2.7928460
 AtZNuc=   6.0000000   6.0000000   6.0000000   1.0000000   1.0000000   1.0000000   1.0000000   1.0000000   1.0000000
 Leave Link  101 at Sat Aug 14 06:20:23 2021, MaxMem=  1073741824 cpu:               0.8 elap:               0.1
 (Enter /home/prakriti/g16/l202.exe)
                          Input orientation:                          
 ---------------------------------------------------------------------
 Center     Atomic      Atomic             Coordinates (Angstroms)
 Number     Number       Type             X           Y           Z
 ---------------------------------------------------------------------
      1          6           0        0.516845    0.694830    0.000000
      2          6           0       -0.860166    0.100195    0.000000
      3          6           0        0.343308   -0.795021    0.000000
      4          1           0        0.866514    1.164858    0.909176
      5          1           0        0.866513    1.164859   -0.909176
      6          1           0       -1.442047    0.167964   -0.909177
      7          1           0       -1.442048    0.167965    0.909176
      8          1           0        0.575574   -1.332837   -0.909179
      9          1           0        0.575574   -1.332837    0.909179
 ---------------------------------------------------------------------
                    Distance matrix (angstroms):
                    1          2          3          4          5
     1  C    0.000000
     2  C    1.499917   0.000000
     3  C    1.499924   1.499920   0.000000
     4  H    1.081571   2.222956   2.222942   0.000000
     5  H    1.081571   2.222955   2.222943   1.818352   0.000000
     6  H    2.222937   1.081564   2.222934   3.103169   2.514607
     7  H    2.222937   1.081564   2.222935   2.514608   3.103169
     8  H    2.222946   2.222957   1.081573   3.103150   2.514584
     9  H    2.222946   2.222957   1.081573   2.514583   3.103151
                    6          7          8          9
     6  H    0.000000
     7  H    1.818353   0.000000
     8  H    2.514597   3.103163   0.000000
     9  H    3.103162   2.514598   1.818358   0.000000
 Stoichiometry    C3H6
 Framework group  CS[SG(C3),X(H6)]
 Deg. of freedom    12
 Full point group                 CS      NOp   2
 Largest Abelian subgroup         CS      NOp   2
 Largest concise Abelian subgroup CS      NOp   2
                         Standard orientation:                         
 ---------------------------------------------------------------------
 Center     Atomic      Atomic             Coordinates (Angstroms)
 Number     Number       Type             X           Y           Z
 ---------------------------------------------------------------------
      1          6           0        0.000000    0.865978    0.000000
      2          6           0        0.749967   -0.432983    0.000000
      3          6           0       -0.749954   -0.432999    0.000000
      4          1           0       -0.000033    1.451806   -0.909176
      5          1           0       -0.000033    1.451806    0.909176
      6          1           0        1.257295   -0.725894    0.909177
      7          1           0        1.257295   -0.725894   -0.909177
      8          1           0       -1.257302   -0.725899    0.909179
      9          1           0       -1.257302   -0.725899   -0.909179
 ---------------------------------------------------------------------
 Rotational constants (GHZ):          20.3211092          20.3210941          12.7163454
 Leave Link  202 at Sat Aug 14 06:20:23 2021, MaxMem=  1073741824 cpu:               0.1 elap:               0.0
 (Enter /home/prakriti/g16/l301.exe)
 Standard basis: def2TZVP (5D, 7F)
 Ernie: Thresh=  0.10000D-02 Tol=  0.10000D-05 Strict=F.
 There are    93 symmetry adapted cartesian basis functions of A'  symmetry.
 There are    51 symmetry adapted cartesian basis functions of A"  symmetry.
 There are    81 symmetry adapted basis functions of A'  symmetry.
 There are    48 symmetry adapted basis functions of A"  symmetry.
   129 basis functions,   201 primitive gaussians,   144 cartesian basis functions
    12 alpha electrons       12 beta electrons
       nuclear repulsion energy        76.0150796331 Hartrees.
 IExCor= 4639 DFT=T Ex+Corr=wB97XD ExCW=0 ScaHFX=  1.000000
 ScaDFX=  1.000000  1.000000  1.000000  1.000000 ScalE2=  1.000000  1.000000
 IRadAn=      5 IRanWt=     -1 IRanGd=            0 ICorTp=0 IEmpDi=121
 HFx  wShort=  0.000000 wLong=  0.200000 cFull=  0.222036 cShort=  0.000000 cLong=  0.777964
 DFx  wShort=  0.000000 wLong=  0.200000 cFull=  0.000000 cShort=  0.000000 cLong=  1.000000
 NAtoms=    9 NActive=    9 NUniq=    6 SFac= 2.25D+00 NAtFMM=   60 NAOKFM=F Big=F
 Integral buffers will be    131072 words long.
 Raffenetti 1 integral format.
 Two-electron integral symmetry is turned on.
 R6Disp:  Grimme-D2 Dispersion energy=       -0.0024081366 Hartrees.
 Nuclear repulsion after empirical dispersion term =       76.0126714965 Hartrees.
 Leave Link  301 at Sat Aug 14 06:20:23 2021, MaxMem=  1073741824 cpu:               0.4 elap:               0.1
 (Enter /home/prakriti/g16/l302.exe)
 NPDir=0 NMtPBC=     1 NCelOv=     1 NCel=       1 NClECP=     1 NCelD=      1
         NCelK=      1 NCelE2=     1 NClLst=     1 CellRange=     0.0.
 One-electron integrals computed using PRISM.
 One-electron integral symmetry used in STVInt
   2 Symmetry operations used in ECPInt.
 ECPInt:  NShTT=    1653 NPrTT=    4740 LenC2=    1651 LenP2D=    4278.
 LDataN:  DoStor=T MaxTD1= 6 Len=  172
 NBasis=   129 RedAO= T EigKep=  3.94D-04  NBF=    81    48
 NBsUse=   129 1.00D-06 EigRej= -1.00D+00 NBFU=    81    48
 Precomputing XC quadrature grid using
 IXCGrd= 4 IRadAn=           5 IRanWt=          -1 IRanGd=           0 AccXCQ= 0.00D+00.
 Generated NRdTot=       0 NPtTot=           0 NUsed=           0 NTot=          32
 NSgBfM=   144   144   144   144   144 MxSgAt=     9 MxSgA2=     9.
 Leave Link  302 at Sat Aug 14 06:20:23 2021, MaxMem=  1073741824 cpu:               1.4 elap:               0.2
 (Enter /home/prakriti/g16/l303.exe)
 DipDrv:  MaxL=1.
 Leave Link  303 at Sat Aug 14 06:20:23 2021, MaxMem=  1073741824 cpu:               0.2 elap:               0.1
 (Enter /home/prakriti/g16/l308.exe)
 Leave Link  308 at Sat Aug 14 06:20:23 2021, MaxMem=  1073741824 cpu:               0.3 elap:               0.1
 (Enter /home/prakriti/g16/l401.exe)
 ExpMin= 9.52D-02 ExpMax= 1.36D+04 ExpMxC= 4.63D+02 IAcc=3 IRadAn=         5 AccDes= 0.00D+00
 Harris functional with IExCor= 4639 and IRadAn=       5 diagonalized for initial guess.
 HarFok:  IExCor= 4639 AccDes= 0.00D+00 IRadAn=         5 IDoV= 1 UseB2=F ITyADJ=14
 ICtDFT=  3500011 ScaDFX=  1.000000  1.000000  1.000000  1.000000
 FoFCou: FMM=F IPFlag=           0 FMFlag=      100000 FMFlg1=           0
         NFxFlg=           0 DoJE=T BraDBF=F KetDBF=T FulRan=T
         wScrn=  0.000000 ICntrl=       500 IOpCl=  0 I1Cent=   200000004 NGrid=           0
         NMat0=    1 NMatS0=      1 NMatT0=    0 NMatD0=    1 NMtDS0=    0 NMtDT0=    0
 Petite list used in FoFCou.
 Harris En= -112.039795156712    
 JPrj=0 DoOrth=F DoCkMO=F.
 Initial guess orbital symmetries:
       Occupied  (A') (A') (A') (A') (A') (A') (A") (A') (A") (A")
                 (A') (A')
       Virtual   (A') (A") (A') (A') (A') (A') (A") (A") (A') (A')
                 (A') (A') (A") (A') (A") (A") (A') (A') (A') (A")
                 (A') (A') (A') (A") (A") (A') (A') (A') (A') (A")
                 (A") (A") (A") (A') (A') (A') (A') (A") (A") (A')
                 (A') (A') (A') (A") (A') (A') (A") (A") (A') (A')
                 (A") (A') (A") (A") (A') (A') (A') (A') (A') (A")
                 (A') (A') (A") (A') (A") (A") (A') (A') (A") (A")
                 (A") (A") (A') (A') (A') (A") (A') (A') (A") (A")
                 (A') (A') (A') (A") (A') (A') (A") (A') (A') (A")
                 (A") (A") (A') (A') (A') (A") (A") (A') (A') (A')
                 (A") (A") (A") (A") (A') (A') (A') (A") (A") (A')
                 (A') (A') (A') (A') (A') (A') (A')
 The electronic state of the initial guess is 1-A'.
 Leave Link  401 at Sat Aug 14 06:20:24 2021, MaxMem=  1073741824 cpu:               3.6 elap:               0.5
 (Enter /home/prakriti/g16/l502.exe)
 Keep R1 ints in memory in symmetry-blocked form, NReq=105684279.
 FoFCou: FMM=F IPFlag=           0 FMFlag=           0 FMFlg1=           0
         NFxFlg=           0 DoJE=F BraDBF=F KetDBF=F FulRan=T
         wScrn=  0.000000 ICntrl=       600 IOpCl=  0 I1Cent=           0 NGrid=           0
         NMat0=    1 NMatS0=   8385 NMatT0=    0 NMatD0=    1 NMtDS0=    0 NMtDT0=    0
 Petite list used in FoFCou.
 Closed shell SCF:
 Using DIIS extrapolation, IDIIS=  1040.
 NGot=  1073741824 LenX=  1056004964 LenY=  1055983787
 Requested convergence on RMS density matrix=1.00D-08 within 100 cycles.
 Requested convergence on MAX density matrix=1.00D-06.
 Requested convergence on             energy=1.00D-06.
 No special actions if energy rises.
 Integral accuracy reduced to 1.0D-05 until final iterations.

 Cycle   1  Pass 0  IDiag  1:
 E= -117.865543687067    
 DIIS: error= 7.70D-02 at cycle   1 NSaved=   1.
 NSaved= 1 IEnMin= 1 EnMin= -117.865543687067     IErMin= 1 ErrMin= 7.70D-02
 ErrMax= 7.70D-02  0.00D+00 EMaxC= 1.00D-01 BMatC= 2.49D-01 BMatP= 2.49D-01
 IDIUse=3 WtCom= 2.30D-01 WtEn= 7.70D-01
 Coeff-Com:  0.100D+01
 Coeff-En:   0.100D+01
 Coeff:      0.100D+01
 Gap=     0.474 Goal=   None    Shift=    0.000
 GapD=    0.474 DampG=2.000 DampE=0.500 DampFc=1.0000 IDamp=-1.
 RMSDP=1.62D-03 MaxDP=3.65D-02              OVMax= 5.53D-02

 Cycle   2  Pass 0  IDiag  1:
 E= -117.893149440563     Delta-E=       -0.027605753496 Rises=F Damp=F
 DIIS: error= 1.11D-02 at cycle   2 NSaved=   2.
 NSaved= 2 IEnMin= 2 EnMin= -117.893149440563     IErMin= 2 ErrMin= 1.11D-02
 ErrMax= 1.11D-02  0.00D+00 EMaxC= 1.00D-01 BMatC= 8.20D-03 BMatP= 2.49D-01
 IDIUse=3 WtCom= 8.89D-01 WtEn= 1.11D-01
 Coeff-Com:  0.824D-01 0.918D+00
 Coeff-En:   0.000D+00 0.100D+01
 Coeff:      0.732D-01 0.927D+00
 Gap=     0.532 Goal=   None    Shift=    0.000
 RMSDP=7.58D-04 MaxDP=1.21D-02 DE=-2.76D-02 OVMax= 3.38D-02

 Cycle   3  Pass 0  IDiag  1:
 E= -117.897053676278     Delta-E=       -0.003904235716 Rises=F Damp=F
 DIIS: error= 8.77D-03 at cycle   3 NSaved=   3.
 NSaved= 3 IEnMin= 3 EnMin= -117.897053676278     IErMin= 3 ErrMin= 8.77D-03
 ErrMax= 8.77D-03  0.00D+00 EMaxC= 1.00D-01 BMatC= 4.32D-03 BMatP= 8.20D-03
 IDIUse=3 WtCom= 9.12D-01 WtEn= 8.77D-02
 Coeff-Com:  0.244D-01 0.425D+00 0.551D+00
 Coeff-En:   0.000D+00 0.314D+00 0.686D+00
 Coeff:      0.223D-01 0.415D+00 0.562D+00
 Gap=     0.509 Goal=   None    Shift=    0.000
 RMSDP=3.29D-04 MaxDP=5.55D-03 DE=-3.90D-03 OVMax= 1.43D-02

 Cycle   4  Pass 0  IDiag  1:
 E= -117.901055170390     Delta-E=       -0.004001494112 Rises=F Damp=F
 DIIS: error= 2.13D-04 at cycle   4 NSaved=   4.
 NSaved= 4 IEnMin= 4 EnMin= -117.901055170390     IErMin= 4 ErrMin= 2.13D-04
 ErrMax= 2.13D-04  0.00D+00 EMaxC= 1.00D-01 BMatC= 2.90D-06 BMatP= 4.32D-03
 IDIUse=3 WtCom= 9.98D-01 WtEn= 2.13D-03
 Coeff-Com: -0.315D-02-0.534D-01-0.487D-01 0.111D+01
 Coeff-En:   0.000D+00 0.000D+00 0.000D+00 0.100D+01
 Coeff:     -0.314D-02-0.533D-01-0.486D-01 0.111D+01
 Gap=     0.509 Goal=   None    Shift=    0.000
 RMSDP=2.63D-05 MaxDP=3.61D-04 DE=-4.00D-03 OVMax= 9.64D-04

 Cycle   5  Pass 0  IDiag  1:
 E= -117.901060667328     Delta-E=       -0.000005496938 Rises=F Damp=F
 DIIS: error= 4.91D-05 at cycle   5 NSaved=   5.
 NSaved= 5 IEnMin= 5 EnMin= -117.901060667328     IErMin= 5 ErrMin= 4.91D-05
 ErrMax= 4.91D-05  0.00D+00 EMaxC= 1.00D-01 BMatC= 8.51D-08 BMatP= 2.90D-06
 IDIUse=1 WtCom= 1.00D+00 WtEn= 0.00D+00
 Coeff-Com: -0.708D-03-0.116D-01-0.142D-01 0.469D-02 0.102D+01
 Coeff:     -0.708D-03-0.116D-01-0.142D-01 0.469D-02 0.102D+01
 Gap=     0.509 Goal=   None    Shift=    0.000
 RMSDP=7.68D-06 MaxDP=9.35D-05 DE=-5.50D-06 OVMax= 1.95D-04

 Initial convergence to 1.0D-05 achieved.  Increase integral accuracy.
 Cycle   6  Pass 1  IDiag  1:
 E= -117.901064671770     Delta-E=       -0.000004004442 Rises=F Damp=F
 DIIS: error= 2.84D-05 at cycle   1 NSaved=   1.
 NSaved= 1 IEnMin= 1 EnMin= -117.901064671770     IErMin= 1 ErrMin= 2.84D-05
 ErrMax= 2.84D-05  0.00D+00 EMaxC= 1.00D-01 BMatC= 1.21D-07 BMatP= 1.21D-07
 IDIUse=1 WtCom= 1.00D+00 WtEn= 0.00D+00
 Coeff-Com:  0.100D+01
 Coeff:      0.100D+01
 Gap=     0.509 Goal=   None    Shift=    0.000
 RMSDP=7.68D-06 MaxDP=9.35D-05 DE=-4.00D-06 OVMax= 5.56D-05

 Cycle   7  Pass 1  IDiag  1:
 E= -117.901064750436     Delta-E=       -0.000000078666 Rises=F Damp=F
 DIIS: error= 5.55D-06 at cycle   2 NSaved=   2.
 NSaved= 2 IEnMin= 2 EnMin= -117.901064750436     IErMin= 2 ErrMin= 5.55D-06
 ErrMax= 5.55D-06  0.00D+00 EMaxC= 1.00D-01 BMatC= 1.51D-09 BMatP= 1.21D-07
 IDIUse=1 WtCom= 1.00D+00 WtEn= 0.00D+00
 Coeff-Com: -0.664D-01 0.107D+01
 Coeff:     -0.664D-01 0.107D+01
 Gap=     0.509 Goal=   None    Shift=    0.000
 RMSDP=9.33D-07 MaxDP=1.35D-05 DE=-7.87D-08 OVMax= 1.47D-05

 Cycle   8  Pass 1  IDiag  1:
 E= -117.901064752298     Delta-E=       -0.000000001861 Rises=F Damp=F
 DIIS: error= 1.24D-06 at cycle   3 NSaved=   3.
 NSaved= 3 IEnMin= 3 EnMin= -117.901064752298     IErMin= 3 ErrMin= 1.24D-06
 ErrMax= 1.24D-06  0.00D+00 EMaxC= 1.00D-01 BMatC= 9.58D-11 BMatP= 1.51D-09
 IDIUse=1 WtCom= 1.00D+00 WtEn= 0.00D+00
 Coeff-Com: -0.165D-01 0.148D+00 0.868D+00
 Coeff:     -0.165D-01 0.148D+00 0.868D+00
 Gap=     0.509 Goal=   None    Shift=    0.000
 RMSDP=2.16D-07 MaxDP=3.47D-06 DE=-1.86D-09 OVMax= 5.02D-06

 Cycle   9  Pass 1  IDiag  1:
 E= -117.901064752419     Delta-E=       -0.000000000122 Rises=F Damp=F
 DIIS: error= 5.21D-07 at cycle   4 NSaved=   4.
 NSaved= 4 IEnMin= 4 EnMin= -117.901064752419     IErMin= 4 ErrMin= 5.21D-07
 ErrMax= 5.21D-07  0.00D+00 EMaxC= 1.00D-01 BMatC= 2.03D-11 BMatP= 9.58D-11
 IDIUse=1 WtCom= 1.00D+00 WtEn= 0.00D+00
 Coeff-Com: -0.415D-03-0.249D-01 0.253D+00 0.772D+00
 Coeff:     -0.415D-03-0.249D-01 0.253D+00 0.772D+00
 Gap=     0.509 Goal=   None    Shift=    0.000
 RMSDP=9.41D-08 MaxDP=1.76D-06 DE=-1.22D-10 OVMax= 1.80D-06

 Cycle  10  Pass 1  IDiag  1:
 E= -117.901064752444     Delta-E=       -0.000000000024 Rises=F Damp=F
 DIIS: error= 1.70D-07 at cycle   5 NSaved=   5.
 NSaved= 5 IEnMin= 5 EnMin= -117.901064752444     IErMin= 5 ErrMin= 1.70D-07
 ErrMax= 1.70D-07  0.00D+00 EMaxC= 1.00D-01 BMatC= 2.08D-12 BMatP= 2.03D-11
 IDIUse=1 WtCom= 1.00D+00 WtEn= 0.00D+00
 Coeff-Com:  0.257D-02-0.316D-01-0.569D-01 0.202D+00 0.883D+00
 Coeff:      0.257D-02-0.316D-01-0.569D-01 0.202D+00 0.883D+00
 Gap=     0.509 Goal=   None    Shift=    0.000
 RMSDP=4.76D-08 MaxDP=8.31D-07 DE=-2.43D-11 OVMax= 9.21D-07

 Cycle  11  Pass 1  IDiag  1:
 E= -117.901064752448     Delta-E=       -0.000000000005 Rises=F Damp=F
 DIIS: error= 2.13D-08 at cycle   6 NSaved=   6.
 NSaved= 6 IEnMin= 6 EnMin= -117.901064752448     IErMin= 6 ErrMin= 2.13D-08
 ErrMax= 2.13D-08  0.00D+00 EMaxC= 1.00D-01 BMatC= 3.09D-14 BMatP= 2.08D-12
 IDIUse=1 WtCom= 1.00D+00 WtEn= 0.00D+00
 Coeff-Com: -0.862D-04 0.206D-02-0.193D-02-0.485D-01-0.567D-01 0.111D+01
 Coeff:     -0.862D-04 0.206D-02-0.193D-02-0.485D-01-0.567D-01 0.111D+01
 Gap=     0.509 Goal=   None    Shift=    0.000
 RMSDP=1.12D-08 MaxDP=2.06D-07 DE=-4.52D-12 OVMax= 1.91D-07

 Cycle  12  Pass 1  IDiag  1:
 E= -117.901064752448     Delta-E=        0.000000000000 Rises=F Damp=F
 DIIS: error= 1.11D-08 at cycle   7 NSaved=   7.
 NSaved= 7 IEnMin= 6 EnMin= -117.901064752448     IErMin= 7 ErrMin= 1.11D-08
 ErrMax= 1.11D-08  0.00D+00 EMaxC= 1.00D-01 BMatC= 4.70D-15 BMatP= 3.09D-14
 IDIUse=1 WtCom= 1.00D+00 WtEn= 0.00D+00
 Coeff-Com: -0.104D-03 0.166D-02 0.152D-02-0.232D-01-0.490D-01 0.381D+00
 Coeff-Com:  0.688D+00
 Coeff:     -0.104D-03 0.166D-02 0.152D-02-0.232D-01-0.490D-01 0.381D+00
 Coeff:      0.688D+00
 Gap=     0.509 Goal=   None    Shift=    0.000
 RMSDP=1.35D-09 MaxDP=2.45D-08 DE= 2.84D-14 OVMax= 2.06D-08

 SCF Done:  E(RwB97XD) =  -117.901064752     A.U. after   12 cycles
            NFock= 12  Conv=0.13D-08     -V/T= 2.0057
 KE= 1.172354961019D+02 PE=-4.246741921199D+02 EE= 1.135249597691D+02
 Leave Link  502 at Sat Aug 14 06:20:28 2021, MaxMem=  1073741824 cpu:              33.5 elap:               4.4
 (Enter /home/prakriti/g16/l801.exe)
 DoSCS=F DFT=T ScalE2(SS,OS)=  1.000000  1.000000
 ExpMin= 9.52D-02 ExpMax= 1.36D+04 ExpMxC= 4.63D+02 IAcc=3 IRadAn=         5 AccDes= 0.00D+00
 HarFok:  IExCor=  205 AccDes= 0.00D+00 IRadAn=         5 IDoV=-2 UseB2=F ITyADJ=14
 ICtDFT= 12500011 ScaDFX=  1.000000  1.000000  1.000000  1.000000
 Largest valence mixing into a core orbital is  6.75D-05
 Largest core mixing into a valence orbital is  9.01D-06
 Range of M.O.s used for correlation:     4   129
 NBasis=   129 NAE=    12 NBE=    12 NFC=     3 NFV=     0
 NROrb=    126 NOA=     9 NOB=     9 NVA=   117 NVB=   117

 **** Warning!!: The largest alpha MO coefficient is  0.15366395D+02

 Leave Link  801 at Sat Aug 14 06:20:28 2021, MaxMem=  1073741824 cpu:               0.7 elap:               0.1
 (Enter /home/prakriti/g16/l914.exe)
 RHF ground state
 Two-electron integrals replicated using symmetry.
 MDV=  1073741824 DFT=T DoStab=F Mixed=T DoRPA=T DoScal=F NonHer=T
 Making orbital integer symmetry assigments:
 Orbital symmetries:
       Occupied  (A') (A') (A') (A') (A') (A') (A") (A') (A") (A")
                 (A') (A')
       Virtual   (A') (A") (A') (A') (A') (A") (A") (A') (A') (A')
                 (A') (A') (A") (A') (A") (A") (A') (A") (A') (A')
                 (A') (A') (A') (A") (A") (A') (A') (A') (A') (A")
                 (A") (A") (A") (A') (A') (A") (A") (A') (A') (A')
                 (A') (A') (A') (A") (A') (A') (A") (A") (A') (A')
                 (A") (A') (A") (A") (A') (A') (A') (A') (A') (A")
                 (A') (A') (A") (A') (A") (A") (A') (A') (A") (A")
                 (A") (A") (A') (A") (A') (A') (A') (A') (A") (A")
                 (A') (A') (A') (A") (A') (A') (A") (A') (A') (A")
                 (A") (A") (A') (A') (A") (A") (A') (A') (A') (A')
                 (A") (A") (A") (A") (A') (A') (A') (A") (A") (A')
                 (A') (A') (A') (A') (A') (A') (A')
  1053 initial guesses have been made.
 Convergence on wavefunction:    0.001000000000000
 Davidson Disk Diagonalization:  ConvIn= 1.00D-03 SkipCon=T Conv= 1.00D-03.
 Max sub-space:  6318 roots to seek:  2106 dimension of matrix:         2106
 *** WARNING: Number of orthogonal guesses is         1053
 Iteration     1 Dimension  1053 NMult     0 NNew   1053
 CISAX will form   528 AO SS matrices at one time.
 NMat=   528 NSing=   528 JSym2X=-1.
 FoFJK:  IHMeth= 1 ICntrl=       0 DoSepK=T KAlg= 0 I1Cent=           0 FoldK=F
 IRaf=         1 NMat=    1056 IRICut=       1 DoRegI=T DoRafI=F ISym2E=-1 IDoP0=3 IntGTp=3.
 FoFCou: FMM=F IPFlag=           0 FMFlag=      100000 FMFlg1=           0
         NFxFlg=           0 DoJE=F BraDBF=F KetDBF=F FulRan=T
         wScrn=  0.000000 ICntrl=       500 IOpCl=  0 I1Cent=           0 NGrid=           0
         NMat0=  528 NMatS0=    528 NMatT0=    0 NMatD0=  528 NMtDS0=    0 NMtDT0=    0
 Petite list used in FoFCou.
 NMat=   525 NSing=   525 JSym2X=-1.
 New state      5 was old state      6
 New state      6 was old state      5
 New state     15 was old state     16
 New state     16 was old state     15
 New state     18 was old state     20
 New state     19 was old state     23
 New state     20 was old state     24
 New state     21 was old state     18
 New state     22 was old state     21
 New state     23 was old state     19
 New state     24 was old state     22
 New state     25 was old state     29
 New state     26 was old state     30
 New state     27 was old state     25
 New state     28 was old state     26
 New state     29 was old state     28
 New state     30 was old state     27
 New state     31 was old state     32
 New state     32 was old state     36
 New state     33 was old state     37
 New state     34 was old state     35
 New state     35 was old state     40
 New state     36 was old state     42
 New state     37 was old state     41
 New state     39 was old state     31
 New state     40 was old state     33
 New state     41 was old state     45
 New state     42 was old state     47
 New state     43 was old state     34
 New state     44 was old state     46
 New state     45 was old state     48
 New state     46 was old state     43
 New state     47 was old state     44
 New state     48 was old state     49
 New state     49 was old state     50
 New state     50 was old state     53
 New state     51 was old state     54
 New state     52 was old state     57
 New state     53 was old state     55
 New state     54 was old state     56
 New state     55 was old state     51
 New state     56 was old state     52
 New state     57 was old state     69
 New state     58 was old state     59
 New state     59 was old state     62
 New state     60 was old state     64
 New state     61 was old state     65
 New state     62 was old state     68
 New state     63 was old state     58
 New state     64 was old state     60
 New state     65 was old state     61
 New state     66 was old state     63
 New state     67 was old state     66
 New state     68 was old state     67
 New state     69 was old state     83
 New state     74 was old state     78
 New state     75 was old state     79
 New state     76 was old state     84
 New state     77 was old state     76
 New state     78 was old state     77
 New state     79 was old state     80
 New state     80 was old state     87
 New state     81 was old state     88
 New state     82 was old state     74
 New state     83 was old state     75
 New state     84 was old state    100
 New state     85 was old state     81
 New state     86 was old state     82
 New state     87 was old state     85
 New state     88 was old state     86
 New state     89 was old state     93
 New state     90 was old state     94
 New state     92 was old state     95
 New state     93 was old state     96
 New state     94 was old state    102
 New state     95 was old state     89
 New state     96 was old state     90
 New state     97 was old state     92
 New state     98 was old state    159
 New state     99 was old state     97
 New state    100 was old state     98
 New state    101 was old state    103
 New state    102 was old state    104
 New state    103 was old state    109
 New state    104 was old state    110
 New state    105 was old state    101
 New state    106 was old state     99
 New state    107 was old state    117
 New state    108 was old state    122
 New state    109 was old state    111
 New state    110 was old state    107
 New state    111 was old state    108
 New state    112 was old state    105
 New state    113 was old state    106
 New state    114 was old state    115
 New state    115 was old state    112
 New state    116 was old state    113
 New state    117 was old state    126
 New state    118 was old state    125
 New state    119 was old state    116
 New state    120 was old state    114
 New state    121 was old state    128
 New state    122 was old state    127
 New state    123 was old state    129
 New state    124 was old state    119
 New state    125 was old state    130
 New state    126 was old state    131
 New state    127 was old state    123
 New state    128 was old state    124
 New state    129 was old state    139
 New state    130 was old state    118
 New state    131 was old state    120
 New state    132 was old state    136
 New state    133 was old state    121
 New state    134 was old state    142
 New state    135 was old state    140
 New state    136 was old state    133
 New state    137 was old state    134
 New state    138 was old state    132
 New state    139 was old state    141
 New state    140 was old state    137
 New state    141 was old state    138
 New state    142 was old state    135
 New state    145 was old state    151
 New state    147 was old state    145
 New state    148 was old state    150
 New state    150 was old state    152
 New state    151 was old state    148
 New state    152 was old state    147
 New state    153 was old state    157
 New state    155 was old state    153
 New state    156 was old state    155
 New state    157 was old state    158
 New state    158 was old state    156
 New state    159 was old state    165
 New state    160 was old state    164
 New state    161 was old state    160
 New state    162 was old state    163
 New state    163 was old state    161
 New state    164 was old state    162
 New state    165 was old state    166
 New state    166 was old state    167
 New state    167 was old state    175
 New state    169 was old state    177
 New state    170 was old state    178
 New state    171 was old state    180
 New state    172 was old state    173
 New state    173 was old state    174
 New state    174 was old state    170
 New state    175 was old state    169
 New state    177 was old state    181
 New state    178 was old state    171
 New state    180 was old state    182
 New state    181 was old state    183
 New state    182 was old state    184
 New state    183 was old state    185
 New state    184 was old state    188
 New state    185 was old state    205
 No map to state    186
 New state    187 was old state    186
 New state    188 was old state    187
 New state    191 was old state    193
 New state    192 was old state    191
 New state    193 was old state    192
 New state    198 was old state    200
 New state    199 was old state    201
 New state    200 was old state    199
 New state    201 was old state    198
 New state    202 was old state    207
 New state    203 was old state    215
 New state    204 was old state    216
 New state    205 was old state    208
 New state    207 was old state    202
 New state    208 was old state    203
 New state    211 was old state    212
 New state    212 was old state    211
 New state    215 was old state    218
 New state    216 was old state    217
 New state    217 was old state    228
 New state    218 was old state    227
 New state    223 was old state    229
 New state    224 was old state    230
 No map to state    225
 No map to state    226
 New state    227 was old state    223
 New state    228 was old state    224
 New state    229 was old state    226
 New state    230 was old state    225
 New state    231 was old state    235
 New state    232 was old state    236
 New state    233 was old state    232
 New state    234 was old state    231
 New state    235 was old state    234
 New state    236 was old state    238
 New state    237 was old state    239
 New state    238 was old state    237
 New state    239 was old state    233
 New state    251 was old state    252
 New state    252 was old state    251
 New state    254 was old state    257
 New state    255 was old state    260
 New state    256 was old state    258
 New state    257 was old state    256
 New state    258 was old state    254
 New state    259 was old state    261
 New state    260 was old state    262
 New state    261 was old state    255
 New state    262 was old state    267
 New state    263 was old state    265
 New state    264 was old state    266
 New state    265 was old state    264
 New state    266 was old state    263
 New state    267 was old state    268
 New state    268 was old state    271
 New state    269 was old state    283
 New state    270 was old state    269
 New state    271 was old state    270
 New state    272 was old state    278
 New state    273 was old state    276
 New state    274 was old state    277
 New state    275 was old state    274
 New state    276 was old state    281
 New state    277 was old state    280
 New state    278 was old state    272
 New state    279 was old state    273
 New state    280 was old state    279
 New state    281 was old state    282
 New state    282 was old state    286
 New state    283 was old state    287
 New state    284 was old state    292
 New state    285 was old state    284
 New state    286 was old state    285
 New state    287 was old state    313
 New state    290 was old state    297
 New state    291 was old state    290
 New state    292 was old state    291
 New state    294 was old state    295
 New state    295 was old state    275
 New state    296 was old state    298
 New state    297 was old state    299
 New state    298 was old state    294
 New state    299 was old state    296
 New state    300 was old state    307
 New state    301 was old state    309
 New state    302 was old state    308
 New state    303 was old state    301
 New state    304 was old state    300
 New state    305 was old state    304
 New state    306 was old state    305
 New state    307 was old state    302
 New state    308 was old state    306
 New state    309 was old state    310
 New state    310 was old state    311
 New state    311 was old state    303
 New state    313 was old state    321
 New state    314 was old state    315
 New state    315 was old state    314
 New state    316 was old state    317
 New state    317 was old state    316
 New state    320 was old state    322
 New state    321 was old state    325
 New state    322 was old state    323
 New state    323 was old state    324
 New state    324 was old state    320
 New state    325 was old state    333
 New state    326 was old state    328
 New state    327 was old state    329
 New state    328 was old state    326
 New state    329 was old state    327
 New state    333 was old state    341
 No map to state    341
 New state    353 was old state    354
 New state    354 was old state    355
 New state    355 was old state    357
 New state    357 was old state    353
 New state    362 was old state    366
 New state    363 was old state    367
 New state    364 was old state    363
 New state    365 was old state    362
 New state    366 was old state    365
 New state    367 was old state    364
 New state    368 was old state    370
 New state    369 was old state    371
 New state    370 was old state    368
 New state    371 was old state    369
 New state    372 was old state    373
 New state    373 was old state    372
 New state    378 was old state    381
 New state    379 was old state    382
 New state    380 was old state    385
 New state    381 was old state    378
 New state    382 was old state    383
 New state    383 was old state    384
 New state    384 was old state    380
 New state    385 was old state    379
 New state    386 was old state    391
 New state    387 was old state    390
 New state    388 was old state    392
 New state    389 was old state    393
 New state    390 was old state    389
 New state    391 was old state    388
 New state    392 was old state    387
 New state    393 was old state    386
 New state    396 was old state    399
 New state    397 was old state    400
 New state    398 was old state    402
 New state    399 was old state    409
 New state    400 was old state    396
 New state    401 was old state    397
 New state    402 was old state    398
 New state    403 was old state    410
 New state    404 was old state    411
 New state    406 was old state    407
 New state    407 was old state    406
 New state    408 was old state    401
 New state    409 was old state    408
 New state    410 was old state    403
 New state    411 was old state    404
 New state    412 was old state    416
 New state    413 was old state    417
 New state    416 was old state    412
 New state    417 was old state    413
 New state    418 was old state    419
 New state    419 was old state    418
 New state    425 was old state    430
 New state    426 was old state    429
 New state    429 was old state    425
 New state    430 was old state    426
 New state    435 was old state    436
 New state    436 was old state    435
 New state    437 was old state    440
 New state    438 was old state    439
 New state    439 was old state    441
 New state    440 was old state    442
 New state    441 was old state    437
 New state    442 was old state    438
 New state    443 was old state    445
 New state    444 was old state    447
 New state    445 was old state    448
 New state    446 was old state    443
 New state    447 was old state    444
 New state    448 was old state    446
 New state    449 was old state    450
 New state    450 was old state    453
 New state    451 was old state    454
 New state    452 was old state    456
 New state    453 was old state    455
 New state    454 was old state    449
 New state    455 was old state    451
 New state    456 was old state    457
 New state    457 was old state    452
 New state    458 was old state    462
 New state    459 was old state    458
 New state    460 was old state    459
 New state    461 was old state    463
 New state    462 was old state    461
 New state    463 was old state    460
 New state    464 was old state    468
 New state    465 was old state    464
 New state    466 was old state    471
 New state    467 was old state    466
 New state    468 was old state    467
 New state    469 was old state    465
 New state    471 was old state    469
 New state    472 was old state    473
 New state    473 was old state    472
 New state    474 was old state    475
 New state    475 was old state    476
 New state    476 was old state    477
 New state    477 was old state    479
 New state    479 was old state    474
 New state    480 was old state    481
 New state    481 was old state    484
 New state    482 was old state    485
 New state    483 was old state    480
 New state    484 was old state    482
 New state    485 was old state    483
 New state    489 was old state    494
 New state    490 was old state    489
 New state    491 was old state    490
 New state    494 was old state    491
 New state    498 was old state    499
 New state    499 was old state    498
 New state    507 was old state    508
 New state    508 was old state    509
 New state    509 was old state    507
 New state    519 was old state    520
 New state    520 was old state    525
 New state    521 was old state    526
 New state    522 was old state    519
 New state    523 was old state    522
 New state    524 was old state    527
 New state    525 was old state    528
 New state    526 was old state    523
 New state    527 was old state    521
 New state    528 was old state    524
 New state    530 was old state    532
 New state    531 was old state    533
 New state    532 was old state    530
 New state    533 was old state    531
 New state    534 was old state    536
 New state    535 was old state    534
 New state    536 was old state    535
 New state    543 was old state    545
 New state    544 was old state    546
 New state    545 was old state    549
 New state    546 was old state    548
 New state    547 was old state    550
 New state    548 was old state    547
 New state    549 was old state    543
 New state    550 was old state    544
 New state    551 was old state    552
 New state    552 was old state    551
 New state    556 was old state    564
 New state    557 was old state    556
 New state    558 was old state    557
 New state    559 was old state    561
 New state    560 was old state    558
 New state    561 was old state    559
 New state    562 was old state    565
 New state    563 was old state    566
 New state    564 was old state    560
 New state    565 was old state    562
 New state    566 was old state    567
 New state    567 was old state    563
 New state    570 was old state    571
 New state    571 was old state    570
 New state    574 was old state    576
 New state    576 was old state    574
 New state    581 was old state    588
 New state    582 was old state    583
 New state    583 was old state    581
 New state    584 was old state    582
 New state    585 was old state    584
 New state    588 was old state    589
 New state    589 was old state    591
 New state    590 was old state    592
 New state    591 was old state    590
 New state    592 was old state    585
 New state    593 was old state    600
 New state    594 was old state    601
 New state    595 was old state    593
 New state    596 was old state    597
 New state    597 was old state    596
 New state    598 was old state    594
 New state    599 was old state    605
 New state    600 was old state    598
 New state    601 was old state    599
 New state    602 was old state    595
 New state    603 was old state    604
 New state    604 was old state    606
 New state    605 was old state    602
 New state    606 was old state    603
 New state    608 was old state    612
 New state    609 was old state    608
 New state    610 was old state    609
 New state    611 was old state    610
 New state    612 was old state    613
 New state    613 was old state    614
 New state    614 was old state    615
 New state    615 was old state    616
 New state    616 was old state    611
 New state    619 was old state    622
 New state    620 was old state    621
 New state    621 was old state    624
 New state    622 was old state    619
 New state    623 was old state    620
 New state    624 was old state    623
 New state    625 was old state    630
 New state    626 was old state    625
 New state    627 was old state    626
 New state    628 was old state    627
 New state    629 was old state    628
 New state    630 was old state    633
 New state    631 was old state    634
 New state    632 was old state    629
 New state    633 was old state    631
 New state    634 was old state    632
 New state    637 was old state    639
 New state    638 was old state    637
 New state    639 was old state    638
 New state    642 was old state    643
 New state    643 was old state    642
 New state    644 was old state    647
 New state    645 was old state    648
 New state    646 was old state    649
 New state    647 was old state    644
 New state    648 was old state    645
 New state    649 was old state    646
 New state    652 was old state    656
 New state    653 was old state    657
 New state    654 was old state    652
 New state    655 was old state    654
 New state    656 was old state    655
 New state    657 was old state    658
 New state    658 was old state    653
 New state    660 was old state    661
 New state    661 was old state    666
 New state    662 was old state    665
 New state    663 was old state    662
 New state    664 was old state    663
 New state    665 was old state    664
 New state    666 was old state    660
 New state    667 was old state    669
 New state    668 was old state    667
 New state    669 was old state    668
 New state    670 was old state    671
 New state    671 was old state    672
 New state    672 was old state    670
 New state    674 was old state    676
 New state    675 was old state    677
 New state    676 was old state    679
 New state    677 was old state    678
 New state    678 was old state    674
 New state    679 was old state    675
 New state    680 was old state    682
 New state    681 was old state    684
 New state    682 was old state    685
 New state    683 was old state    686
 New state    684 was old state    683
 New state    685 was old state    680
 New state    686 was old state    681
 New state    687 was old state    689
 New state    688 was old state    687
 New state    689 was old state    690
 New state    690 was old state    691
 New state    691 was old state    692
 New state    692 was old state    688
 New state    697 was old state    698
 New state    698 was old state    701
 New state    700 was old state    697
 New state    701 was old state    700
 New state    702 was old state    704
 New state    703 was old state    702
 New state    704 was old state    703
 New state    707 was old state    709
 New state    708 was old state    707
 New state    709 was old state    708
 New state    710 was old state    715
 New state    711 was old state    716
 New state    712 was old state    710
 New state    713 was old state    712
 New state    714 was old state    713
 New state    715 was old state    714
 New state    716 was old state    711
 New state    723 was old state    725
 New state    724 was old state    726
 New state    725 was old state    728
 New state    726 was old state    727
 New state    727 was old state    729
 New state    728 was old state    730
 New state    729 was old state    723
 New state    730 was old state    724
 New state    738 was old state    740
 New state    739 was old state    738
 New state    740 was old state    739
 New state    741 was old state    744
 New state    742 was old state    745
 New state    744 was old state    741
 New state    745 was old state    742
 New state    748 was old state    750
 New state    749 was old state    751
 New state    750 was old state    749
 New state    751 was old state    748
 New state    753 was old state    754
 New state    754 was old state    753
 New state    755 was old state    756
 New state    756 was old state    757
 New state    757 was old state    755
 New state    760 was old state    762
 New state    761 was old state    760
 New state    762 was old state    763
 New state    763 was old state    761
 New state    766 was old state    768
 New state    767 was old state    769
 New state    768 was old state    767
 New state    769 was old state    766
 New state    789 was old state    790
 New state    790 was old state    789
 New state    792 was old state    794
 New state    793 was old state    792
 New state    794 was old state    793
 New state    797 was old state    798
 New state    798 was old state    800
 New state    800 was old state    801
 New state    801 was old state    802
 New state    802 was old state    797
 New state    807 was old state    808
 New state    808 was old state    807
 New state    812 was old state    814
 New state    813 was old state    812
 New state    814 was old state    813
 New state    816 was old state    817
 New state    817 was old state    816
 New state    823 was old state    824
 New state    824 was old state    825
 New state    825 was old state    823
 New state    826 was old state    834
 New state    827 was old state    835
 New state    829 was old state    826
 New state    830 was old state    827
 New state    832 was old state    829
 New state    834 was old state    832
 New state    835 was old state    830
 New state    839 was old state    840
 New state    840 was old state    841
 New state    841 was old state    839
 New state    843 was old state    848
 New state    844 was old state    849
 New state    845 was old state    844
 New state    846 was old state    845
 New state    848 was old state    846
 New state    849 was old state    850
 New state    850 was old state    851
 New state    851 was old state    843
 New state    854 was old state    855
 New state    855 was old state    856
 New state    856 was old state    857
 New state    857 was old state    854
 New state    861 was old state    863
 New state    862 was old state    861
 New state    863 was old state    862
 New state    864 was old state    865
 New state    865 was old state    868
 New state    866 was old state    864
 New state    867 was old state    866
 New state    868 was old state    867
 New state    869 was old state    870
 New state    870 was old state    871
 New state    871 was old state    869
 New state    872 was old state    880
 New state    873 was old state    881
 New state    874 was old state    876
 New state    875 was old state    873
 New state    876 was old state    874
 New state    877 was old state    872
 New state    878 was old state    882
 New state    879 was old state    883
 New state    880 was old state    878
 New state    881 was old state    879
 New state    882 was old state    875
 New state    883 was old state    886
 New state    884 was old state    877
 New state    885 was old state    884
 New state    886 was old state    885
 New state    887 was old state    891
 New state    888 was old state    892
 New state    889 was old state    893
 New state    890 was old state    887
 New state    891 was old state    888
 New state    892 was old state    901
 New state    893 was old state    902
 New state    894 was old state    895
 New state    895 was old state    896
 New state    896 was old state    889
 New state    897 was old state    890
 New state    898 was old state    894
 New state    899 was old state    897
 New state    900 was old state    898
 New state    901 was old state    904
 New state    902 was old state    903
 New state    903 was old state    899
 New state    904 was old state    900
 New state    908 was old state    910
 New state    909 was old state    908
 New state    910 was old state    911
 New state    911 was old state    912
 New state    912 was old state    909
 New state    913 was old state    916
 New state    914 was old state    913
 New state    916 was old state    914
 New state    919 was old state    920
 New state    920 was old state    921
 New state    921 was old state    919
 New state    922 was old state    927
 New state    923 was old state    925
 New state    924 was old state    926
 New state    925 was old state    923
 New state    926 was old state    924
 New state    927 was old state    922
 New state    932 was old state    940
 New state    933 was old state    932
 New state    934 was old state    933
 New state    935 was old state    934
 New state    936 was old state    935
 New state    937 was old state    936
 New state    938 was old state    937
 New state    939 was old state    938
 New state    940 was old state    939
 New state    943 was old state    947
 New state    944 was old state    943
 New state    945 was old state    950
 New state    946 was old state    948
 New state    947 was old state    946
 New state    948 was old state    944
 New state    950 was old state    951
 New state    951 was old state    953
 New state    952 was old state    954
 New state    953 was old state    945
 New state    954 was old state    955
 New state    955 was old state    952
 New state    957 was old state    959
 New state    958 was old state    957
 New state    959 was old state    960
 New state    960 was old state    961
 New state    961 was old state    965
 New state    962 was old state    966
 New state    963 was old state    962
 New state    965 was old state    963
 New state    966 was old state    958
 New state    967 was old state    971
 New state    968 was old state    967
 New state    969 was old state    968
 New state    971 was old state    973
 New state    973 was old state    976
 New state    976 was old state    969
 New state    977 was old state    978
 New state    978 was old state    977
 New state    981 was old state    983
 New state    982 was old state    984
 New state    983 was old state    981
 New state    984 was old state    982
 New state    988 was old state    991
 New state    989 was old state    990
 New state    990 was old state    989
 New state    991 was old state    994
 New state    994 was old state    988
 New state    995 was old state   1003
 New state    996 was old state    999
 New state    997 was old state    996
 New state    998 was old state    995
 New state    999 was old state   1000
 New state   1000 was old state   1002
 New state   1001 was old state    998
 New state   1002 was old state    997
 New state   1003 was old state   1001
 New state   1008 was old state   1009
 New state   1009 was old state   1008
 New state   1016 was old state   1019
 New state   1017 was old state   1020
 New state   1018 was old state   1016
 New state   1019 was old state   1018
 New state   1020 was old state   1017
 New state   1029 was old state   1031
 New state   1030 was old state   1029
 New state   1031 was old state   1030
 New state   1032 was old state   1034
 New state   1033 was old state   1032
 New state   1034 was old state   1033
 New state   1036 was old state   1039
 New state   1037 was old state   1036
 New state   1039 was old state   1037
 New state   1049 was old state   1050
 New state   1050 was old state   1049
 Excitation Energies [eV] at current iteration:
 Root      1 :     8.992422380280530
 Root      2 :     8.992605715672601
 Root      3 :     9.230039756109072
 Root      4 :     9.230231508435295
 Root      5 :     9.785865748734087
 Root      6 :     9.913581535870845
 Root      7 :     9.951544311320310
 Root      8 :     9.951554748097308
 Root      9 :    10.747096410761120
 Root     10 :    10.747198074765090
 Root     11 :    11.078882292071930
 Root     12 :    11.079032496306230
 Root     13 :    11.410162456039480
 Root     14 :    11.410255110790410
 Root     15 :    11.629321321009970
 Root     16 :    11.806773123723430
 Root     17 :    11.806807756001660
 Root     18 :    11.851053021993060
 Root     19 :    11.923244274670560
 Root     20 :    11.923413631220960
 Root     21 :    11.958080311891390
 Root     22 :    12.070668166943050
 Root     23 :    12.070671871791260
 Root     24 :    12.324145666039330
 Root     25 :    12.363171126199130
 Root     26 :    12.363242517893120
 Root     27 :    12.444298807588580
 Root     28 :    12.582881830821990
 Root     29 :    12.582905915133840
 Root     30 :    12.762798456591330
 Root     31 :    13.766972823303550
 Root     32 :    13.874597331436790
 Root     33 :    13.874660524835880
 Root     34 :    13.883175757835020
 Root     35 :    14.004009540983010
 Root     36 :    14.031552182147120
 Root     37 :    14.031570401863320
 Root     38 :    14.103681415264440
 Root     39 :    14.211922879053040
 Root     40 :    14.211935717436320
 Root     41 :    14.462733718010240
 Root     42 :    14.462738479684220
 Root     43 :    14.506816122287030
 Root     44 :    14.561519294255530
 Root     45 :    14.563187360255660
 Root     46 :    14.737310492920990
 Root     47 :    14.737346734132430
 Root     48 :    14.843506036842310
 Root     49 :    14.888021859416540
 Root     50 :    14.914314269852860
 Root     51 :    14.914460691280950
 Root     52 :    15.121377435063790
 Root     53 :    15.519342263872480
 Root     54 :    15.519519766789620
 Root     55 :    15.650594140212380
 Root     56 :    15.650621592034920
 Root     57 :    15.710088888272920
 Root     58 :    15.774022811710680
 Root     59 :    15.884209930184400
 Root     60 :    15.884216285288630
 Root     61 :    15.965904746040160
 Root     62 :    15.983550895543780
 Root     63 :    16.178107136867050
 Root     64 :    16.178122488052670
 Root     65 :    16.282601252679520
 Root     66 :    16.592035362063110
 Root     67 :    16.748363807113840
 Root     68 :    16.748417484858460
 Root     69 :    17.058922960861950
 Root     70 :    17.162363507365700
 Root     71 :    17.162448986442420
 Root     72 :    17.298105687756660
 Root     73 :    17.298213333400920
 Root     74 :    17.358413881981460
 Root     75 :    17.358504127562430
 Root     76 :    17.642295990087850
 Root     77 :    17.808579592428330
 Root     78 :    17.808674025783130
 Root     79 :    17.878652416897950
 Root     80 :    17.897573954987780
 Root     81 :    17.897626278932040
 Root     82 :    17.919865855387110
 Root     83 :    17.919913572378390
 Root     84 :    18.005703570715770
 Root     85 :    18.029008114457370
 Root     86 :    18.029032504329510
 Root     87 :    18.147161325997170
 Root     88 :    18.147225843800410
 Root     89 :    18.171476667558070
 Root     90 :    18.171572176249840
 Root     91 :    18.268877451104220
 Root     92 :    18.344493748406090
 Root     93 :    18.344544514699930
 Root     94 :    18.353037060307120
 Root     95 :    18.433151228570650
 Root     96 :    18.433183410224270
 Root     97 :    18.728182692164640
 Root     98 :    18.802468925469360
 Root     99 :    19.031302752894160
 Root    100 :    19.031371067833490
 Root    101 :    19.077774095239470
 Root    102 :    19.077871920248050
 Root    103 :    19.457760812019760
 Root    104 :    19.457842252258810
 Root    105 :    19.721691082588760
 Root    106 :    19.721712810048340
 Root    107 :    19.774137267391080
 Root    108 :    19.951336680750980
 Root    109 :    19.951493775030900
 Root    110 :    19.971756342991720
 Root    111 :    19.971842577537790
 Root    112 :    20.072966911588980
 Root    113 :    20.073021169210660
 Root    114 :    20.268043341592130
 Root    115 :    20.303320610440900
 Root    116 :    20.303388235936320
 Root    117 :    20.393351166424100
 Root    118 :    20.410124859723440
 Root    119 :    20.511001897580290
 Root    120 :    20.511013877960890
 Root    121 :    20.552849663508700
 Root    122 :    20.552862961960520
 Root    123 :    20.712847886334950
 Root    124 :    20.727088093893960
 Root    125 :    20.727295507102790
 Root    126 :    20.727597340633620
 Root    127 :    20.834972025352840
 Root    128 :    20.835035362052610
 Root    129 :    20.853891961839140
 Root    130 :    20.868942311080520
 Root    131 :    20.869041934804610
 Root    132 :    20.971612442385340
 Root    133 :    21.154286159570780
 Root    134 :    21.190774473216760
 Root    135 :    21.190814216783630
 Root    136 :    21.196801680513220
 Root    137 :    21.430144768560800
 Root    138 :    21.430198446870030
 Root    139 :    21.628644526058720
 Root    140 :    21.665703611661070
 Root    141 :    21.665761409218120
 Root    142 :    21.772160291975390
 Root    143 :    21.843845810511130
 Root    144 :    21.844172736422840
 Root    145 :    21.878660982049370
 Root    146 :    22.175582003044030
 Root    147 :    22.175645129918290
 Root    148 :    22.261134493730280
 Root    149 :    22.261177178009290
 Root    150 :    22.262163276179650
 Root    151 :    22.338053204464630
 Root    152 :    22.343776985359810
 Root    153 :    22.456865721435690
 Root    154 :    22.728141108905800
 Root    155 :    22.851408933634220
 Root    156 :    22.851419159448880
 Root    157 :    23.057339613114540
 Root    158 :    23.151303144745680
 Root    159 :    23.577175599880000
 Root    160 :    23.577207240830270
 Root    161 :    23.599853633060550
 Root    162 :    23.604996539264220
 Root    163 :    23.665842665851170
 Root    164 :    23.665860197167430
 Root    165 :    23.760421536660390
 Root    166 :    23.760492149489720
 Root    167 :    23.835076165285070
 Root    168 :    24.058854995124000
 Root    169 :    24.122619688392040
 Root    170 :    24.122683040698040
 Root    171 :    24.179959549330360
 Root    172 :    24.313230436789090
 Root    173 :    24.313311275475820
 Root    174 :    24.451985262652330
 Root    175 :    24.451993787788570
 Root    176 :    24.482882710730790
 Root    177 :    24.613582080184760
 Root    178 :    24.697640764313380
 Root    179 :    24.770147948609260
 Root    180 :    24.770154127146070
 Root    181 :    24.800171659375760
 Root    182 :    25.136490057118250
 Root    183 :    25.136529545576190
 Root    184 :    25.262463471338160
 Root    185 :    25.406282125234520
 Root    186 :    25.558949912107050
 Root    187 :    25.832346172635840
 Root    188 :    25.832363573630620
 Root    189 :    25.851805951668390
 Root    190 :    25.851837992974020
 Root    191 :    25.894358488980100
 Root    192 :    26.060715677192050
 Root    193 :    26.060811445015150
 Root    194 :    26.487659446625830
 Root    195 :    26.487731498366160
 Root    196 :    26.950553435459420
 Root    197 :    26.950648685099440
 Root    198 :    27.002768631046970
 Root    199 :    27.002823143407310
 Root    200 :    27.108067154831890
 Root    201 :    27.108095418229930
 Root    202 :    27.423324787620180
 Root    203 :    27.653950175764660
 Root    204 :    27.653981876102140
 Root    205 :    27.680836936373620
 Root    206 :    27.743376573884170
 Root    207 :    27.803218921493570
 Root    208 :    27.803267866185730
 Root    209 :    27.924131175377960
 Root    210 :    27.924155113634970
 Root    211 :    28.023961328447290
 Root    212 :    28.024026620262620
 Root    213 :    28.247234670233620
 Root    214 :    28.247300083718980
 Root    215 :    28.911451776339780
 Root    216 :    28.911507829861900
 Root    217 :    28.979811336951310
 Root    218 :    28.979823757046120
 Root    219 :    29.010755438151980
 Root    220 :    29.151529014934090
 Root    221 :    29.736670999413280
 Root    222 :    29.736751951095600
 Root    223 :    29.800274114885440
 Root    224 :    29.800341431784130
 Root    225 :    30.005126781651480
 Root    226 :    30.005217871960160
 Root    227 :    30.011548793377630
 Root    228 :    30.075394900953540
 Root    229 :    30.075402125673910
 Root    230 :    30.131660464856470
 Root    231 :    30.414351436098150
 Root    232 :    30.804402315842510
 Root    233 :    30.945129356029710
 Root    234 :    30.945140843730390
 Root    235 :    30.971316596228080
 Root    236 :    31.034465075833740
 Root    237 :    31.099540917161890
 Root    238 :    31.099594833952000
 Root    239 :    31.189543136543240
 Root    240 :    31.396776785100570
 Root    241 :    31.471686290428120
 Root    242 :    31.472115630384300
 Root    243 :    31.668205969123140
 Root    244 :    31.668357686807420
 Root    245 :    31.981392431049590
 Root    246 :    31.981559123180860
 Root    247 :    32.409136122637540
 Root    248 :    32.409249543808170
 Root    249 :    32.722307438340290
 Root    250 :    32.982490801817720
 Root    251 :    33.262919823478400
 Root    252 :    33.383976495414660
 Root    253 :    33.384045297392180
 Root    254 :    33.407897843521070
 Root    255 :    33.564797654432820
 Root    256 :    33.564852746945930
 Root    257 :    33.573425095106390
 Root    258 :    33.589967204887190
 Root    259 :    34.063309891007310
 Root    260 :    34.063368531876040
 Root    261 :    34.102463126558660
 Root    262 :    34.308734180718320
 Root    263 :    34.672645216407090
 Root    264 :    34.672764128954110
 Root    265 :    34.788877885338590
 Root    266 :    34.789010946320130
 Root    267 :    35.085128420396430
 Root    268 :    35.286265384643350
 Root    269 :    35.465000326036870
 Root    270 :    35.637008587521070
 Root    271 :    35.637015954198270
 Root    272 :    35.640391130572910
 Root    273 :    35.724973094752310
 Root    274 :    35.724999392967150
 Root    275 :    35.812295933902220
 Root    276 :    35.822203075868830
 Root    277 :    35.822234864009230
 Root    278 :    35.875016250940210
 Root    279 :    35.895156209998690
 Root    280 :    35.895169759625310
 Root    281 :    36.307588659021180
 Root    282 :    36.352758608881180
 Root    283 :    36.352793652465730
 Root    284 :    36.451825003134870
 Root    285 :    36.454562373450320
 Root    286 :    36.644080178923610
 Root    287 :    36.644115047886910
 Root    288 :    36.879779143744940
 Root    289 :    36.879880381654090
 Root    290 :    36.957231977734510
 Root    291 :    36.960979673528640
 Root    292 :    36.961054440978810
 Root    293 :    37.059236527791270
 Root    294 :    37.227017682344460
 Root    295 :    37.419813643375430
 Root    296 :    37.671702103317120
 Root    297 :    37.671704291993180
 Root    298 :    37.780541784701380
 Root    299 :    37.780609533083510
 Root    300 :    37.900229750377680
 Root    301 :    37.919618713634660
 Root    302 :    37.919628665226610
 Root    303 :    38.037254119946790
 Root    304 :    38.037306132251080
 Root    305 :    38.130347910694500
 Root    306 :    38.220233923552420
 Root    307 :    38.286113002472180
 Root    308 :    38.433663962112320
 Root    309 :    38.614212648998490
 Root    310 :    38.614283539944840
 Root    311 :    38.832002934016340
 Root    312 :    39.053946732735260
 Root    313 :    39.054008312070240
 Root    314 :    39.151298071200160
 Root    315 :    39.151311645053030
 Root    316 :    39.280432804291660
 Root    317 :    39.461455765383580
 Root    318 :    39.635353818775180
 Root    319 :    39.635428464291340
 Root    320 :    39.747014390592080
 Root    321 :    39.857494009141550
 Root    322 :    39.857563020460850
 Root    323 :    39.866949867436520
 Root    324 :    40.081635647204920
 Root    325 :    40.081823952067530
 Root    326 :    40.730886249702760
 Root    327 :    40.730991242605050
 Root    328 :    41.003699865071260
 Root    329 :    41.003783772005000
 Root    330 :    41.085418341979600
 Root    331 :    41.085607226443740
 Root    332 :    41.131447471559670
 Root    333 :    41.131617076502190
 Root    334 :    41.270533309255240
 Root    335 :    41.270554162780330
 Root    336 :    41.749698848833850
 Root    337 :    41.749807490152710
 Root    338 :    42.092595813587200
 Root    339 :    42.092629167780510
 Root    340 :    42.237994814079510
 Root    341 :    42.238360696584390
 Root    342 :    42.424259128263380
 Root    343 :    42.430077073722520
 Root    344 :    42.567072281972070
 Root    345 :    42.567097272702490
 Root    346 :    42.998052047954490
 Root    347 :    42.998507192063070
 Root    348 :    43.350956676387210
 Root    349 :    43.652638929046400
 Root    350 :    43.652804336415900
 Root    351 :    43.919959905366250
 Root    352 :    44.588139444333100
 Root    353 :    44.653870034605310
 Root    354 :    44.653887527443940
 Root    355 :    44.878645360761990
 Root    356 :    44.878653545028920
 Root    357 :    44.891367913773660
 Root    358 :    44.933653015721780
 Root    359 :    44.978630064787820
 Root    360 :    45.130372334897150
 Root    361 :    45.522942113094770
 Root    362 :    45.782428300462320
 Root    363 :    45.782516509229970
 Root    364 :    45.858141231354470
 Root    365 :    45.858160590351150
 Root    366 :    45.946792568432140
 Root    367 :    46.197941144596560
 Root    368 :    46.388120180693270
 Root    369 :    46.388260536089890
 Root    370 :    46.579267223945340
 Root    371 :    46.579378445815370
 Root    372 :    47.652955999517460
 Root    373 :    47.696216082608440
 Root    374 :    48.051849629471870
 Root    375 :    48.051914633629040
 Root    376 :    48.169403371209270
 Root    377 :    48.410248871682260
 Root    378 :    48.562975154713090
 Root    379 :    48.563007266987710
 Root    380 :    49.013659005150970
 Root    381 :    49.096990133641990
 Root    382 :    49.299674551083530
 Root    383 :    49.299729846174740
 Root    384 :    49.487591159565990
 Root    385 :    49.487675942692020
 Root    386 :    50.225695532442710
 Root    387 :    50.540490794254090
 Root    388 :    50.540545787632130
 Root    389 :    50.585834607570610
 Root    390 :    50.687776783468860
 Root    391 :    50.687790508556340
 Root    392 :    50.783601843206380
 Root    393 :    50.919315872216070
 Root    394 :    51.373574758417640
 Root    395 :    51.373670201568610
 Root    396 :    51.390324137076230
 Root    397 :    51.390367666000850
 Root    398 :    51.538184919965990
 Root    399 :    51.596213392376310
 Root    400 :    51.603024176117860
 Root    401 :    51.603105909636350
 Root    402 :    51.607919443550170
 Root    403 :    52.601802149553810
 Root    404 :    52.602133161300230
 Root    405 :    52.776140387585660
 Root    406 :    52.776330948514040
 Root    407 :    52.989120022740050
 Root    408 :    53.178597710430540
 Root    409 :    53.361352346138790
 Root    410 :    53.472990800220100
 Root    411 :    53.473100202426610
 Root    412 :    53.492480852150750
 Root    413 :    53.492535879951910
 Root    414 :    53.665897515700700
 Root    415 :    53.666073438926540
 Root    416 :    53.674135549914050
 Root    417 :    53.674231704998820
 Root    418 :    53.824944429183300
 Root    419 :    53.846151726124740
 Root    420 :    54.159982948277840
 Root    421 :    54.160102024499370
 Root    422 :    54.613912266230140
 Root    423 :    54.613966637966050
 Root    424 :    54.835478134631710
 Root    425 :    55.020584230515110
 Root    426 :    55.020663120900830
 Root    427 :    55.767439552139660
 Root    428 :    55.767485896923560
 Root    429 :    55.812813069157020
 Root    430 :    55.812880491048910
 Root    431 :    56.073575389068180
 Root    432 :    56.073613822142540
 Root    433 :    56.165210842154340
 Root    434 :    56.273716817517530
 Root    435 :    56.356285831164430
 Root    436 :    56.356346077633490
 Root    437 :    56.371497373458520
 Root    438 :    56.371549068289040
 Root    439 :    56.636309393416480
 Root    440 :    56.636435469520500
 Root    441 :    56.862398200944540
 Root    442 :    56.862537153005650
 Root    443 :    57.407609054829810
 Root    444 :    57.511377735384850
 Root    445 :    57.511451951149160
 Root    446 :    57.663086847551490
 Root    447 :    57.663123307792700
 Root    448 :    57.853718393030900
 Root    449 :    58.073180535559440
 Root    450 :    58.108273062905590
 Root    451 :    58.141876599351970
 Root    452 :    58.141933033147610
 Root    453 :    58.326439451999960
 Root    454 :    58.357851590127590
 Root    455 :    58.357894347824780
 Root    456 :    58.439526437155690
 Root    457 :    58.623465724534870
 Root    458 :    58.652176794454580
 Root    459 :    58.892890922375490
 Root    460 :    58.893007990966910
 Root    461 :    58.924157116408930
 Root    462 :    58.924202762227690
 Root    463 :    58.960263293252650
 Root    464 :    59.131718254635890
 Root    465 :    59.264089552482550
 Root    466 :    59.391057659577960
 Root    467 :    59.435216482977220
 Root    468 :    59.435262546330020
 Root    469 :    59.485294533594360
 Root    470 :    59.788696679964890
 Root    471 :    59.926387397112110
 Root    472 :    60.320650401779120
 Root    473 :    60.320714283854460
 Root    474 :    60.350130602736030
 Root    475 :    60.432139164702890
 Root    476 :    60.491351494509730
 Root    477 :    60.519127275558420
 Root    478 :    60.519150091448090
 Root    479 :    60.717291264022060
 Root    480 :    60.788527951474170
 Root    481 :    60.998913978720940
 Root    482 :    60.999187905475520
 Root    483 :    61.091002300582670
 Root    484 :    61.091069409496460
 Root    485 :    61.384336781423290
 Root    486 :    61.817316468845400
 Root    487 :    61.933437067286180
 Root    488 :    61.933756754038550
 Root    489 :    61.985278250680960
 Root    490 :    62.402737672043760
 Root    491 :    62.402794328359060
 Root    492 :    62.538757454843430
 Root    493 :    62.538853608906040
 Root    494 :    62.580610216256500
 Root    495 :    63.282205203191880
 Root    496 :    63.282656650478750
 Root    497 :    63.606712257350350
 Root    498 :    63.606948690967110
 Root    499 :    63.893304872985380
 Root    500 :    63.893591848814240
 Root    501 :    64.060189356930240
 Root    502 :    64.060677083323700
 Root    503 :    64.171632287483580
 Root    504 :    64.171748105285690
 Root    505 :    64.695946870489110
 Root    506 :    64.696301513098180
 Root    507 :    64.722875283868220
 Root    508 :    64.871005605138000
 Root    509 :    64.871054453024310
 Root    510 :    65.063151884265570
 Root    511 :    65.457592429696930
 Root    512 :    65.457717029267070
 Root    513 :    65.733700384795380
 Root    514 :    65.733957826203850
 Root    515 :    66.149843093808940
 Root    516 :    66.149972904794890
 Root    517 :    66.364722263507500
 Root    518 :    66.954122996002850
 Root    519 :    66.954170799347980
 Root    520 :    67.126737456409900
 Root    521 :    67.126810575501890
 Root    522 :    67.286321182635230
 Root    523 :    67.426412144389660
 Root    524 :    67.616807889745810
 Root    525 :    67.616886059036300
 Root    526 :    67.978405373882780
 Root    527 :    67.978547004941870
 Root    528 :    67.984385045834900
 Root    529 :    68.423894316026140
 Root    530 :    69.016144323286030
 Root    531 :    69.016559374385960
 Root    532 :    69.237725672926250
 Root    533 :    69.316767552877790
 Root    534 :    69.546817710180720
 Root    535 :    69.729456662356090
 Root    536 :    69.729604411752210
 Root    537 :    70.694903357273090
 Root    538 :    70.695178739728630
 Root    539 :    70.978042589043340
 Root    540 :    70.978140668083460
 Root    541 :    71.626539279554070
 Root    542 :    71.626856844507160
 Root    543 :    71.945713306767250
 Root    544 :    71.945911491253130
 Root    545 :    71.968440875025380
 Root    546 :    71.968501208559360
 Root    547 :    72.029051983176220
 Root    548 :    72.132238185033530
 Root    549 :    72.439657404434940
 Root    550 :    72.439766025064070
 Root    551 :    72.477246512157690
 Root    552 :    72.537992465661530
 Root    553 :    72.703929221837500
 Root    554 :    72.704084378341830
 Root    555 :    73.337586030529450
 Root    556 :    73.487295833190190
 Root    557 :    73.732347049237010
 Root    558 :    73.732895901080940
 Root    559 :    73.954365357444470
 Root    560 :    74.070040802157710
 Root    561 :    74.070126609995580
 Root    562 :    74.289128020543000
 Root    563 :    74.289294035236010
 Root    564 :    74.447280178031720
 Root    565 :    74.447348103924880
 Root    566 :    74.520549077351830
 Root    567 :    74.626614597031160
 Root    568 :    75.070827309762390
 Root    569 :    75.242092454282330
 Root    570 :    75.242193503906730
 Root    571 :    75.446702056959000
 Root    572 :    75.541450831843870
 Root    573 :    75.627181605747470
 Root    574 :    75.748678954321240
 Root    575 :    75.748737873307580
 Root    576 :    76.063628441272630
 Root    577 :    76.401108100692160
 Root    578 :    76.401210332325190
 Root    579 :    76.622957102035140
 Root    580 :    76.784619368538000
 Root    581 :    76.816080408659400
 Root    582 :    76.844393220040000
 Root    583 :    76.862248052429450
 Root    584 :    76.862365432957400
 Root    585 :    77.045577533741930
 Root    586 :    77.045710672267220
 Root    587 :    77.207384889728350
 Root    588 :    77.207508340644050
 Root    589 :    77.219316215525170
 Root    590 :    77.219491237035260
 Root    591 :    77.375622094963480
 Root    592 :    77.491944826248360
 Root    593 :    77.512277212188660
 Root    594 :    77.512315074860910
 Root    595 :    77.575647225625000
 Root    596 :    77.661283218963920
 Root    597 :    77.685950640374060
 Root    598 :    77.686133277911710
 Root    599 :    77.955606229475090
 Root    600 :    77.966296154140960
 Root    601 :    77.966421073547180
 Root    602 :    78.014896914369740
 Root    603 :    78.214978210801210
 Root    604 :    78.215203415573710
 Root    605 :    78.275732168361420
 Root    606 :    78.275919982541000
 Root    607 :    78.300950325798580
 Root    608 :    78.847195104330720
 Root    609 :    79.094887076669880
 Root    610 :    79.095104650182520
 Root    611 :    79.194044884168660
 Root    612 :    79.317402915508080
 Root    613 :    79.317436694284150
 Root    614 :    79.643528370065110
 Root    615 :    79.643580775464400
 Root    616 :    79.709712272255870
 Root    617 :    80.000321806793750
 Root    618 :    80.000539977366640
 Root    619 :    80.029478223791390
 Root    620 :    80.029523213700430
 Root    621 :    80.073221637144290
 Root    622 :    80.155306178741000
 Root    623 :    80.155394898511520
 Root    624 :    80.232259511826300
 Root    625 :    80.551445143527520
 Root    626 :    80.599663191119500
 Root    627 :    80.600727970986510
 Root    628 :    80.780101763856830
 Root    629 :    80.780182274324280
 Root    630 :    80.960233673852260
 Root    631 :    80.960343502307280
 Root    632 :    81.099383569855920
 Root    633 :    81.099600792860530
 Root    634 :    81.141663399622730
 Root    635 :    81.453118406519390
 Root    636 :    81.454185893955780
 Root    637 :    81.760429658610560
 Root    638 :    82.059079178152860
 Root    639 :    82.059296962302030
 Root    640 :    82.233107814624770
 Root    641 :    82.233195032188280
 Root    642 :    82.464812461601060
 Root    643 :    82.795334075922030
 Root    644 :    82.921440661715420
 Root    645 :    82.921859400879140
 Root    646 :    82.923768314491540
 Root    647 :    83.041810278653460
 Root    648 :    83.041939366290630
 Root    649 :    83.060001115976950
 Root    650 :    83.075479516628460
 Root    651 :    83.661676449934280
 Root    652 :    83.741808607277720
 Root    653 :    83.742082889129900
 Root    654 :    83.878310277247960
 Root    655 :    83.878343696597400
 Root    656 :    84.030800661758550
 Root    657 :    84.088112862838030
 Root    658 :    84.152736071729180
 Root    659 :    84.258639229585610
 Root    660 :    84.258771682102430
 Root    661 :    84.263455751665770
 Root    662 :    84.270024189043810
 Root    663 :    84.461623306676430
 Root    664 :    84.461692204296270
 Root    665 :    84.655866585844170
 Root    666 :    84.826459156361080
 Root    667 :    85.605526394536540
 Root    668 :    85.863350289537080
 Root    669 :    85.863619904580050
 Root    670 :    86.035359065965210
 Root    671 :    86.035444627713330
 Root    672 :    86.311584568540340
 Root    673 :    86.388160428258660
 Root    674 :    86.528706131104090
 Root    675 :    86.759763365555070
 Root    676 :    86.759826061547780
 Root    677 :    86.839048921273800
 Root    678 :    86.894479035539590
 Root    679 :    86.894723999571480
 Root    680 :    86.948299597772760
 Root    681 :    86.963165919995670
 Root    682 :    86.963770808458350
[...]
      8   0.000000D+00  0.000000D+00  0.000000D+00  0.000000D+00 -0.139011D+00
      9   0.000000D+00  0.000000D+00  0.000000D+00  0.000000D+00 -0.171521D-01
     10  -0.110210D-04 -0.897503D-05  0.344619D-05 -0.301268D-05  0.000000D+00
     11  -0.175356D-01 -0.127005D+00 -0.397286D-02  0.127655D+00  0.000000D+00
     12   0.174889D-01  0.127073D+00  0.405643D-02 -0.127613D+00  0.000000D+00
     13   0.130699D-04  0.168086D-05 -0.201794D-04 -0.128867D-04  0.000000D+00
     14  -0.126953D+00  0.174863D-01 -0.127854D+00 -0.410355D-02  0.000000D+00
     15   0.000000D+00  0.000000D+00  0.000000D+00  0.000000D+00  0.305805D-01
     16   0.000000D+00  0.000000D+00  0.000000D+00  0.000000D+00 -0.247677D+00
               986           987           988           989           990 
      1  -0.112919D+03 -0.112916D+03 -0.112907D+03 -0.112899D+03 -0.112899D+03
      2   0.000000D+00  0.000000D+00  0.614038D-05  0.000000D+00  0.000000D+00
      3   0.000000D+00  0.000000D+00  0.123771D-05  0.000000D+00  0.000000D+00
      4   0.275416D-05 -0.526019D-02  0.000000D+00  0.000000D+00  0.000000D+00
      5   0.000000D+00  0.000000D+00 -0.644315D-05  0.000000D+00  0.000000D+00
      6   0.000000D+00  0.000000D+00  0.108790D-04  0.000000D+00  0.000000D+00
      7  -0.385146D-04  0.885827D-01  0.000000D+00 -0.116132D-04  0.129782D-04
      8  -0.171660D-01 -0.483127D-04  0.000000D+00  0.127612D-01  0.286691D-01
      9   0.139012D+00  0.477348D-04  0.000000D+00  0.286928D-01 -0.128059D-01
     10   0.000000D+00  0.000000D+00 -0.301879D+00  0.000000D+00  0.000000D+00
     11   0.000000D+00  0.000000D+00 -0.226856D-03  0.000000D+00  0.000000D+00
     12   0.000000D+00  0.000000D+00  0.226732D-03  0.000000D+00  0.000000D+00
     13   0.000000D+00  0.000000D+00  0.000000D+00  0.000000D+00  0.000000D+00
     14   0.000000D+00  0.000000D+00  0.202232D-03  0.000000D+00  0.000000D+00
     15  -0.247680D+00 -0.917395D-04  0.000000D+00 -0.413805D-01  0.184708D-01
     16  -0.305643D-01 -0.949626D-04  0.000000D+00  0.183962D-01  0.413335D-01
               991           992           993           994           995 
      1  -0.112886D+03 -0.112886D+03 -0.112882D+03 -0.112880D+03 -0.112839D+03
      2   0.733264D-02  0.110465D-01 -0.213930D-04  0.000000D+00 -0.618915D-05
      3   0.110480D-01 -0.732674D-02 -0.132053D-04  0.000000D+00  0.143664D-04
      4   0.000000D+00  0.000000D+00  0.000000D+00  0.000000D+00  0.000000D+00
      5  -0.550492D-03 -0.816365D-03  0.686938D-05  0.000000D+00  0.465197D-04
      6  -0.814067D-03  0.531253D-03 -0.130132D-04  0.000000D+00 -0.783596D-04
      7   0.000000D+00  0.000000D+00  0.000000D+00  0.000000D+00  0.000000D+00
      8   0.000000D+00  0.000000D+00  0.000000D+00  0.759186D-05  0.000000D+00
      9   0.000000D+00  0.000000D+00  0.000000D+00  0.152092D-04  0.000000D+00
     10   0.132288D-03  0.493095D-04  0.000000D+00  0.000000D+00  0.000000D+00
     11  -0.146713D+00 -0.603126D+00 -0.222574D+00  0.000000D+00 -0.517801D-01
     12   0.145771D+00  0.602822D+00 -0.223893D+00  0.000000D+00 -0.516422D-01
     13   0.228547D-03  0.845384D-04  0.117557D+00  0.000000D+00 -0.141118D+00
     14   0.602995D+00 -0.146224D+00 -0.996045D-03  0.000000D+00 -0.516389D-04
     15   0.000000D+00  0.000000D+00  0.000000D+00 -0.135326D-04  0.000000D+00
     16   0.000000D+00  0.000000D+00  0.000000D+00  0.103595D-04  0.000000D+00
               996           997           998           999          1000 
      1  -0.112821D+03 -0.112810D+03 -0.112810D+03 -0.112806D+03 -0.112806D+03
      2   0.000000D+00  0.210931D-01  0.323230D-01  0.000000D+00  0.000000D+00
      3   0.000000D+00  0.323272D-01 -0.210911D-01  0.000000D+00  0.000000D+00
      4  -0.306535D-01  0.000000D+00  0.000000D+00  0.232067D-05 -0.111150D-04
      5   0.000000D+00 -0.124630D+00 -0.190989D+00  0.000000D+00  0.000000D+00
      6   0.000000D+00 -0.191008D+00  0.124622D+00  0.000000D+00  0.000000D+00
      7   0.144191D+00  0.000000D+00  0.000000D+00 -0.974204D-05  0.477407D-04
      8  -0.281680D-04  0.000000D+00  0.000000D+00  0.112952D+00  0.816058D-01
      9  -0.484715D-04  0.000000D+00  0.000000D+00 -0.815987D-01  0.112956D+00
     10   0.000000D+00  0.825254D-04  0.448767D-04  0.000000D+00  0.000000D+00
     11   0.000000D+00  0.304691D-01  0.128729D+00  0.000000D+00  0.000000D+00
     12   0.000000D+00 -0.300293D-01 -0.129461D+00  0.000000D+00  0.000000D+00
     13   0.000000D+00  0.651544D-04 -0.157943D-03  0.000000D+00  0.000000D+00
     14   0.000000D+00 -0.129073D+00  0.302685D-01  0.000000D+00  0.000000D+00
     15   0.592675D-05  0.000000D+00  0.000000D+00  0.524108D-02 -0.726327D-02
     16  -0.713130D-05  0.000000D+00  0.000000D+00  0.725911D-02  0.525042D-02
              1001          1002          1003          1004          1005 
      1  -0.112799D+03 -0.112794D+03 -0.112784D+03 -0.112764D+03 -0.112764D+03
      2  -0.115334D-04  0.232829D-04  0.000000D+00  0.172726D-01  0.480236D-01
      3   0.385008D-04  0.232617D-04  0.000000D+00 -0.480238D-01  0.172720D-01
      4   0.000000D+00  0.000000D+00  0.000000D+00  0.000000D+00  0.000000D+00
      5   0.673759D-04 -0.136174D-03  0.000000D+00 -0.894829D-01 -0.248803D+00
      6  -0.224103D-03 -0.132749D-03  0.000000D+00  0.248799D+00 -0.894856D-01
      7   0.000000D+00  0.000000D+00  0.000000D+00  0.000000D+00  0.000000D+00
      8   0.000000D+00  0.000000D+00  0.239670D-05  0.000000D+00  0.000000D+00
      9   0.000000D+00  0.000000D+00 -0.275556D-04  0.000000D+00  0.000000D+00
     10   0.000000D+00 -0.152417D+00  0.000000D+00 -0.199575D-04 -0.330666D-05
     11  -0.470503D+00  0.431916D-04  0.000000D+00  0.209233D-01  0.254121D-01
     12  -0.470315D+00 -0.436923D-04  0.000000D+00 -0.210621D-01 -0.252368D-01
     13  -0.144331D+00  0.000000D+00  0.000000D+00 -0.362693D-04  0.473947D-04
     14  -0.963982D-04 -0.943320D-04  0.000000D+00  0.253110D-01 -0.210658D-01
     15   0.000000D+00  0.000000D+00  0.597198D-05  0.000000D+00  0.000000D+00
     16   0.000000D+00  0.000000D+00 -0.138127D-04  0.000000D+00  0.000000D+00
              1006          1007          1008          1009          1010 
      1  -0.112711D+03 -0.112711D+03 -0.112680D+03 -0.112680D+03 -0.112664D+03
      2   0.137729D-01  0.315741D-01  0.000000D+00  0.000000D+00  0.000000D+00
      3   0.315819D-01 -0.137729D-01  0.000000D+00  0.000000D+00  0.000000D+00
      4   0.000000D+00  0.000000D+00  0.167177D-05  0.000000D+00  0.000000D+00
      5  -0.693576D-01 -0.158988D+00  0.000000D+00  0.000000D+00  0.000000D+00
      6  -0.159034D+00  0.693493D-01  0.000000D+00  0.000000D+00  0.000000D+00
      7   0.000000D+00  0.000000D+00 -0.822369D-05  0.000000D+00  0.000000D+00
      8   0.000000D+00  0.000000D+00  0.565963D-01  0.199446D-01 -0.448969D-02
      9   0.000000D+00  0.000000D+00 -0.199562D-01  0.565512D-01 -0.458790D-02
     10  -0.127119D-04  0.175149D-04  0.000000D+00  0.000000D+00  0.000000D+00
     11  -0.818880D-02 -0.128599D+00  0.000000D+00  0.000000D+00  0.000000D+00
     12   0.814580D-02  0.128577D+00  0.000000D+00  0.000000D+00  0.000000D+00
     13  -0.126772D-04 -0.378150D-05  0.000000D+00  0.000000D+00  0.000000D+00
     14   0.128604D+00 -0.816202D-02  0.000000D+00  0.000000D+00  0.000000D+00
     15   0.000000D+00  0.000000D+00 -0.189946D-01  0.539290D-01 -0.456813D-01
     16   0.000000D+00  0.000000D+00 -0.538865D-01 -0.190260D-01  0.443006D-01
              1011          1012          1013          1014          1015 
      1  -0.112664D+03 -0.112661D+03 -0.112661D+03 -0.112590D+03 -0.112582D+03
      2   0.000000D+00  0.000000D+00  0.000000D+00 -0.110714D-04  0.143903D-04
      3   0.000000D+00  0.000000D+00  0.000000D+00  0.493655D-05  0.199376D-05
      4   0.137120D-05 -0.101111D-05 -0.191920D-05  0.000000D+00  0.000000D+00
      5   0.000000D+00  0.000000D+00  0.000000D+00  0.851872D-04 -0.843138D-04
      6   0.000000D+00  0.000000D+00  0.000000D+00 -0.489851D-04 -0.395877D-04
      7  -0.476468D-05  0.465552D-05  0.821724D-05  0.000000D+00  0.000000D+00
      8  -0.465965D-02  0.176837D+00 -0.272798D-03  0.000000D+00  0.000000D+00
      9   0.449049D-02  0.277679D-03  0.176849D+00  0.000000D+00  0.000000D+00
     10   0.000000D+00  0.000000D+00  0.000000D+00 -0.512722D+00  0.000000D+00
     11   0.000000D+00  0.000000D+00  0.000000D+00 -0.128636D-03 -0.174817D+00
     12   0.000000D+00  0.000000D+00  0.000000D+00  0.128759D-03 -0.174914D+00
     13   0.000000D+00  0.000000D+00  0.000000D+00  0.000000D+00 -0.165579D-01
     14   0.000000D+00  0.000000D+00  0.000000D+00 -0.418769D-04 -0.645269D-04
     15   0.443453D-01 -0.221666D-03 -0.151141D+00  0.000000D+00  0.000000D+00
     16   0.456025D-01  0.151175D+00 -0.248786D-03  0.000000D+00  0.000000D+00
              1016          1017          1018          1019          1020 
      1  -0.112574D+03 -0.112574D+03 -0.112563D+03 -0.112563D+03 -0.112543D+03
      2  -0.350822D-02 -0.150898D-01  0.187227D-01 -0.283726D-01  0.196922D-05
      3  -0.151274D-01  0.348667D-02  0.283416D-01  0.187350D-01  0.373293D-05
      4   0.000000D+00  0.000000D+00  0.000000D+00  0.000000D+00  0.000000D+00
      5   0.351728D-01  0.151597D+00 -0.995130D-01  0.150884D+00 -0.561317D-05
      6   0.151788D+00 -0.350571D-01 -0.150609D+00 -0.996118D-01 -0.190276D-04
      7   0.000000D+00  0.000000D+00  0.000000D+00  0.000000D+00  0.000000D+00
      8   0.000000D+00  0.000000D+00  0.000000D+00  0.000000D+00  0.000000D+00
      9   0.000000D+00  0.000000D+00  0.000000D+00  0.000000D+00  0.000000D+00
     10  -0.933359D-04  0.199694D-03  0.642120D-04  0.652672D-04 -0.306179D+00
     11   0.296470D-01 -0.245874D+00  0.482984D-01 -0.201094D+00  0.000000D+00
     12  -0.297823D-01  0.245873D+00 -0.482941D-01  0.201018D+00  0.000000D+00
     13   0.516091D-05  0.752939D-05 -0.128584D-04 -0.455157D-05  0.000000D+00
     14   0.246119D+00  0.298061D-01 -0.200696D+00 -0.482412D-01 -0.240378D-04
     15   0.000000D+00  0.000000D+00  0.000000D+00  0.000000D+00  0.000000D+00
     16   0.000000D+00  0.000000D+00  0.000000D+00  0.000000D+00  0.000000D+00
              1021          1022          1023          1024          1025 
      1  -0.112543D+03 -0.112437D+03 -0.112437D+03 -0.112328D+03 -0.112328D+03
      2   0.000000D+00  0.425145D-02  0.100933D-02 -0.168070D-02 -0.325444D-02
      3   0.000000D+00  0.101018D-02 -0.425150D-02 -0.325077D-02  0.168785D-02
      4   0.000000D+00  0.000000D+00  0.000000D+00  0.000000D+00  0.000000D+00
      5   0.000000D+00 -0.627972D-02 -0.149022D-02  0.263199D-01  0.508850D-01
      6   0.000000D+00 -0.149223D-02  0.627756D-02  0.508667D-01 -0.263695D-01
      7   0.000000D+00  0.000000D+00  0.000000D+00  0.000000D+00  0.000000D+00
      8  -0.885943D-05  0.000000D+00  0.000000D+00  0.000000D+00  0.000000D+00
      9  -0.143373D-04  0.000000D+00  0.000000D+00  0.000000D+00  0.000000D+00
     10   0.000000D+00  0.224278D-04  0.116792D-04  0.362445D-05  0.935003D-05
     11   0.000000D+00 -0.314855D-01 -0.207095D-01 -0.306912D-01 -0.235155D+00
     12   0.000000D+00  0.315122D-01  0.206883D-01  0.306982D-01  0.235144D+00
     13   0.000000D+00 -0.915670D-05  0.768352D-05  0.000000D+00 -0.355569D-05
     14   0.000000D+00  0.206763D-01 -0.315071D-01  0.235130D+00 -0.307547D-01
     15   0.721397D-05  0.000000D+00  0.000000D+00  0.000000D+00  0.000000D+00
     16  -0.486606D-05  0.000000D+00  0.000000D+00  0.000000D+00  0.000000D+00
              1026          1027          1028          1029          1030 
      1  -0.112209D+03 -0.953573D+02 -0.953573D+02 -0.952799D+02 -0.952740D+02
      2  -0.185379D-05 -0.267079D-01  0.531757D-02 -0.150699D-05  0.000000D+00
      3   0.000000D+00 -0.531783D-02 -0.267063D-01 -0.226290D-05  0.000000D+00
      4   0.000000D+00  0.000000D+00  0.000000D+00  0.000000D+00 -0.703051D-05
      5   0.863867D-05  0.954948D-01 -0.190123D-01  0.448363D-04  0.000000D+00
      6  -0.496101D-05  0.190128D-01  0.954791D-01  0.597190D-04  0.000000D+00
      7   0.000000D+00  0.000000D+00  0.000000D+00  0.000000D+00  0.786796D-04
      8   0.000000D+00  0.000000D+00  0.000000D+00  0.000000D+00  0.234843D+00
      9   0.000000D+00  0.000000D+00  0.000000D+00  0.000000D+00 -0.107344D+00
     10   0.177823D+00  0.383040D-04  0.299864D-04  0.400939D+00  0.000000D+00
     11  -0.446891D-05  0.288398D+00 -0.174614D+00 -0.126202D-04  0.000000D+00
     12   0.445724D-05 -0.288437D+00  0.174630D+00  0.126702D-04  0.000000D+00
     13   0.000000D+00 -0.703066D-05  0.000000D+00  0.000000D+00  0.000000D+00
     14  -0.792830D-05 -0.174623D+00 -0.288418D+00  0.343262D-04  0.000000D+00
     15   0.000000D+00  0.000000D+00  0.000000D+00  0.000000D+00  0.130454D+00
     16   0.000000D+00  0.000000D+00  0.000000D+00  0.000000D+00  0.285401D+00
              1031          1032          1033          1034          1035 
      1  -0.952740D+02 -0.952522D+02 -0.952522D+02 -0.952412D+02 -0.952185D+02
      2   0.000000D+00 -0.736759D-03 -0.128446D-01  0.817704D-05  0.000000D+00
      3   0.000000D+00 -0.128470D-01  0.737171D-03 -0.336439D-05  0.000000D+00
      4  -0.572466D-05  0.000000D+00  0.000000D+00  0.000000D+00  0.230865D-01
      5   0.000000D+00  0.111607D-01  0.194519D+00 -0.134854D-03  0.000000D+00
      6   0.000000D+00  0.194531D+00 -0.111591D-01  0.557238D-04  0.000000D+00
      7   0.623883D-04  0.000000D+00  0.000000D+00  0.000000D+00 -0.259942D+00
      8  -0.107341D+00  0.000000D+00  0.000000D+00  0.000000D+00  0.361873D-04
      9  -0.234826D+00  0.000000D+00  0.000000D+00  0.000000D+00 -0.665662D-04
     10   0.000000D+00 -0.146111D-03 -0.101301D-03  0.000000D+00  0.000000D+00
     11   0.000000D+00 -0.286318D-03  0.934089D-03  0.313526D+00  0.000000D+00
     12   0.000000D+00  0.157354D-03 -0.469566D-03  0.313513D+00  0.000000D+00
     13   0.000000D+00 -0.634256D-05  0.386409D-04  0.506020D-01  0.000000D+00
     14   0.000000D+00 -0.714547D-03 -0.201695D-03  0.718350D-05  0.000000D+00
     15   0.285380D+00  0.000000D+00  0.000000D+00  0.000000D+00  0.780140D-04
     16  -0.130450D+00  0.000000D+00  0.000000D+00  0.000000D+00  0.451454D-04
              1036          1037          1038          1039          1040 
      1  -0.951578D+02 -0.951518D+02 -0.951518D+02 -0.951249D+02 -0.950999D+02
      2  -0.125323D-05  0.000000D+00  0.000000D+00  0.000000D+00  0.000000D+00
      3   0.000000D+00  0.000000D+00  0.000000D+00  0.000000D+00  0.000000D+00
      4   0.000000D+00 -0.443860D-05  0.166006D-05  0.000000D+00  0.441286D-02
      5   0.138026D-04  0.000000D+00  0.000000D+00  0.000000D+00  0.000000D+00
      6  -0.712661D-05  0.000000D+00  0.000000D+00  0.000000D+00  0.000000D+00
      7   0.000000D+00  0.493229D-04 -0.185143D-04  0.000000D+00 -0.452226D-01
      8   0.000000D+00 -0.617841D-01 -0.101819D+00 -0.334969D-04  0.167470D-04
      9   0.000000D+00  0.101827D+00 -0.618054D-01  0.277683D-04  0.138822D-04
     10   0.000000D+00  0.000000D+00  0.000000D+00  0.000000D+00  0.000000D+00
     11   0.254267D+00  0.000000D+00  0.000000D+00  0.000000D+00  0.000000D+00
     12   0.254306D+00  0.000000D+00  0.000000D+00  0.000000D+00  0.000000D+00
     13   0.780034D-01  0.000000D+00  0.000000D+00  0.000000D+00  0.000000D+00
     14   0.265368D-05  0.000000D+00  0.000000D+00  0.000000D+00  0.000000D+00
     15   0.000000D+00 -0.119118D+00  0.723005D-01 -0.326577D-04 -0.162295D-04
     16   0.000000D+00 -0.722737D-01 -0.119106D+00 -0.393315D-04  0.194215D-04
              1041          1042          1043          1044          1045 
      1  -0.950761D+02 -0.950761D+02 -0.950176D+02 -0.950175D+02 -0.949956D+02
      2   0.105422D-02  0.100264D-01  0.000000D+00  0.000000D+00  0.505455D-03
      3   0.100261D-01 -0.105404D-02  0.000000D+00  0.000000D+00  0.267248D-02
      4   0.000000D+00  0.000000D+00  0.000000D+00  0.107203D-05  0.000000D+00
      5  -0.141528D-01 -0.134614D+00  0.000000D+00  0.000000D+00 -0.898969D-02
      6  -0.134606D+00  0.141521D-01  0.000000D+00  0.000000D+00 -0.475082D-01
      7   0.000000D+00  0.000000D+00 -0.512080D-05 -0.128850D-04  0.000000D+00
      8   0.000000D+00  0.000000D+00  0.112445D+00  0.465049D-02  0.000000D+00
      9   0.000000D+00  0.000000D+00  0.466480D-02 -0.112453D+00  0.000000D+00
     10   0.306866D-05  0.125331D-05  0.000000D+00  0.000000D+00 -0.216136D-05
     11  -0.581671D-01  0.234483D+00  0.000000D+00  0.000000D+00 -0.923431D-03
     12   0.581429D-01 -0.234448D+00  0.000000D+00  0.000000D+00  0.920974D-03
     13  -0.123203D-04 -0.393563D-05  0.000000D+00  0.000000D+00 -0.583695D-05
     14  -0.234465D+00 -0.581533D-01  0.000000D+00  0.000000D+00 -0.562094D-02
     15   0.000000D+00  0.000000D+00 -0.565323D-02  0.136288D+00  0.000000D+00
     16   0.000000D+00  0.000000D+00  0.136276D+00  0.563638D-02  0.000000D+00
              1046          1047          1048          1049          1050 
      1  -0.949956D+02 -0.949212D+02 -0.949004D+02 -0.949004D+02 -0.948869D+02
      2   0.267224D-02  0.000000D+00 -0.178190D-02  0.132286D-02 -0.107552D-05
      3  -0.506680D-03  0.000000D+00 -0.132217D-02 -0.178166D-02 -0.116259D-05
      4   0.000000D+00  0.000000D+00  0.000000D+00  0.000000D+00  0.000000D+00
      5  -0.475073D-01 -0.828000D-05  0.368643D-02 -0.273984D-02  0.106163D-05
      6   0.900348D-02 -0.552881D-05  0.272993D-02  0.368282D-02  0.118997D-05
      7   0.000000D+00  0.000000D+00  0.000000D+00  0.000000D+00  0.000000D+00
      8   0.000000D+00  0.000000D+00  0.000000D+00  0.000000D+00  0.000000D+00
      9   0.000000D+00  0.000000D+00  0.000000D+00  0.000000D+00  0.000000D+00
     10  -0.347793D-05  0.000000D+00 -0.626104D-04 -0.174390D-04  0.883464D-01
     11   0.556415D-02  0.402727D+00 -0.328067D-01  0.495102D-01 -0.147353D-04
     12  -0.566684D-02  0.402781D+00  0.324632D-01 -0.491702D-01  0.146438D-04
     13  -0.401167D-04  0.315513D+00 -0.132346D-03  0.134488D-03  0.000000D+00
     14  -0.899447D-03 -0.440460D-05  0.493327D-01  0.326354D-01  0.385426D-04
     15   0.000000D+00  0.000000D+00  0.000000D+00  0.000000D+00  0.000000D+00
     16   0.000000D+00  0.000000D+00  0.000000D+00  0.000000D+00  0.000000D+00
              1051          1052          1053 
      1  -0.947640D+02 -0.946689D+02 -0.946689D+02
      2   0.000000D+00  0.483634D-04 -0.159114D-02
      3   0.000000D+00 -0.159102D-02 -0.484293D-04
      4   0.000000D+00  0.000000D+00  0.000000D+00
      5  -0.291564D-05 -0.102725D-02  0.337951D-01
      6   0.000000D+00  0.337950D-01  0.102866D-02
      7   0.000000D+00  0.000000D+00  0.000000D+00
      8   0.000000D+00  0.000000D+00  0.000000D+00
      9   0.000000D+00  0.000000D+00  0.000000D+00
     10   0.000000D+00  0.000000D+00  0.000000D+00
     11   0.175564D+00  0.119225D-01 -0.299866D-01
     12   0.175558D+00 -0.119267D-01  0.300233D-01
     13   0.183198D+00 -0.442418D-05  0.176523D-04
     14  -0.287844D-05  0.300053D-01  0.119249D-01
     15   0.000000D+00  0.000000D+00  0.000000D+00
     16   0.000000D+00  0.000000D+00  0.000000D+00
 Unable to Open any file for archive entry.
 1\1\GINC-HEL17\SP\RwB97XD TD-FC\def2TZVP\C3H6\PRAKRITI\14-Aug-2021\0\\
 #P TD(Nstates=10000) wB97XD/def2TZVP SCF(maxcycles=100) Int(Grid=ultra
 fine)\\xGDB7_00001_tier4.com\\0,1\C,0,0.516845,0.69483,0.\C,0,-0.86016
 6,0.100195,0.\C,0,0.343308,-0.795021,0.\H,0,0.866514,1.164858,0.909176
 \H,0,0.866513,1.164859,-0.909176\H,0,-1.442047,0.167964,-0.909177\H,0,
 -1.442048,0.167965,0.909176\H,0,0.575574,-1.332837,-0.909179\H,0,0.575
 574,-1.332837,0.909179\\Version=EM64L-G16RevC.01\State=1-A'\HF=-117.90
 10648\RMSD=1.345e-09\PG=CS [SG(C3),X(H6)]\\@
 The archive entry for this job was punched.


 At the touch of love, everyone becomes a poet.
                                -- Plato
 Job cpu time:       0 days  0 hours 25 minutes 31.1 seconds.
 Elapsed time:       0 days  0 hours  3 minutes 11.8 seconds.
 File lengths (MBytes):  RWF=   1389 Int=      0 D2E=      0 Chk=    405 Scr=      1
 Normal termination of Gaussian 16 at Sat Aug 14 06:23:35 2021.
