 Entering Gaussian System, Link 0=g16
 Input=xGDB7_000029_TDDFT.com
 Output=xGDB7_000029_TDDFT.log
 Initial command:
 /home/prakriti/g16/l1.exe "/scratch/prakriti/PBS_7421656.helios/Gau-136951.inp" -scrdir="/scratch/prakriti/PBS_7421656.helios/"
 Entering Link 1 = /home/prakriti/g16/l1.exe PID=    136952.
  
 Copyright (c) 1988-2019, Gaussian, Inc.  All Rights Reserved.
  
 This is part of the Gaussian(R) 16 program.  It is based on
 the Gaussian(R) 09 system (copyright 2009, Gaussian, Inc.),
 the Gaussian(R) 03 system (copyright 2003, Gaussian, Inc.),
 the Gaussian(R) 98 system (copyright 1998, Gaussian, Inc.),
 the Gaussian(R) 94 system (copyright 1995, Gaussian, Inc.),
 the Gaussian 92(TM) system (copyright 1992, Gaussian, Inc.),
 the Gaussian 90(TM) system (copyright 1990, Gaussian, Inc.),
 the Gaussian 88(TM) system (copyright 1988, Gaussian, Inc.),
 the Gaussian 86(TM) system (copyright 1986, Carnegie Mellon
 University), and the Gaussian 82(TM) system (copyright 1983,
 Carnegie Mellon University). Gaussian is a federally registered
 trademark of Gaussian, Inc.
  
 This software contains proprietary and confidential information,
 including trade secrets, belonging to Gaussian, Inc.
  
 This software is provided under written license and may be
 used, copied, transmitted, or stored only in accord with that
 written license.
  
 The following legend is applicable only to US Government
 contracts under FAR:
  
                    RESTRICTED RIGHTS LEGEND
  
 Use, reproduction and disclosure by the US Government is
 subject to restrictions as set forth in subparagraphs (a)
 and (c) of the Commercial Computer Software - Restricted
 Rights clause in FAR 52.227-19.
  
 Gaussian, Inc.
 340 Quinnipiac St., Bldg. 40, Wallingford CT 06492
  
  
 ---------------------------------------------------------------
 Warning -- This program may not be used in any manner that
 competes with the business of Gaussian, Inc. or will provide
 assistance to any competitor of Gaussian, Inc.  The licensee
 of this program is prohibited from giving any competitor of
 Gaussian, Inc. access to this program.  By using this program,
 the user acknowledges that Gaussian, Inc. is engaged in the
 business of creating and licensing software in the field of
 computational chemistry and represents and warrants to the
 licensee that it is not a competitor of Gaussian, Inc. and that
 it will not use this program in any manner prohibited above.
 ---------------------------------------------------------------
  

 Cite this work as:
 Gaussian 16, Revision C.01,
 M. J. Frisch, G. W. Trucks, H. B. Schlegel, G. E. Scuseria, 
 M. A. Robb, J. R. Cheeseman, G. Scalmani, V. Barone, 
 G. A. Petersson, H. Nakatsuji, X. Li, M. Caricato, A. V. Marenich, 
 J. Bloino, B. G. Janesko, R. Gomperts, B. Mennucci, H. P. Hratchian, 
 J. V. Ortiz, A. F. Izmaylov, J. L. Sonnenberg, D. Williams-Young, 
 F. Ding, F. Lipparini, F. Egidi, J. Goings, B. Peng, A. Petrone, 
 T. Henderson, D. Ranasinghe, V. G. Zakrzewski, J. Gao, N. Rega, 
 G. Zheng, W. Liang, M. Hada, M. Ehara, K. Toyota, R. Fukuda, 
 J. Hasegawa, M. Ishida, T. Nakajima, Y. Honda, O. Kitao, H. Nakai, 
 T. Vreven, K. Throssell, J. A. Montgomery, Jr., J. E. Peralta, 
 F. Ogliaro, M. J. Bearpark, J. J. Heyd, E. N. Brothers, K. N. Kudin, 
 V. N. Staroverov, T. A. Keith, R. Kobayashi, J. Normand, 
 K. Raghavachari, A. P. Rendell, J. C. Burant, S. S. Iyengar, 
 J. Tomasi, M. Cossi, J. M. Millam, M. Klene, C. Adamo, R. Cammi, 
 J. W. Ochterski, R. L. Martin, K. Morokuma, O. Farkas, 
 J. B. Foresman, and D. J. Fox, Gaussian, Inc., Wallingford CT, 2019.
 
 ******************************************
 Gaussian 16:  EM64L-G16RevC.01  3-Jul-2019
                14-Aug-2021 
 ******************************************
 %mem=8gb
 %nproc=8
 Will use up to    8 processors via shared memory.
 ----------------------------------------------------------------------
 #P TD(Nstates=10000) wB97XD/def2TZVP SCF(maxcycles=100) Int(Grid=ultra
 fine)
 ----------------------------------------------------------------------
 1/38=1,172=1/1;
 2/12=2,17=6,18=5,40=1/2;
 3/5=44,7=101,11=9,25=1,30=1,74=-58,75=-5/1,2,3,8;
 4//1;
 5/5=2,7=100,38=5/2;
 8/6=1,10=1,108=10000/1;
 9/41=10000,42=1,70=2/14;
 6/7=2,8=2,9=2,10=2/1;
 99/5=1,9=1/99;
 Leave Link    1 at Sat Aug 14 06:17:01 2021, MaxMem=  1073741824 cpu:               0.4 elap:               0.1
 (Enter /home/prakriti/g16/l101.exe)
 ---------------------
 xGDB7_00001_tier4.com
 ---------------------
 Symbolic Z-matrix:
 Charge =  0 Multiplicity = 1
 8                    -1.02862  -0.39518   0. 
 7                     0.        0.52623   0. 
 6                     1.13275  -0.03091   0. 
 1                    -1.81657   0.15179   0. 
 1                     1.99426   0.62344   0. 
 1                     1.2548   -1.11197   0. 
 
 ITRead=  0  0  0  0  0  0
 MicOpt= -1 -1 -1 -1 -1 -1
 NAtoms=      6 NQM=        6 NQMF=       0 NMMI=      0 NMMIF=      0
                NMic=       0 NMicF=      0.
                    Isotopes and Nuclear Properties:
 (Nuclear quadrupole moments (NQMom) in fm**2, nuclear magnetic moments (NMagM)
  in nuclear magnetons)

  Atom         1           2           3           4           5           6
 IAtWgt=          16          14          12           1           1           1
 AtmWgt=  15.9949146  14.0030740  12.0000000   1.0078250   1.0078250   1.0078250
 NucSpn=           0           2           0           1           1           1
 AtZEff=  -0.0000000  -0.0000000  -0.0000000  -0.0000000  -0.0000000  -0.0000000
 NQMom=    0.0000000   2.0440000   0.0000000   0.0000000   0.0000000   0.0000000
 NMagM=    0.0000000   0.4037610   0.0000000   2.7928460   2.7928460   2.7928460
 AtZNuc=   8.0000000   7.0000000   6.0000000   1.0000000   1.0000000   1.0000000
 Leave Link  101 at Sat Aug 14 06:17:01 2021, MaxMem=  1073741824 cpu:               0.7 elap:               0.1
 (Enter /home/prakriti/g16/l202.exe)
                          Input orientation:                          
 ---------------------------------------------------------------------
 Center     Atomic      Atomic             Coordinates (Angstroms)
 Number     Number       Type             X           Y           Z
 ---------------------------------------------------------------------
      1          8           0       -1.028621   -0.395177    0.000000
      2          7           0        0.000000    0.526228    0.000000
      3          6           0        1.132746   -0.030907    0.000000
      4          1           0       -1.816572    0.151791    0.000000
      5          1           0        1.994262    0.623439    0.000000
      6          1           0        1.254802   -1.111965    0.000000
 ---------------------------------------------------------------------
                    Distance matrix (angstroms):
                    1          2          3          4          5
     1  O    0.000000
     2  N    1.380959   0.000000
     3  C    2.191849   1.262344   0.000000
     4  H    0.959188   1.854761   2.954971   0.000000
     5  H    3.189890   1.996630   1.081840   3.839910   0.000000
     6  H    2.393283   2.063542   1.087926   3.321207   1.886380
                    6
     6  H    0.000000
 Stoichiometry    CH3NO
 Framework group  CS[SG(CH3NO)]
 Deg. of freedom     9
 Full point group                 CS      NOp   2
 Largest Abelian subgroup         CS      NOp   2
 Largest concise Abelian subgroup C1      NOp   1
                         Standard orientation:                         
 ---------------------------------------------------------------------
 Center     Atomic      Atomic             Coordinates (Angstroms)
 Number     Number       Type             X           Y           Z
 ---------------------------------------------------------------------
      1          8           0       -1.028621   -0.395177   -0.000000
      2          7           0       -0.000000    0.526228   -0.000000
      3          6           0        1.132746   -0.030907    0.000000
      4          1           0       -1.816572    0.151791   -0.000000
      5          1           0        1.994262    0.623439    0.000000
      6          1           0        1.254802   -1.111965    0.000000
 ---------------------------------------------------------------------
 Rotational constants (GHZ):          71.1254820          11.9936263          10.2630126
 Leave Link  202 at Sat Aug 14 06:17:01 2021, MaxMem=  1073741824 cpu:               0.1 elap:               0.0
 (Enter /home/prakriti/g16/l301.exe)
 Standard basis: def2TZVP (5D, 7F)
 Ernie: Thresh=  0.10000D-02 Tol=  0.10000D-05 Strict=F.
 There are    90 symmetry adapted cartesian basis functions of A'  symmetry.
 There are    36 symmetry adapted cartesian basis functions of A"  symmetry.
 There are    78 symmetry adapted basis functions of A'  symmetry.
 There are    33 symmetry adapted basis functions of A"  symmetry.
   111 basis functions,   177 primitive gaussians,   126 cartesian basis functions
    12 alpha electrons       12 beta electrons
       nuclear repulsion energy        71.3165683749 Hartrees.
 IExCor= 4639 DFT=T Ex+Corr=wB97XD ExCW=0 ScaHFX=  1.000000
 ScaDFX=  1.000000  1.000000  1.000000  1.000000 ScalE2=  1.000000  1.000000
 IRadAn=      5 IRanWt=     -1 IRanGd=            0 ICorTp=0 IEmpDi=121
 HFx  wShort=  0.000000 wLong=  0.200000 cFull=  0.222036 cShort=  0.000000 cLong=  0.777964
 DFx  wShort=  0.000000 wLong=  0.200000 cFull=  0.000000 cShort=  0.000000 cLong=  1.000000
 NAtoms=    6 NActive=    6 NUniq=    6 SFac= 1.00D+00 NAtFMM=   60 NAOKFM=F Big=F
 Integral buffers will be    131072 words long.
 Raffenetti 1 integral format.
 Two-electron integral symmetry is turned on.
 R6Disp:  Grimme-D2 Dispersion energy=       -0.0006983295 Hartrees.
 Nuclear repulsion after empirical dispersion term =       71.3158700454 Hartrees.
 Leave Link  301 at Sat Aug 14 06:17:01 2021, MaxMem=  1073741824 cpu:               0.4 elap:               0.1
 (Enter /home/prakriti/g16/l302.exe)
 NPDir=0 NMtPBC=     1 NCelOv=     1 NCel=       1 NClECP=     1 NCelD=      1
         NCelK=      1 NCelE2=     1 NClLst=     1 CellRange=     0.0.
 One-electron integrals computed using PRISM.
 One-electron integral symmetry used in STVInt
   2 Symmetry operations used in ECPInt.
 ECPInt:  NShTT=    1035 NPrTT=    3156 LenC2=    1033 LenP2D=    2796.
 LDataN:  DoStor=T MaxTD1= 6 Len=  172
 NBasis=   111 RedAO= T EigKep=  7.14D-04  NBF=    78    33
 NBsUse=   111 1.00D-06 EigRej= -1.00D+00 NBFU=    78    33
 Precomputing XC quadrature grid using
 IXCGrd= 4 IRadAn=           5 IRanWt=          -1 IRanGd=           0 AccXCQ= 0.00D+00.
 Generated NRdTot=       0 NPtTot=           0 NUsed=           0 NTot=          32
 NSgBfM=   126   126   126   126   126 MxSgAt=     6 MxSgA2=     6.
 Leave Link  302 at Sat Aug 14 06:17:01 2021, MaxMem=  1073741824 cpu:               1.2 elap:               0.2
 (Enter /home/prakriti/g16/l303.exe)
 DipDrv:  MaxL=1.
 Leave Link  303 at Sat Aug 14 06:17:01 2021, MaxMem=  1073741824 cpu:               0.2 elap:               0.0
 (Enter /home/prakriti/g16/l308.exe)
 Leave Link  308 at Sat Aug 14 06:17:01 2021, MaxMem=  1073741824 cpu:               0.2 elap:               0.1
 (Enter /home/prakriti/g16/l401.exe)
 ExpMin= 9.52D-02 ExpMax= 2.70D+04 ExpMxC= 9.22D+02 IAcc=3 IRadAn=         5 AccDes= 0.00D+00
 Harris functional with IExCor= 4639 and IRadAn=       5 diagonalized for initial guess.
 HarFok:  IExCor= 4639 AccDes= 0.00D+00 IRadAn=         5 IDoV= 1 UseB2=F ITyADJ=14
 ICtDFT=  3500011 ScaDFX=  1.000000  1.000000  1.000000  1.000000
 FoFCou: FMM=F IPFlag=           0 FMFlag=      100000 FMFlg1=           0
         NFxFlg=           0 DoJE=T BraDBF=F KetDBF=T FulRan=T
         wScrn=  0.000000 ICntrl=       500 IOpCl=  0 I1Cent=   200000004 NGrid=           0
         NMat0=    1 NMatS0=      1 NMatT0=    0 NMatD0=    1 NMtDS0=    0 NMtDT0=    0
 Petite list used in FoFCou.
 Harris En= -163.193083154596    
 JPrj=0 DoOrth=F DoCkMO=F.
 Initial guess orbital symmetries:
       Occupied  (A') (A') (A') (A') (A') (A') (A') (A') (A') (A")
                 (A') (A")
       Virtual   (A") (A') (A') (A') (A') (A') (A') (A") (A') (A')
                 (A") (A') (A') (A") (A') (A') (A') (A') (A') (A")
                 (A') (A') (A") (A') (A') (A') (A") (A') (A") (A')
                 (A") (A') (A") (A') (A') (A') (A') (A") (A') (A")
                 (A') (A') (A") (A') (A") (A') (A") (A') (A') (A')
                 (A') (A') (A') (A") (A') (A') (A") (A") (A') (A')
                 (A") (A") (A') (A') (A") (A') (A') (A') (A') (A')
                 (A") (A') (A') (A") (A') (A') (A") (A") (A') (A')
                 (A') (A") (A") (A') (A') (A") (A') (A") (A') (A')
                 (A") (A') (A") (A') (A') (A') (A') (A') (A')
 The electronic state of the initial guess is 1-A'.
 Leave Link  401 at Sat Aug 14 06:17:02 2021, MaxMem=  1073741824 cpu:               2.7 elap:               0.4
 (Enter /home/prakriti/g16/l502.exe)
 Keep R1 ints in memory in symmetry-blocked form, NReq=58555803.
 FoFCou: FMM=F IPFlag=           0 FMFlag=           0 FMFlg1=           0
         NFxFlg=           0 DoJE=F BraDBF=F KetDBF=F FulRan=T
         wScrn=  0.000000 ICntrl=       600 IOpCl=  0 I1Cent=           0 NGrid=           0
         NMat0=    1 NMatS0=   6216 NMatT0=    0 NMatD0=    1 NMtDS0=    0 NMtDT0=    0
 Petite list used in FoFCou.
 Closed shell SCF:
 Using DIIS extrapolation, IDIIS=  1040.
 NGot=  1073741824 LenX=  1063745585 LenY=  1063729268
 Requested convergence on RMS density matrix=1.00D-08 within 100 cycles.
 Requested convergence on MAX density matrix=1.00D-06.
 Requested convergence on             energy=1.00D-06.
 No special actions if energy rises.
 Integral accuracy reduced to 1.0D-05 until final iterations.

 Cycle   1  Pass 0  IDiag  1:
 E= -169.726607860627    
 DIIS: error= 6.17D-02 at cycle   1 NSaved=   1.
 NSaved= 1 IEnMin= 1 EnMin= -169.726607860627     IErMin= 1 ErrMin= 6.17D-02
 ErrMax= 6.17D-02  0.00D+00 EMaxC= 1.00D-01 BMatC= 4.38D-01 BMatP= 4.38D-01
 IDIUse=3 WtCom= 3.83D-01 WtEn= 6.17D-01
 Coeff-Com:  0.100D+01
 Coeff-En:   0.100D+01
 Coeff:      0.100D+01
 Gap=     0.435 Goal=   None    Shift=    0.000
 GapD=    0.435 DampG=2.000 DampE=0.500 DampFc=1.0000 IDamp=-1.
 RMSDP=3.35D-03 MaxDP=7.04D-02              OVMax= 2.59D-01

 Cycle   2  Pass 0  IDiag  1:
 E= -169.705804625237     Delta-E=        0.020803235390 Rises=F Damp=F
 DIIS: error= 3.07D-02 at cycle   2 NSaved=   2.
 NSaved= 2 IEnMin= 1 EnMin= -169.726607860627     IErMin= 2 ErrMin= 3.07D-02
 ErrMax= 3.07D-02  0.00D+00 EMaxC= 1.00D-01 BMatC= 1.65D-01 BMatP= 4.38D-01
 IDIUse=3 WtCom= 6.93D-01 WtEn= 3.07D-01
 Coeff-Com:  0.349D+00 0.651D+00
 Coeff-En:   0.549D+00 0.451D+00
 Coeff:      0.411D+00 0.589D+00
 Gap=     0.392 Goal=   None    Shift=    0.000
 RMSDP=2.24D-03 MaxDP=5.75D-02 DE= 2.08D-02 OVMax= 1.69D-01

 Cycle   3  Pass 0  IDiag  1:
 E= -169.810553627778     Delta-E=       -0.104749002541 Rises=F Damp=F
 DIIS: error= 1.07D-02 at cycle   3 NSaved=   3.
 NSaved= 3 IEnMin= 3 EnMin= -169.810553627778     IErMin= 3 ErrMin= 1.07D-02
 ErrMax= 1.07D-02  0.00D+00 EMaxC= 1.00D-01 BMatC= 2.03D-02 BMatP= 1.65D-01
 IDIUse=3 WtCom= 8.93D-01 WtEn= 1.07D-01
 Coeff-Com:  0.273D-01 0.266D+00 0.706D+00
 Coeff-En:   0.000D+00 0.857D-01 0.914D+00
 Coeff:      0.244D-01 0.247D+00 0.729D+00
 Gap=     0.415 Goal=   None    Shift=    0.000
 RMSDP=7.46D-04 MaxDP=1.76D-02 DE=-1.05D-01 OVMax= 6.41D-02

 Cycle   4  Pass 0  IDiag  1:
 E= -169.826445899086     Delta-E=       -0.015892271308 Rises=F Damp=F
 DIIS: error= 2.20D-03 at cycle   4 NSaved=   4.
 NSaved= 4 IEnMin= 4 EnMin= -169.826445899086     IErMin= 4 ErrMin= 2.20D-03
 ErrMax= 2.20D-03  0.00D+00 EMaxC= 1.00D-01 BMatC= 5.25D-04 BMatP= 2.03D-02
 IDIUse=3 WtCom= 9.78D-01 WtEn= 2.20D-02
 Coeff-Com:  0.223D-02 0.383D-01 0.211D+00 0.749D+00
 Coeff-En:   0.000D+00 0.000D+00 0.000D+00 0.100D+01
 Coeff:      0.218D-02 0.374D-01 0.206D+00 0.754D+00
 Gap=     0.417 Goal=   None    Shift=    0.000
 RMSDP=1.25D-04 MaxDP=2.94D-03 DE=-1.59D-02 OVMax= 6.40D-03

 Cycle   5  Pass 0  IDiag  1:
 E= -169.826873401886     Delta-E=       -0.000427502800 Rises=F Damp=F
 DIIS: error= 4.05D-04 at cycle   5 NSaved=   5.
 NSaved= 5 IEnMin= 5 EnMin= -169.826873401886     IErMin= 5 ErrMin= 4.05D-04
 ErrMax= 4.05D-04  0.00D+00 EMaxC= 1.00D-01 BMatC= 3.19D-05 BMatP= 5.25D-04
 IDIUse=3 WtCom= 9.96D-01 WtEn= 4.05D-03
 Coeff-Com: -0.118D-02-0.118D-01 0.160D-01 0.302D+00 0.694D+00
 Coeff-En:   0.000D+00 0.000D+00 0.000D+00 0.000D+00 0.100D+01
 Coeff:     -0.118D-02-0.117D-01 0.159D-01 0.301D+00 0.696D+00
 Gap=     0.417 Goal=   None    Shift=    0.000
 RMSDP=4.59D-05 MaxDP=7.49D-04 DE=-4.28D-04 OVMax= 2.26D-03

 Cycle   6  Pass 0  IDiag  1:
 E= -169.826899281602     Delta-E=       -0.000025879716 Rises=F Damp=F
 DIIS: error= 2.29D-04 at cycle   6 NSaved=   6.
 NSaved= 6 IEnMin= 6 EnMin= -169.826899281602     IErMin= 6 ErrMin= 2.29D-04
 ErrMax= 2.29D-04  0.00D+00 EMaxC= 1.00D-01 BMatC= 5.23D-06 BMatP= 3.19D-05
 IDIUse=3 WtCom= 9.98D-01 WtEn= 2.29D-03
 Coeff-Com: -0.748D-03-0.107D-01-0.210D-01 0.234D-01 0.316D+00 0.693D+00
 Coeff-En:   0.000D+00 0.000D+00 0.000D+00 0.000D+00 0.000D+00 0.100D+01
 Coeff:     -0.747D-03-0.107D-01-0.209D-01 0.234D-01 0.316D+00 0.693D+00
 Gap=     0.418 Goal=   None    Shift=    0.000
 RMSDP=1.96D-05 MaxDP=4.66D-04 DE=-2.59D-05 OVMax= 9.87D-04

 Cycle   7  Pass 0  IDiag  1:
 E= -169.826904552508     Delta-E=       -0.000005270906 Rises=F Damp=F
 DIIS: error= 5.46D-05 at cycle   7 NSaved=   7.
 NSaved= 7 IEnMin= 7 EnMin= -169.826904552508     IErMin= 7 ErrMin= 5.46D-05
 ErrMax= 5.46D-05  0.00D+00 EMaxC= 1.00D-01 BMatC= 3.80D-07 BMatP= 5.23D-06
 IDIUse=1 WtCom= 1.00D+00 WtEn= 0.00D+00
 Coeff-Com: -0.740D-04-0.894D-03-0.640D-02-0.445D-01-0.191D-01 0.165D+00
 Coeff-Com:  0.906D+00
 Coeff:     -0.740D-04-0.894D-03-0.640D-02-0.445D-01-0.191D-01 0.165D+00
 Coeff:      0.906D+00
 Gap=     0.417 Goal=   None    Shift=    0.000
 RMSDP=1.00D-05 MaxDP=1.75D-04 DE=-5.27D-06 OVMax= 5.00D-04

 Initial convergence to 1.0D-05 achieved.  Increase integral accuracy.
 Cycle   8  Pass 1  IDiag  1:
 E= -169.826919123488     Delta-E=       -0.000014570980 Rises=F Damp=F
 DIIS: error= 3.61D-05 at cycle   1 NSaved=   1.
 NSaved= 1 IEnMin= 1 EnMin= -169.826919123488     IErMin= 1 ErrMin= 3.61D-05
 ErrMax= 3.61D-05  0.00D+00 EMaxC= 1.00D-01 BMatC= 2.31D-07 BMatP= 2.31D-07
 IDIUse=1 WtCom= 1.00D+00 WtEn= 0.00D+00
 Coeff-Com:  0.100D+01
 Coeff:      0.100D+01
 Gap=     0.417 Goal=   None    Shift=    0.000
 RMSDP=1.00D-05 MaxDP=1.75D-04 DE=-1.46D-05 OVMax= 1.12D-04

 Cycle   9  Pass 1  IDiag  1:
 E= -169.826919295486     Delta-E=       -0.000000171998 Rises=F Damp=F
 DIIS: error= 1.18D-05 at cycle   2 NSaved=   2.
 NSaved= 2 IEnMin= 2 EnMin= -169.826919295486     IErMin= 2 ErrMin= 1.18D-05
 ErrMax= 1.18D-05  0.00D+00 EMaxC= 1.00D-01 BMatC= 1.47D-08 BMatP= 2.31D-07
 IDIUse=1 WtCom= 1.00D+00 WtEn= 0.00D+00
 Coeff-Com:  0.298D-01 0.970D+00
 Coeff:      0.298D-01 0.970D+00
 Gap=     0.417 Goal=   None    Shift=    0.000
 RMSDP=1.41D-06 MaxDP=3.26D-05 DE=-1.72D-07 OVMax= 1.16D-04

 Cycle  10  Pass 1  IDiag  1:
 E= -169.826919300406     Delta-E=       -0.000000004920 Rises=F Damp=F
 DIIS: error= 1.59D-05 at cycle   3 NSaved=   3.
 NSaved= 3 IEnMin= 3 EnMin= -169.826919300406     IErMin= 2 ErrMin= 1.18D-05
 ErrMax= 1.59D-05  0.00D+00 EMaxC= 1.00D-01 BMatC= 2.05D-08 BMatP= 1.47D-08
 IDIUse=1 WtCom= 1.00D+00 WtEn= 0.00D+00
 Coeff-Com: -0.492D-01 0.566D+00 0.483D+00
 Coeff:     -0.492D-01 0.566D+00 0.483D+00
 Gap=     0.417 Goal=   None    Shift=    0.000
 RMSDP=6.35D-07 MaxDP=1.60D-05 DE=-4.92D-09 OVMax= 4.08D-05

 Cycle  11  Pass 1  IDiag  1:
 E= -169.826919316276     Delta-E=       -0.000000015870 Rises=F Damp=F
 DIIS: error= 1.79D-06 at cycle   4 NSaved=   4.
 NSaved= 4 IEnMin= 4 EnMin= -169.826919316276     IErMin= 4 ErrMin= 1.79D-06
 ErrMax= 1.79D-06  0.00D+00 EMaxC= 1.00D-01 BMatC= 2.17D-10 BMatP= 1.47D-08
 IDIUse=1 WtCom= 1.00D+00 WtEn= 0.00D+00
 Coeff-Com: -0.103D-01 0.942D-02 0.146D-01 0.986D+00
 Coeff:     -0.103D-01 0.942D-02 0.146D-01 0.986D+00
 Gap=     0.417 Goal=   None    Shift=    0.000
 RMSDP=2.72D-07 MaxDP=3.71D-06 DE=-1.59D-08 OVMax= 1.79D-05

 Cycle  12  Pass 1  IDiag  1:
 E= -169.826919316944     Delta-E=       -0.000000000668 Rises=F Damp=F
 DIIS: error= 7.03D-07 at cycle   5 NSaved=   5.
 NSaved= 5 IEnMin= 5 EnMin= -169.826919316944     IErMin= 5 ErrMin= 7.03D-07
 ErrMax= 7.03D-07  0.00D+00 EMaxC= 1.00D-01 BMatC= 5.98D-11 BMatP= 2.17D-10
 IDIUse=1 WtCom= 1.00D+00 WtEn= 0.00D+00
 Coeff-Com:  0.562D-02-0.785D-01-0.899D-01 0.171D+00 0.992D+00
 Coeff:      0.562D-02-0.785D-01-0.899D-01 0.171D+00 0.992D+00
 Gap=     0.417 Goal=   None    Shift=    0.000
 RMSDP=1.41D-07 MaxDP=2.22D-06 DE=-6.68D-10 OVMax= 8.88D-06

 Cycle  13  Pass 1  IDiag  1:
 E= -169.826919317075     Delta-E=       -0.000000000131 Rises=F Damp=F
 DIIS: error= 1.76D-07 at cycle   6 NSaved=   6.
 NSaved= 6 IEnMin= 6 EnMin= -169.826919317075     IErMin= 6 ErrMin= 1.76D-07
 ErrMax= 1.76D-07  0.00D+00 EMaxC= 1.00D-01 BMatC= 7.47D-12 BMatP= 5.98D-11
 IDIUse=1 WtCom= 1.00D+00 WtEn= 0.00D+00
 Coeff-Com:  0.291D-02-0.276D-01-0.369D-01-0.301D-01 0.354D+00 0.738D+00
 Coeff:      0.291D-02-0.276D-01-0.369D-01-0.301D-01 0.354D+00 0.738D+00
 Gap=     0.417 Goal=   None    Shift=    0.000
 RMSDP=3.23D-08 MaxDP=5.30D-07 DE=-1.31D-10 OVMax= 1.47D-06

 Cycle  14  Pass 1  IDiag  1:
 E= -169.826919317084     Delta-E=       -0.000000000009 Rises=F Damp=F
 DIIS: error= 9.18D-08 at cycle   7 NSaved=   7.
 NSaved= 7 IEnMin= 7 EnMin= -169.826919317084     IErMin= 7 ErrMin= 9.18D-08
 ErrMax= 9.18D-08  0.00D+00 EMaxC= 1.00D-01 BMatC= 1.02D-12 BMatP= 7.47D-12
 IDIUse=1 WtCom= 1.00D+00 WtEn= 0.00D+00
 Coeff-Com:  0.494D-03-0.214D-02-0.619D-02-0.240D-01 0.384D-01 0.310D+00
 Coeff-Com:  0.683D+00
 Coeff:      0.494D-03-0.214D-02-0.619D-02-0.240D-01 0.384D-01 0.310D+00
 Coeff:      0.683D+00
 Gap=     0.417 Goal=   None    Shift=    0.000
 RMSDP=7.10D-09 MaxDP=1.58D-07 DE=-8.67D-12 OVMax= 5.98D-07

 SCF Done:  E(RwB97XD) =  -169.826919317     A.U. after   14 cycles
            NFock= 14  Conv=0.71D-08     -V/T= 2.0041
 KE= 1.691397244726D+02 PE=-5.412061164543D+02 EE= 1.309236026192D+02
 Leave Link  502 at Sat Aug 14 06:17:05 2021, MaxMem=  1073741824 cpu:              23.5 elap:               3.1
 (Enter /home/prakriti/g16/l801.exe)
 DoSCS=F DFT=T ScalE2(SS,OS)=  1.000000  1.000000
 ExpMin= 9.52D-02 ExpMax= 2.70D+04 ExpMxC= 9.22D+02 IAcc=3 IRadAn=         5 AccDes= 0.00D+00
 HarFok:  IExCor=  205 AccDes= 0.00D+00 IRadAn=         5 IDoV=-2 UseB2=F ITyADJ=14
 ICtDFT= 12500011 ScaDFX=  1.000000  1.000000  1.000000  1.000000
 Largest valence mixing into a core orbital is  7.05D-05
 Largest core mixing into a valence orbital is  9.02D-06
 Range of M.O.s used for correlation:     4   111
 NBasis=   111 NAE=    12 NBE=    12 NFC=     3 NFV=     0
 NROrb=    108 NOA=     9 NOB=     9 NVA=    99 NVB=    99
 Leave Link  801 at Sat Aug 14 06:17:05 2021, MaxMem=  1073741824 cpu:               0.6 elap:               0.1
 (Enter /home/prakriti/g16/l914.exe)
 RHF ground state
 Two-electron integrals replicated using symmetry.
 MDV=  1073741824 DFT=T DoStab=F Mixed=T DoRPA=T DoScal=F NonHer=T
 Making orbital integer symmetry assigments:
 Orbital symmetries:
       Occupied  (A') (A') (A') (A') (A') (A') (A') (A') (A") (A')
                 (A') (A")
       Virtual   (A") (A') (A') (A') (A') (A') (A') (A") (A') (A')
                 (A') (A") (A') (A") (A') (A') (A') (A') (A') (A")
                 (A') (A') (A") (A') (A') (A') (A") (A') (A") (A')
                 (A") (A') (A") (A') (A') (A') (A') (A') (A") (A")
                 (A') (A') (A") (A') (A") (A') (A") (A') (A') (A')
                 (A') (A') (A') (A") (A') (A') (A") (A') (A") (A')
                 (A") (A") (A') (A') (A") (A') (A') (A') (A') (A')
                 (A") (A') (A') (A") (A') (A') (A") (A") (A') (A')
                 (A') (A") (A") (A') (A') (A") (A') (A") (A') (A')
                 (A") (A') (A") (A') (A') (A') (A') (A') (A')
   891 initial guesses have been made.
 Convergence on wavefunction:    0.001000000000000
 Davidson Disk Diagonalization:  ConvIn= 1.00D-03 SkipCon=T Conv= 1.00D-03.
 Max sub-space:  5346 roots to seek:  1782 dimension of matrix:         1782
 *** WARNING: Number of orthogonal guesses is          891
 Iteration     1 Dimension   891 NMult     0 NNew    891
 CISAX will form   448 AO SS matrices at one time.
 NMat=   448 NSing=   448 JSym2X=-1.
 FoFJK:  IHMeth= 1 ICntrl=       0 DoSepK=T KAlg= 0 I1Cent=           0 FoldK=F
 IRaf=         1 NMat=     896 IRICut=       1 DoRegI=T DoRafI=F ISym2E=-1 IDoP0=3 IntGTp=3.
 FoFCou: FMM=F IPFlag=           0 FMFlag=      100000 FMFlg1=           0
         NFxFlg=           0 DoJE=F BraDBF=F KetDBF=F FulRan=T
         wScrn=  0.000000 ICntrl=       500 IOpCl=  0 I1Cent=           0 NGrid=           0
         NMat0=  448 NMatS0=    448 NMatT0=    0 NMatD0=  448 NMtDS0=    0 NMtDT0=    0
 Petite list used in FoFCou.
 NMat=   443 NSing=   443 JSym2X=-1.
 New state      1 was old state      2
 New state      2 was old state      1
 New state      6 was old state      7
 New state      7 was old state     10
 New state      8 was old state      6
 New state      9 was old state      8
 New state     10 was old state      9
 New state     13 was old state     14
 New state     14 was old state     13
 New state     15 was old state     16
 New state     16 was old state     17
 New state     17 was old state     15
 New state     19 was old state     25
 New state     21 was old state     22
 New state     22 was old state     27
 New state     23 was old state     19
 New state     25 was old state     23
 New state     27 was old state     21
 New state     29 was old state     30
 New state     30 was old state     31
 New state     31 was old state     32
 New state     32 was old state     29
 New state     33 was old state     35
 New state     35 was old state     37
 New state     36 was old state     33
 New state     37 was old state     41
 New state     38 was old state     39
 New state     39 was old state     36
 New state     40 was old state     38
 New state     41 was old state     40
 New state     42 was old state     45
 New state     43 was old state     44
 New state     44 was old state     42
 New state     45 was old state     43
 New state     46 was old state     51
 New state     47 was old state     46
 New state     48 was old state     50
 New state     49 was old state     54
 New state     50 was old state     47
 New state     51 was old state     49
 New state     52 was old state     53
 New state     53 was old state     52
 New state     54 was old state     48
 New state     55 was old state     56
 New state     56 was old state     57
 New state     57 was old state     55
 New state     58 was old state     60
 New state     59 was old state     62
 New state     60 was old state     61
 New state     61 was old state     58
 New state     62 was old state     66
 New state     63 was old state     64
 New state     64 was old state     68
 New state     65 was old state     69
 New state     66 was old state     59
 New state     67 was old state     71
 New state     68 was old state     73
 New state     69 was old state     76
 New state     70 was old state     65
 New state     71 was old state     67
 New state     72 was old state     74
 New state     73 was old state     70
 New state     74 was old state     72
 New state     75 was old state     77
 New state     76 was old state     75
 New state     77 was old state     78
 New state     78 was old state     80
 New state     80 was old state     85
 New state     81 was old state     84
 New state     82 was old state     86
 New state     83 was old state     81
 New state     84 was old state     82
 New state     85 was old state     92
 New state     86 was old state     88
 New state     87 was old state     83
 New state     88 was old state     87
 New state     91 was old state     95
 New state     92 was old state     91
 New state     93 was old state     99
 New state     95 was old state     93
 New state     96 was old state    100
 New state     98 was old state     96
 New state     99 was old state     98
 New state    100 was old state    102
 New state    101 was old state    106
 New state    102 was old state    104
 New state    103 was old state    101
 New state    104 was old state    107
 New state    105 was old state    103
 New state    106 was old state    108
 New state    107 was old state    110
 New state    108 was old state    109
 New state    109 was old state    112
 New state    110 was old state    111
 New state    111 was old state    105
 New state    112 was old state    116
 New state    113 was old state    115
 New state    114 was old state    113
 New state    115 was old state    114
 New state    116 was old state    118
 New state    118 was old state    119
 New state    119 was old state    120
 New state    120 was old state    122
 New state    121 was old state    124
 New state    122 was old state    123
 New state    123 was old state    126
 New state    124 was old state    128
 New state    126 was old state    121
 New state    127 was old state    129
 New state    128 was old state    130
 New state    129 was old state    133
 New state    130 was old state    127
 New state    131 was old state    135
 New state    133 was old state    136
 New state    134 was old state    140
 New state    135 was old state    131
 New state    136 was old state    138
 New state    138 was old state    134
 New state    140 was old state    141
 New state    141 was old state    144
 New state    142 was old state    149
 New state    143 was old state    142
 New state    144 was old state    147
 New state    145 was old state    143
 New state    147 was old state    145
 New state    149 was old state    151
 New state    151 was old state    152
 New state    152 was old state    153
 New state    153 was old state    154
 New state    154 was old state    167
 New state    155 was old state    159
 New state    159 was old state    164
 New state    160 was old state    163
 New state    161 was old state    155
 New state    162 was old state    160
 New state    163 was old state    161
 New state    164 was old state    166
 New state    166 was old state    169
 New state    167 was old state    170
 New state    168 was old state    162
 New state    169 was old state    171
 New state    170 was old state    173
 New state    171 was old state    174
 New state    172 was old state    168
 New state    173 was old state    176
 New state    174 was old state    175
 New state    175 was old state    172
 New state    176 was old state    178
 New state    177 was old state    179
 New state    178 was old state    180
 New state    179 was old state    177
 New state    180 was old state    182
 New state    181 was old state    184
 New state    182 was old state    181
 New state    183 was old state    192
 New state    184 was old state    188
 New state    185 was old state    189
 New state    186 was old state    187
 New state    187 was old state    185
 New state    188 was old state    190
 New state    189 was old state    183
 New state    190 was old state    196
 New state    191 was old state    186
 New state    192 was old state    195
 New state    193 was old state    191
 New state    194 was old state    193
 New state    195 was old state    194
 New state    196 was old state    197
 New state    197 was old state    198
 New state    198 was old state    199
 No map to state    199
 New state    203 was old state    204
 New state    204 was old state    205
 New state    205 was old state    203
 New state    208 was old state    210
 New state    210 was old state    211
 New state    211 was old state    217
 New state    212 was old state    208
 New state    214 was old state    216
 New state    216 was old state    212
 New state    217 was old state    219
 New state    219 was old state    222
 New state    222 was old state    225
 New state    225 was old state    228
 New state    226 was old state    227
 New state    227 was old state    229
 New state    228 was old state    226
 New state    229 was old state    233
 New state    230 was old state    231
 New state    231 was old state    230
 New state    232 was old state    238
 New state    233 was old state    232
 New state    234 was old state    236
 New state    235 was old state    234
 New state    236 was old state    235
 New state    237 was old state    240
 New state    238 was old state    242
 New state    239 was old state    237
 New state    240 was old state    244
 New state    241 was old state    239
 New state    242 was old state    243
 New state    243 was old state    241
 No map to state    244
 New state    245 was old state    246
 New state    246 was old state    245
 New state    252 was old state    253
 New state    253 was old state    255
 New state    255 was old state    252
 New state    258 was old state    261
 New state    259 was old state    258
 New state    261 was old state    259
 New state    262 was old state    264
 New state    264 was old state    262
 New state    265 was old state    266
 New state    266 was old state    267
 New state    267 was old state    265
 New state    268 was old state    269
 New state    269 was old state    272
 New state    270 was old state    268
 New state    271 was old state    270
 New state    272 was old state    271
 New state    276 was old state    279
 New state    278 was old state    281
 New state    279 was old state    283
 New state    280 was old state    276
 New state    281 was old state    278
 New state    282 was old state    280
 New state    283 was old state    288
 New state    284 was old state    282
 New state    285 was old state    286
 New state    286 was old state    285
 New state    287 was old state    289
 New state    288 was old state    284
 New state    289 was old state    287
 New state    290 was old state    291
 New state    291 was old state    293
 New state    292 was old state    290
 New state    293 was old state    292
 New state    296 was old state    297
 New state    297 was old state    299
 New state    298 was old state    300
 New state    299 was old state    296
 New state    300 was old state    301
 New state    301 was old state    298
 New state    304 was old state    305
 New state    305 was old state    304
 New state    306 was old state    309
 New state    307 was old state    306
 New state    308 was old state    307
 New state    309 was old state    310
 New state    310 was old state    312
 New state    312 was old state    313
 New state    313 was old state    308
 New state    316 was old state    318
 New state    317 was old state    316
 New state    318 was old state    321
 New state    319 was old state    317
 New state    320 was old state    322
 New state    321 was old state    325
 New state    322 was old state    319
 New state    324 was old state    320
 New state    325 was old state    324
 New state    327 was old state    328
 New state    328 was old state    327
 New state    331 was old state    334
 New state    332 was old state    331
 New state    333 was old state    332
 New state    334 was old state    333
 New state    336 was old state    338
 New state    338 was old state    336
 New state    339 was old state    340
 New state    340 was old state    341
 New state    341 was old state    342
 New state    342 was old state    339
 New state    343 was old state    347
 New state    344 was old state    343
 New state    346 was old state    344
 New state    347 was old state    346
 New state    348 was old state    349
 New state    349 was old state    348
 New state    356 was old state    357
 New state    357 was old state    358
 New state    358 was old state    356
 New state    361 was old state    362
 New state    362 was old state    373
 New state    363 was old state    361
 New state    365 was old state    363
 New state    367 was old state    365
 New state    368 was old state    371
 New state    369 was old state    367
 New state    370 was old state    368
 New state    371 was old state    369
 New state    372 was old state    370
 New state    373 was old state    372
 New state    375 was old state    379
 New state    377 was old state    375
 New state    378 was old state    377
 New state    379 was old state    378
 New state    380 was old state    383
 New state    381 was old state    380
 New state    382 was old state    381
 New state    383 was old state    384
 New state    384 was old state    382
 New state    385 was old state    386
 New state    386 was old state    385
 New state    388 was old state    389
 New state    389 was old state    388
 New state    391 was old state    397
 New state    392 was old state    393
 New state    393 was old state    392
 New state    394 was old state    391
 New state    395 was old state    394
 New state    396 was old state    395
 New state    397 was old state    396
 New state    398 was old state    401
 New state    399 was old state    398
 New state    400 was old state    406
 New state    401 was old state    399
 New state    403 was old state    400
 New state    404 was old state    403
 New state    406 was old state    407
 New state    407 was old state    411
 New state    410 was old state    404
 New state    411 was old state    413
 New state    412 was old state    410
 New state    413 was old state    415
 New state    414 was old state    412
 New state    415 was old state    414
 New state    416 was old state    418
 New state    417 was old state    416
 New state    418 was old state    417
 New state    420 was old state    422
 New state    421 was old state    420
 New state    422 was old state    423
 New state    423 was old state    421
 New state    425 was old state    427
 New state    427 was old state    425
 New state    430 was old state    432
 New state    432 was old state    433
 New state    433 was old state    436
 New state    434 was old state    430
 New state    436 was old state    437
 New state    437 was old state    434
 New state    438 was old state    439
 New state    439 was old state    440
 New state    440 was old state    438
 New state    441 was old state    444
 New state    442 was old state    443
 New state    443 was old state    441
 New state    444 was old state    445
 New state    445 was old state    442
 New state    446 was old state    447
 New state    447 was old state    446
 New state    451 was old state    452
 New state    452 was old state    451
 New state    453 was old state    455
 New state    454 was old state    453
 New state    455 was old state    454
 New state    456 was old state    459
 New state    457 was old state    456
 New state    459 was old state    463
 New state    460 was old state    462
 New state    462 was old state    460
 New state    463 was old state    464
 New state    464 was old state    457
 New state    467 was old state    468
 New state    468 was old state    467
 New state    469 was old state    470
 New state    470 was old state    475
 New state    471 was old state    474
 New state    472 was old state    476
 New state    473 was old state    472
 New state    474 was old state    473
 New state    475 was old state    477
 New state    476 was old state    480
 New state    477 was old state    471
 New state    478 was old state    484
 New state    479 was old state    478
 New state    480 was old state    483
 New state    483 was old state    487
 New state    484 was old state    485
 New state    485 was old state    479
 New state    487 was old state    488
 New state    488 was old state    489
 New state    489 was old state    490
 New state    490 was old state    491
 New state    491 was old state    493
 New state    492 was old state    498
 New state    493 was old state    494
 New state    494 was old state    492
 New state    495 was old state    502
 New state    496 was old state    497
 New state    497 was old state    500
 New state    498 was old state    496
 New state    499 was old state    495
 New state    500 was old state    499
 New state    501 was old state    506
 New state    502 was old state    501
 New state    506 was old state    509
 New state    508 was old state    513
 New state    509 was old state    508
 New state    513 was old state    516
 New state    515 was old state    517
 New state    516 was old state    515
 New state    517 was old state    521
 New state    518 was old state    519
 New state    519 was old state    523
 New state    520 was old state    522
 New state    521 was old state    520
 New state    522 was old state    518
 New state    523 was old state    527
 New state    525 was old state    526
 New state    526 was old state    528
 New state    527 was old state    525
 New state    528 was old state    530
 No map to state    529
 New state    530 was old state    531
 New state    531 was old state    532
 New state    532 was old state    533
 New state    533 was old state    529
 New state    536 was old state    539
 New state    537 was old state    536
 New state    538 was old state    540
 New state    539 was old state    537
 New state    540 was old state    538
 New state    541 was old state    543
 New state    543 was old state    541
 New state    548 was old state    549
 New state    549 was old state    553
 New state    550 was old state    551
 New state    551 was old state    552
 New state    552 was old state    550
 New state    553 was old state    548
 New state    554 was old state    555
 New state    555 was old state    556
 New state    556 was old state    554
 New state    558 was old state    564
 New state    559 was old state    558
 New state    560 was old state    561
 New state    561 was old state    559
 New state    562 was old state    560
 New state    563 was old state    568
 New state    564 was old state    563
 New state    565 was old state    567
 New state    566 was old state    565
 New state    567 was old state    566
 New state    568 was old state    562
 New state    577 was old state    578
 New state    578 was old state    580
 New state    580 was old state    577
 New state    583 was old state    584
 New state    584 was old state    583
 New state    586 was old state    588
 New state    588 was old state    586
 New state    589 was old state    590
 New state    590 was old state    593
 New state    591 was old state    594
 New state    593 was old state    589
 New state    594 was old state    591
 New state    596 was old state    597
 New state    597 was old state    596
 New state    599 was old state    600
 New state    600 was old state    599
 New state    602 was old state    604
 New state    604 was old state    602
 New state    607 was old state    610
 New state    608 was old state    609
 New state    609 was old state    608
 New state    610 was old state    607
 New state    611 was old state    613
 New state    613 was old state    611
 New state    616 was old state    617
 New state    617 was old state    616
 New state    618 was old state    619
 New state    619 was old state    618
 New state    621 was old state    624
 New state    623 was old state    621
 New state    624 was old state    623
 New state    625 was old state    627
 New state    626 was old state    625
 New state    627 was old state    630
 New state    629 was old state    626
 New state    630 was old state    629
 New state    635 was old state    636
 New state    636 was old state    637
 New state    637 was old state    635
 New state    638 was old state    641
 New state    639 was old state    640
 New state    640 was old state    639
 New state    641 was old state    638
 New state    644 was old state    645
 New state    645 was old state    646
 New state    646 was old state    644
 New state    648 was old state    650
 New state    649 was old state    648
 New state    650 was old state    649
 New state    657 was old state    658
 New state    658 was old state    660
 New state    659 was old state    657
 New state    660 was old state    659
 New state    664 was old state    665
 New state    665 was old state    664
 New state    667 was old state    668
 New state    668 was old state    669
 New state    669 was old state    673
 New state    671 was old state    667
 New state    672 was old state    671
 New state    673 was old state    672
 New state    674 was old state    677
 New state    675 was old state    678
 New state    676 was old state    674
 New state    677 was old state    676
 New state    678 was old state    675
 New state    679 was old state    680
 New state    680 was old state    679
 New state    681 was old state    685
 New state    682 was old state    681
 New state    683 was old state    682
 New state    684 was old state    683
 New state    685 was old state    684
 New state    686 was old state    688
 New state    687 was old state    686
 New state    688 was old state    687
 New state    689 was old state    690
 New state    690 was old state    691
 New state    691 was old state    689
 New state    693 was old state    694
 New state    694 was old state    693
 New state    698 was old state    699
 New state    699 was old state    698
 New state    701 was old state    702
 New state    702 was old state    701
 New state    703 was old state    704
 New state    704 was old state    703
 New state    706 was old state    707
 New state    707 was old state    708
 New state    708 was old state    706
 New state    709 was old state    710
 New state    710 was old state    711
 New state    711 was old state    709
 New state    714 was old state    715
 New state    715 was old state    717
 New state    716 was old state    714
 New state    717 was old state    716
 New state    719 was old state    721
 New state    720 was old state    722
 New state    721 was old state    720
 New state    722 was old state    719
 New state    724 was old state    726
 New state    726 was old state    724
 New state    727 was old state    729
 New state    728 was old state    727
 New state    729 was old state    730
 New state    730 was old state    728
 New state    731 was old state    732
 New state    732 was old state    731
 New state    734 was old state    737
 New state    735 was old state    736
 New state    736 was old state    734
 New state    737 was old state    740
 New state    738 was old state    735
 New state    739 was old state    741
 New state    740 was old state    738
 New state    741 was old state    742
 New state    742 was old state    739
 New state    743 was old state    746
 New state    744 was old state    743
 New state    745 was old state    744
 New state    746 was old state    749
 New state    749 was old state    745
 New state    750 was old state    751
 New state    751 was old state    750
 New state    752 was old state    754
 New state    753 was old state    752
 New state    754 was old state    756
 New state    756 was old state    753
 New state    757 was old state    758
 New state    758 was old state    760
 New state    759 was old state    757
 New state    760 was old state    759
 New state    761 was old state    763
 New state    762 was old state    761
 New state    763 was old state    764
 New state    764 was old state    762
 New state    767 was old state    768
 New state    768 was old state    767
 New state    773 was old state    774
 New state    774 was old state    773
 New state    781 was old state    783
 New state    782 was old state    781
 New state    783 was old state    782
 New state    786 was old state    788
 New state    787 was old state    789
 New state    788 was old state    786
 New state    789 was old state    787
 New state    792 was old state    795
 New state    793 was old state    794
 New state    794 was old state    793
 New state    795 was old state    792
 New state    799 was old state    800
 New state    800 was old state    801
 New state    801 was old state    799
 New state    802 was old state    803
 New state    803 was old state    802
 New state    811 was old state    812
 New state    812 was old state    813
 New state    813 was old state    811
 New state    816 was old state    818
 New state    817 was old state    816
 New state    818 was old state    817
 New state    821 was old state    822
 New state    822 was old state    821
 New state    823 was old state    826
 New state    824 was old state    823
 New state    825 was old state    824
 New state    826 was old state    825
 New state    830 was old state    834
 New state    831 was old state    830
 New state    832 was old state    833
 New state    833 was old state    832
 New state    834 was old state    831
 New state    836 was old state    838
 New state    837 was old state    836
 New state    838 was old state    837
 New state    840 was old state    842
 New state    841 was old state    840
 New state    842 was old state    841
 New state    844 was old state    846
 New state    845 was old state    844
 New state    846 was old state    845
 New state    848 was old state    851
 New state    849 was old state    850
 New state    850 was old state    848
 New state    851 was old state    849
 New state    853 was old state    854
 New state    854 was old state    853
 New state    855 was old state    856
 New state    856 was old state    855
 New state    857 was old state    858
 New state    858 was old state    857
 New state    874 was old state    875
 New state    875 was old state    874
 New state    876 was old state    877
 New state    877 was old state    878
 New state    878 was old state    876
 Excitation Energies [eV] at current iteration:
 Root      1 :     5.957603031133797
 Root      2 :     6.995795375790217
 Root      3 :     7.865620105231127
 Root      4 :     8.408839600987614
 Root      5 :     8.940383718587206
 Root      6 :     9.569037396750074
 Root      7 :     9.652698047222573
 Root      8 :     9.773474947586232
 Root      9 :    10.109899567237210
 Root     10 :    10.468820386778540
 Root     11 :    10.736058647117740
 Root     12 :    10.984496205341560
 Root     13 :    11.130817393017170
 Root     14 :    11.519296478083960
 Root     15 :    12.020126136452570
 Root     16 :    12.197770895552250
 Root     17 :    12.524285807704880
 Root     18 :    12.607335916011880
 Root     19 :    12.968638241335070
 Root     20 :    13.029197234564680
 Root     21 :    13.119474809695050
 Root     22 :    13.172488363660450
 Root     23 :    13.368831675389900
 Root     24 :    13.539302983987620
 Root     25 :    13.552391604076180
 Root     26 :    14.021175755945630
 Root     27 :    14.063743065812530
 Root     28 :    14.705654042857220
 Root     29 :    14.745186170021370
 Root     30 :    14.977994863657110
 Root     31 :    15.059881566230330
 Root     32 :    15.297514190382450
 Root     33 :    15.588937331617590
 Root     34 :    15.607714886335400
 Root     35 :    15.732264191701230
 Root     36 :    15.756379841072950
 Root     37 :    15.911734608711260
 Root     38 :    16.074269007189850
 Root     39 :    16.136611371486110
 Root     40 :    16.389337708653440
 Root     41 :    16.650939948212990
 Root     42 :    16.896206039087580
 Root     43 :    16.965529940004600
 Root     44 :    17.125747194986670
 Root     45 :    17.206092248439190
 Root     46 :    17.376524782605510
 Root     47 :    17.526199432714340
 Root     48 :    17.548292935264170
 Root     49 :    17.673259147070730
 Root     50 :    17.739536328249180
 Root     51 :    17.868185072303520
 Root     52 :    18.158264293663070
 Root     53 :    18.332250523128450
 Root     54 :    18.568209440201400
 Root     55 :    18.628625564168400
 Root     56 :    18.662893025117810
 Root     57 :    19.011577757226390
 Root     58 :    19.054003318439430
 Root     59 :    19.133604396551440
 Root     60 :    19.157064170355610
 Root     61 :    19.265829864549210
 Root     62 :    19.332264763251710
 Root     63 :    19.377153946380980
 Root     64 :    19.540992825875800
 Root     65 :    19.544022251941840
 Root     66 :    19.744999871500310
 Root     67 :    19.839288048625850
 Root     68 :    19.983699766891560
 Root     69 :    20.051582520703330
 Root     70 :    20.118299187390400
 Root     71 :    20.280162739654390
 Root     72 :    20.395359664522670
 Root     73 :    20.427381861849640
 Root     74 :    20.528141834525290
 Root     75 :    20.747409504720790
 Root     76 :    20.869172270087550
 Root     77 :    21.117764108575010
 Root     78 :    21.298144250109320
 Root     79 :    21.562785821505220
 Root     80 :    21.652019595956660
 Root     81 :    21.697561765106870
 Root     82 :    21.900981840730880
 Root     83 :    22.035885167572940
 Root     84 :    22.047221835782500
 Root     85 :    22.223191096180870
 Root     86 :    22.287125739997400
 Root     87 :    22.397490247181090
 Root     88 :    22.560269429955690
 Root     89 :    22.570734276994780
 Root     90 :    22.762988872979680
 Root     91 :    22.975165987006790
 Root     92 :    23.133070100748780
 Root     93 :    23.216396927766580
 Root     94 :    23.251420727749270
 Root     95 :    23.335010532698960
 Root     96 :    23.438245406784040
 Root     97 :    23.462198041530430
 Root     98 :    23.623258988240720
 Root     99 :    23.791006914696090
 Root    100 :    23.823903022229970
 Root    101 :    23.942191298804020
 Root    102 :    23.975791094526990
 Root    103 :    24.218058760667840
 Root    104 :    24.270083780999460
 Root    105 :    24.359416150133180
 Root    106 :    24.480750694332770
 Root    107 :    24.640360314560270
 Root    108 :    24.765332675438320
 Root    109 :    24.882483201569230
 Root    110 :    24.912803858644490
 Root    111 :    25.062555672022830
 Root    112 :    25.077697270198500
 Root    113 :    25.190906355345790
 Root    114 :    25.243612652134230
 Root    115 :    25.345299224461560
 Root    116 :    25.616723849768440
 Root    117 :    25.712078591585730
 Root    118 :    25.915631545764630
 Root    119 :    26.001941857515100
 Root    120 :    26.165300450199120
 Root    121 :    26.299079319872830
 Root    122 :    26.302433899077740
 Root    123 :    26.439451261509170
 Root    124 :    26.579399570957840
 Root    125 :    26.707689630005830
 Root    126 :    26.846946434595780
 Root    127 :    26.909722536335310
 Root    128 :    26.956243400142770
 Root    129 :    27.110147355853490
 Root    130 :    27.230542425800090
 Root    131 :    27.386738345451700
 Root    132 :    27.448131017860430
 Root    133 :    27.633890663236890
 Root    134 :    27.738389514629860
 Root    135 :    27.781608281042190
 Root    136 :    27.855932222705910
 Root    137 :    28.028432721313780
 Root    138 :    28.046794124534040
 Root    139 :    28.130377471846940
 Root    140 :    28.366348926073010
 Root    141 :    28.449159415345960
 Root    142 :    28.569227747850580
 Root    143 :    28.714147750424470
 Root    144 :    28.831920646267390
 Root    145 :    28.873241175653720
 Root    146 :    29.240706386693860
 Root    147 :    29.301059456423150
 Root    148 :    29.330193999005640
 Root    149 :    29.402664291647560
 Root    150 :    29.687098331255920
 Root    151 :    29.711623290071710
 Root    152 :    29.961948204586990
 Root    153 :    30.044053725204240
 Root    154 :    30.249029826994190
 Root    155 :    30.752932634037630
 Root    156 :    30.817700859615950
 Root    157 :    30.928913638225000
 Root    158 :    31.183455856622110
 Root    159 :    31.223930112753840
 Root    160 :    31.420536234535350
 Root    161 :    31.464687979767220
 Root    162 :    31.646872687710900
 Root    163 :    31.753234802415360
 Root    164 :    32.054733205741390
 Root    165 :    32.063738233115990
 Root    166 :    32.291565335312320
 Root    167 :    32.405483023938800
 Root    168 :    32.564621803226770
 Root    169 :    32.569447692241400
 Root    170 :    32.719580122119930
 Root    171 :    32.988552381991500
 Root    172 :    33.189091034765090
 Root    173 :    33.448720950311960
 Root    174 :    33.594745658188190
 Root    175 :    33.957626556434490
 Root    176 :    34.175614897584500
 Root    177 :    34.191687472145770
 Root    178 :    34.511452689977950
 Root    179 :    34.619189493228350
 Root    180 :    34.771103219171000
 Root    181 :    35.119847824314200
 Root    182 :    35.222522979928590
 Root    183 :    35.351994572592840
 Root    184 :    35.649590350507350
 Root    185 :    35.732120657223950
 Root    186 :    35.750969418522620
 Root    187 :    35.868450208845010
 Root    188 :    36.030762516258400
 Root    189 :    36.217034050046400
 Root    190 :    36.323028839951140
 Root    191 :    36.451950776129470
 Root    192 :    36.466532998742960
 Root    193 :    36.634385120630710
 Root    194 :    36.790137882673250
 Root    195 :    36.927549731356330
 Root    196 :    37.051282547080470
 Root    197 :    37.056902655718320
 Root    198 :    37.091109729503850
 Root    199 :    37.385283054738850
 Root    200 :    37.955292578347800
 Root    201 :    38.205127474195850
 Root    202 :    38.420954456305750
 Root    203 :    38.631558923978250
 Root    204 :    38.880809851780820
 Root    205 :    39.048786146781980
 Root    206 :    39.222815892992050
 Root    207 :    39.542366589403720
 Root    208 :    39.664948661755840
 Root    209 :    39.753586528634270
 Root    210 :    39.927717745019330
 Root    211 :    40.191984527864720
 Root    212 :    40.199196760113380
 Root    213 :    40.365637089307460
 Root    214 :    40.406942604401480
 Root    215 :    40.472545229702650
 Root    216 :    40.661355772677480
 Root    217 :    40.842763593288090
 Root    218 :    40.994999806232410
 Root    219 :    41.322836836388260
 Root    220 :    41.426542502116100
 Root    221 :    41.688987322303820
 Root    222 :    41.791183158902050
 Root    223 :    41.869254628664330
 Root    224 :    42.288531722139400
 Root    225 :    42.451421799951990
 Root    226 :    42.576949632263930
 Root    227 :    42.603629977511740
 Root    228 :    42.879719247077520
 Root    229 :    43.357176225094260
 Root    230 :    43.391488962737880
 Root    231 :    43.468333814258430
 Root    232 :    43.801698540879520
 Root    233 :    43.863699700522080
 Root    234 :    43.890484650400810
 Root    235 :    43.945047819054330
 Root    236 :    44.121408307910890
 Root    237 :    44.363005846801070
 Root    238 :    44.461508590271560
 Root    239 :    44.590453376087900
 Root    240 :    44.731864812313900
 Root    241 :    44.800828438733570
 Root    242 :    44.871558204065590
 Root    243 :    44.945862494721370
 Root    244 :    45.289538267749460
 Root    245 :    45.307548763175830
 Root    246 :    45.924026233619070
 Root    247 :    45.965830303609760
 Root    248 :    46.466212816609040
 Root    249 :    46.820868443997950
 Root    250 :    46.917128389453150
 Root    251 :    47.186253568833950
 Root    252 :    47.227310267880170
 Root    253 :    47.299027713184370
 Root    254 :    47.513817935255700
 Root    255 :    47.728217078276660
 Root    256 :    47.786494586345990
 Root    257 :    47.965565416869900
 Root    258 :    47.972732438961050
 Root    259 :    48.404082992848140
 Root    260 :    48.527852933521970
 Root    261 :    48.596685217185990
 Root    262 :    48.751504179163820
 Root    263 :    48.858827673448770
 Root    264 :    48.955674528355770
 Root    265 :    49.067910993462500
 Root    266 :    49.068901828749690
 Root    267 :    49.209178710885300
 Root    268 :    49.397244951372040
 Root    269 :    49.559731976067640
 Root    270 :    49.770125695185740
 Root    271 :    49.859178831737880
 Root    272 :    50.152014438304870
 Root    273 :    50.254913906050580
 Root    274 :    50.280881499442250
 Root    275 :    50.661072106203800
 Root    276 :    51.309952471471180
 Root    277 :    51.367070530170690
 Root    278 :    51.642313337146700
 Root    279 :    51.738841473761100
 Root    280 :    51.851493684295060
 Root    281 :    51.914576525743710
 Root    282 :    52.093302243679550
 Root    283 :    52.298159718645010
 Root    284 :    52.336411858442080
 Root    285 :    52.533813442810110
 Root    286 :    52.660640845419570
 Root    287 :    52.825735267824510
 Root    288 :    52.977031468254700
 Root    289 :    53.297424024995540
 Root    290 :    53.365105116965240
 Root    291 :    53.642932132046710
 Root    292 :    53.645139206805210
 Root    293 :    53.963062013526060
 Root    294 :    54.216923445403430
 Root    295 :    54.289063698789470
 Root    296 :    54.422851644085820
 Root    297 :    54.602424874730000
 Root    298 :    54.620714678340330
 Root    299 :    54.667454755290950
 Root    300 :    54.832262975808330
 Root    301 :    54.940347691214730
 Root    302 :    55.384258286815480
 Root    303 :    55.607998682638750
 Root    304 :    55.889521117120490
 Root    305 :    55.951558797374350
 Root    306 :    56.044841478553540
 Root    307 :    56.110225813390560
 Root    308 :    56.129275769377960
 Root    309 :    56.520481415151320
 Root    310 :    56.624392806769100
 Root    311 :    56.791794484576950
 Root    312 :    56.900084603779140
 Root    313 :    57.139544081050990
 Root    314 :    57.432433756641070
 Root    315 :    57.747286790899790
 Root    316 :    58.238830231603610
 Root    317 :    58.256911190788240
 Root    318 :    58.426404508361360
 Root    319 :    58.558815050165210
 Root    320 :    58.600814883996560
 Root    321 :    58.787667762164270
 Root    322 :    58.846830193747950
 Root    323 :    58.953119629405260
 Root    324 :    59.022107581850320
 Root    325 :    59.337677358629240
 Root    326 :    59.546443153525720
 Root    327 :    59.637139154217210
 Root    328 :    59.925482744613280
 Root    329 :    60.085129883327020
 Root    330 :    60.391551021319010
 Root    331 :    60.400320736248030
 Root    332 :    60.423323708868230
 Root    333 :    60.730151940402900
 Root    334 :    60.948220077154990
 Root    335 :    61.014258664515960
 Root    336 :    61.223235522493780
 Root    337 :    61.371636112543040
 Root    338 :    61.559978777150550
 Root    339 :    61.719534768513090
 Root    340 :    61.925165321322920
 Root    341 :    62.216321586885730
 Root    342 :    62.267163695452280
 Root    343 :    62.394348680512650
 Root    344 :    62.502812543855170
 Root    345 :    62.577009198031280
 Root    346 :    62.699752351262180
 Root    347 :    62.868290658310130
 Root    348 :    63.031327722921440
 Root    349 :    63.205432797183060
 Root    350 :    63.452643648857970
 Root    351 :    63.647183389833560
 Root    352 :    64.069738212043150
 Root    353 :    64.146378167186270
 Root    354 :    64.210990189145860
 Root    355 :    64.483825900418980
 Root    356 :    64.574865699181090
 Root    357 :    64.909020558513430
 Root    358 :    65.071750039218700
 Root    359 :    65.100460309022570
 Root    360 :    65.208578869856820
 Root    361 :    65.351615626666540
 Root    362 :    65.408888879747790
 Root    363 :    65.533431522598380
 Root    364 :    65.543554291934460
 Root    365 :    65.578028799295680
 Root    366 :    65.697495128830620
 Root    367 :    65.917768933931750
 Root    368 :    66.139136247697710
 Root    369 :    66.151407160648700
 Root    370 :    66.258940454889920
 Root    371 :    66.274042772145760
 Root    372 :    66.566053974246880
 Root    373 :    66.666228641354980
 Root    374 :    66.984026076631580
 Root    375 :    67.278759514339110
 Root    376 :    67.355384856801690
 Root    377 :    67.497871424866190
 Root    378 :    67.580163241625560
 Root    379 :    67.597421248462670
 Root    380 :    67.857920476213980
 Root    381 :    67.946947410072510
 Root    382 :    68.361333509308890
 Root    383 :    68.430260798998090
 Root    384 :    68.543125115690470
 Root    385 :    68.762268488423400
 Root    386 :    68.903333884945880
 Root    387 :    69.078862388980200
 Root    388 :    69.288174337110350
 Root    389 :    69.760140915766090
 Root    390 :    69.995589499609910
 Root    391 :    70.077610475275830
 Root    392 :    70.108756765833760
 Root    393 :    70.342628931580850
 Root    394 :    70.355268320499010
 Root    395 :    70.491216185406460
 Root    396 :    70.748103839666470
 Root    397 :    70.801824505679140
 Root    398 :    70.973728550456260
 Root    399 :    71.029379041248600
 Root    400 :    71.105180392745250
 Root    401 :    71.153552038127660
 Root    402 :    71.252254426668960
 Root    403 :    71.392729255948350
 Root    404 :    71.491823396077410
 Root    405 :    71.708577249164820
 Root    406 :    71.960018461379410
 Root    407 :    72.082574843352450
 Root    408 :    72.111969680527180
 Root    409 :    72.212981669481410
 Root    410 :    72.280829547141440
 Root    411 :    72.744005895413680
 Root    412 :    72.885636367805840
 Root    413 :    73.003658915559070
 Root    414 :    73.163000699222520
 Root    415 :    73.265249291842950
 Root    416 :    73.662305992167820
 Root    417 :    73.721837545246340
 Root    418 :    74.167241117751760
 Root    419 :    74.632016569607190
 Root    420 :    74.874233425784010
 Root    421 :    74.911039748865040
 Root    422 :    74.942589460724420
 Root    423 :    75.213576664067600
 Root    424 :    75.491879559338400
 Root    425 :    75.604840319005960
 Root    426 :    75.747592212291100
 Root    427 :    75.891137198343290
 Root    428 :    76.265994990655530
 Root    429 :    76.745964946122800
 Root    430 :    76.819957429392400
 Root    431 :    77.038533093822950
 Root    432 :    77.148671151212780
 Root    433 :    77.375211644994040
 Root    434 :    77.502912506791600
 Root    435 :    77.664913790703540
 Root    436 :    77.752554237628520
 Root    437 :    77.970743454828000
 Root    438 :    78.182402223757240
 Root    439 :    78.354343926022280
 Root    440 :    78.509493171225030
 Root    441 :    78.546659655703910
 Root    442 :    78.616867640548990
 Root    443 :    78.908834222698740
 Root    444 :    79.186696600537120
 Root    445 :    79.546838219738350
 Root    446 :    79.656028181312830
 Root    447 :    79.717274029010300
 Root    448 :    80.040672539900130
 Root    449 :    80.331174624822850
 Root    450 :    80.421208405032960
 Root    451 :    80.680968614517840
 Root    452 :    81.005864748494420
 Root    453 :    81.218227946433470
 Root    454 :    81.282716443330100
 Root    455 :    81.545551290175510
 Root    456 :    81.783534219452870
 Root    457 :    81.907567785232330
 Root    458 :    82.251607967754990
 Root    459 :    82.362691291068400
 Root    460 :    82.442130929845260
 Root    461 :    82.545308642133020
 Root    462 :    82.782712729490740
 Root    463 :    82.914442193890760
 Root    464 :    82.951902844492000
 Root    465 :    83.465432559561050
 Root    466 :    83.652042120949190
 Root    467 :    83.717960301528550
 Root    468 :    83.862970615118840
 Root    469 :    84.082192259632590
 Root    470 :    84.385105402717360
 Root    471 :    84.570251085218260
 Root    472 :    84.576537139539720
 Root    473 :    84.764599626981820
 Root    474 :    84.834900693481670
 Root    475 :    84.843841262300540
 Root    476 :    84.974176908289820
 Root    477 :    85.047056535689750
 Root    478 :    85.191916392616360
 Root    479 :    85.303482399327170
 Root    480 :    85.437109719462500
 Root    481 :    85.493568013389630
 Root    482 :    85.494989858873080
 Root    483 :    85.623771732808580
 Root    484 :    85.866914371995450
 Root    485 :    85.876509865210110
 Root    486 :    86.690588185516160
 Root    487 :    86.741924183360030
 Root    488 :    87.241602637194750
 Root    489 :    87.524094321587380
 Root    490 :    87.728642532354270
 Root    491 :    88.025186649103300
 Root    492 :    88.119643580536860
 Root    493 :    88.181685830622130
 Root    494 :    88.626132332229790
 Root    495 :    88.667161180136120
 Root    496 :    88.722950026724390
 Root    497 :    88.848863014707650
 Root    498 :    88.900604497923110
 Root    499 :    89.015459259635530
 Root    500 :    89.051935394651320
 Root    501 :    89.083672655040080
 Root    502 :    89.622469876571230
 Root    503 :    89.629636859745060
 Root    504 :    89.709159088622460
 Root    505 :    89.960046015059820
 Root    506 :    90.205952883339390
 Root    507 :    90.235397463335740
 Root    508 :    90.358642100449060
 Root    509 :    90.524548926549120
 Root    510 :    90.654584087350360
 Root    511 :    91.002930041597250
 Root    512 :    91.085553203294890
 Root    513 :    91.298152165834410
 Root    514 :    91.745354763748040
 Root    515 :    91.752033543573030
 Root    516 :    91.797268678720570
 Root    517 :    91.953443632469420
 Root    518 :    92.065776875616050
 Root    519 :    92.463955014633060
 Root    520 :    92.540065097386820
 Root    521 :    92.604985162303550
 Root    522 :    92.628775844591360
 Root    523 :    93.033245255062100
 Root    524 :    93.757628763598120
 Root    525 :    93.815248576248510
 Root    526 :    94.060352947144320
 Root    527 :    94.290222639682850
 Root    528 :    94.487885315021640
 Root    529 :    94.677833944131220
 Root    530 :    94.815233088640470
 Root    531 :    94.914472231626960
 Root    532 :    94.991172993663480
 Root    533 :    95.092984438504190
 Root    534 :    95.206175786607490
 Root    535 :    95.644147221515410
 Root    536 :    95.725752212907750
 Root    537 :    95.979748690643490
 Root    538 :    96.025345381148470
 Root    539 :    96.065247242641950
 Root    540 :    96.455032500846020
 Root    541 :    96.516498400951450
 Root    542 :    96.574686006526210
 Root    543 :    96.640678520094810
 Root    544 :    97.618287597067610
 Root    545 :    97.664527957618060
 Root    546 :    97.881271263957610
 Root    547 :    98.629393824923530
 Root    548 :    99.114176983013000
 Root    549 :    99.123226677278420
 Root    550 :    99.256305974354050
 Root    551 :    99.404249038834520
 Root    552 :    99.445841025287170
 Root    553 :    99.549505119469880
 Root    554 :    99.667312393054230
 Root    555 :    99.786212700332360
 Root    556 :   100.023141010268100
 Root    557 :   100.119189236800400
 Root    558 :   100.129566361335200
 Root    559 :   100.225135365111400
 Root    560 :   100.392905350874700
 Root    561 :   100.729656718621400
 Root    562 :   101.002404790149300
 Root    563 :   101.189484289484700
 Root    564 :   101.191133416629300
 Root    565 :   101.326022109468200
 Root    566 :   101.367281433900500
 Root    567 :   101.490411527932700
 Root    568 :   101.540144658355300
 Root    569 :   101.918104774740800
 Root    570 :   102.482315766839800
 Root    571 :   102.853844352523200
 Root    572 :   103.166298607004800
 Root    573 :   103.739263871318800
 Root    574 :   104.035771122125600
 Root    575 :   104.656823087303800
 Root    576 :   104.775365146494400
 Root    577 :   105.215510804919100
 Root    578 :   105.299532871839100
 Root    579 :   105.326080271815600
 Root    580 :   105.515056496944500
 Root    581 :   105.971676570796300
 Root    582 :   106.564305185201000
 Root    583 :   106.599502230675500
 Root    584 :   106.991115980150900
 Root    585 :   107.071842515834200
 Root    586 :   107.138180618586600
 Root    587 :   107.458794265450400
 Root    588 :   107.837061183128200
 Root    589 :   107.873946668320500
 Root    590 :   108.266072166415800
 Root    591 :   108.269268640588200
 Root    592 :   108.508435127520500
 Root    593 :   108.512430962927300
 Root    594 :   108.708655591489600
 Root    595 :   109.329828789375200
 Root    596 :   109.950172570864600
 Root    597 :   110.357510321318800
 Root    598 :   110.617774616013200
 Root    599 :   111.339915939499800
 Root    600 :   111.396661600456100
 Root    601 :   111.684971612633800
 Root    602 :   111.817742821696900
 Root    603 :   111.824700165361700
 Root    604 :   111.878488809058600
 Root    605 :   112.323598885429700
 Root    606 :   113.035075654804000
 Root    607 :   113.319784807281200
 Root    608 :   113.339604762365300
 Root    609 :   113.677516421323200
 Root    610 :   114.056928675604700
 Root    611 :   114.786119807103800
 Root    612 :   115.481818123501900
 Root    613 :   115.521938569998100
 Root    614 :   115.564573161288100
 Root    615 :   115.787902061473200
 Root    616 :   115.874598741096300
 Root    617 :   116.147445863546700
 Root    618 :   116.190332014816100
 Root    619 :   116.461431731107700
 Root    620 :   116.860974982381500
 Root    621 :   117.368296151212400
 Root    622 :   117.413647872872700
 Root    623 :   117.548084610103300
 Root    624 :   118.098320268411600
 Root    625 :   118.459530331032900
 Root    626 :   118.460249556554700
 Root    627 :   118.806541816327200
 Root    628 :   118.868865814868000
 Root    629 :   119.009672778683600
 Root    630 :   119.223493974979900
 Root    631 :   119.663799911624600
 Root    632 :   120.429784710615100
 Root    633 :   120.921450359123600
 Root    634 :   121.170713209443000
 Root    635 :   121.657858818893800
 Root    636 :   121.712085347719500
 Root    637 :   121.979235074136200
 Root    638 :   122.530134691940500
 Root    639 :   122.639798512372600
 Root    640 :   122.785761180984200
 Root    641 :   122.954736584934400
 Root    642 :   123.232668113687800
 Root    643 :   123.558179450752800
 Root    644 :   123.885210503755300
 Root    645 :   124.044332002242600
 Root    646 :   124.197763871625200
 Root    647 :   125.292213418163400
 Root    648 :   125.720025052144800
 Root    649 :   125.979195059146300
 Root    650 :   126.407377321109600
 Root    651 :   127.379446424076200
 Root    652 :   127.978777069235400
 Root    653 :   128.350589154821100
 Root    654 :   129.098249412010100
 Root    655 :   129.141121567996000
 Root    656 :   129.568117850772700
 Root    657 :   130.444019514693800
 Root    658 :   130.691403474528300
 Root    659 :   130.726586637351400
 Root    660 :   130.925633168473800
 Root    661 :   131.451828466421800
 Root    662 :   131.681458887550800
 Root    663 :   132.172503879685000
 Root    664 :   132.173311200440700
 Root    665 :   132.346073520766400
 Root    666 :   134.051961373257700
 Root    667 :   134.371560802405300
 Root    668 :   134.892315192524100
 Root    669 :   134.926736599524800
 Root    670 :   135.002341576815600
 Root    671 :   135.113946424730300
 Root    672 :   135.338091195739900
 Root    673 :   135.400218267107900
 Root    674 :   135.955025166179200
 Root    675 :   136.009134495980700
 Root    676 :   136.182481547388800
 Root    677 :   136.631932423945900
 Root    678 :   136.939804036283200
 Root    679 :   137.465418790387900
 Root    680 :   137.540004545364500
 Root    681 :   137.915551267211900
 Root    682 :   137.971870153994300
 Root    683 :   138.167213619027500
 Root    684 :   138.430045176188500
 Root    685 :   139.423050567932100
 Root    686 :   139.475121009218500
 Root    687 :   139.611192283442100
 Root    688 :   140.230180726230800
 Root    689 :   140.497178201483600
 Root    690 :   140.816267192054500
 Root    691 :   140.904694926864300
 Root    692 :   141.362550259685700
 Root    693 :   141.663305632489500
 Root    694 :   142.131693244632500
 Root    695 :   142.169405690696000
 Root    696 :   142.187532346713500
 Root    697 :   142.540727807223500
 Root    698 :   142.904230351262600
 Root    699 :   142.936416517268500
 Root    700 :   144.389378567482400
 Root    701 :   144.761041229022200
 Root    702 :   144.850515039449100
 Root    703 :   144.951990527561500
 Root    704 :   145.390521789032800
 Root    705 :   145.975433978352600
 Root    706 :   145.983753677311900
 Root    707 :   146.384455341404000
 Root    708 :   146.718338820391700
 Root    709 :   146.948928572200000
 Root    710 :   147.275339954427100
 Root    711 :   147.432807952225700
 Root    712 :   147.655885796961800
 Root    713 :   148.165057934005600
 Root    714 :   148.946397918674400
 Root    715 :   149.100549840319400
 Root    716 :   149.541708002381200
 Root    717 :   149.629551254378500
 Root    718 :   149.834241053546700
 Root    719 :   150.422845780710200
 Root    720 :   150.662367776068300
 Root    721 :   150.778615926029600
 Root    722 :   150.900894246625200
 Root    723 :   151.262872670183400
 Root    724 :   151.429328099213900
 Root    725 :   151.828081009890000
 Root    726 :   152.069829043586700
 Root    727 :   152.168992455880800
 Root    728 :   152.194449725500600
 Root    729 :   152.455221500284800
 Root    730 :   152.513492204953800
 Root    731 :   152.798229954295200
 Root    732 :   153.044788949485500
 Root    733 :   153.483387177245900
 Root    734 :   153.645000416633100
 Root    735 :   153.778896519163900
 Root    736 :   154.162452564451900
 Root    737 :   154.502525743558400
 Root    738 :   154.695608481524100
 Root    739 :   154.759943565923000
 Root    740 :   154.776864731421600
 Root    741 :   155.033171249424900
 Root    742 :   155.523424516608300
 Root    743 :   156.136002026058200
 Root    744 :   156.287466038456600
 Root    745 :   156.420350752642400
 Root    746 :   156.878423143407400
 Root    747 :   156.906681564089300
 Root    748 :   157.009923509208200
 Root    749 :   157.013561269249900
 Root    750 :   157.112946783258400
 Root    751 :   157.546226582513100
 Root    752 :   158.052810994828800
 Root    753 :   158.057861098088000
 Root    754 :   158.436152637086500
 Root    755 :   158.457179092644100
 Root    756 :   158.459036921998100
 Root    757 :   159.766301708647600
 Root    758 :   159.854776459604700
 Root    759 :   159.989275061731400
 Root    760 :   160.634446400052000
 Root    761 :   160.710567651567500
 Root    762 :   160.770707014634400
 Root    763 :   160.944768947820300
 Root    764 :   161.355467004267400
 Root    765 :   162.167337617804700
 Root    766 :   162.330129410251700
 Root    767 :   162.505386851821000
 Root    768 :   163.382910471897900
 Root    769 :   164.315076721609800
 Root    770 :   164.680825219912400
 Root    771 :   165.578758012361400
 Root    772 :   165.754247818572400
 Root    773 :   166.228916133693900
 Root    774 :   166.900049901494600
 Root    775 :   167.072135848018600
 Root    776 :   167.759957341194800
 Root    777 :   168.480621350414300
 Root    778 :   168.683991823233600
 Root    779 :   168.860737589671900
 Root    780 :   169.341760499020900
 Root    781 :   169.445804038633600
 Root    782 :   169.664758416790200
 Root    783 :   169.727428355863700
 Root    784 :   171.059197121810300
 Root    785 :   172.002672032669200
 Root    786 :   172.894725218400000
 Root    787 :   173.023870872599600
 Root    788 :   173.213237879938300
 Root    789 :   173.301777464195900
 Root    790 :   173.645651971019800
 Root    791 :   174.449978547101600
 Root    792 :   174.601006755806300
 Root    793 :   175.022567416087200
 Root    794 :   175.056011705965600
 Root    795 :   175.917529494733500
 Root    796 :   175.970012075650300
 Root    797 :   176.621620521469000
 Root    798 :   178.054794680899400
 Root    799 :   178.721697396914300
 Root    800 :   178.933060257916400
 Root    801 :   179.308445182559800
 Root    802 :   179.472111342274900
[...]
      1  -0.162841D+03 -0.162829D+03 -0.162814D+03 -0.162810D+03 -0.162806D+03
      2   0.000000D+00 -0.546871D-02 -0.900802D-02  0.000000D+00 -0.366156D-01
      3   0.000000D+00 -0.223312D-01  0.344371D-02  0.000000D+00 -0.399074D-01
      4  -0.296738D-01  0.000000D+00  0.000000D+00 -0.105887D-01  0.000000D+00
      5   0.000000D+00  0.265932D-01  0.865314D-01  0.000000D+00  0.263617D+00
      6   0.000000D+00  0.197456D+00 -0.288377D-01  0.000000D+00  0.272031D+00
      7   0.259415D+00  0.000000D+00  0.000000D+00  0.784682D-01  0.000000D+00
      8  -0.192855D+00  0.000000D+00  0.000000D+00 -0.767342D-01  0.000000D+00
      9   0.517842D+00  0.000000D+00  0.000000D+00  0.167394D+00  0.000000D+00
     10   0.000000D+00 -0.397483D+00  0.148445D+00  0.000000D+00 -0.329364D+00
     11   0.000000D+00  0.830982D-01 -0.364097D+00  0.000000D+00 -0.100088D+01
     12   0.000000D+00 -0.259700D+00  0.274175D-01  0.000000D+00 -0.455484D+00
     13   0.000000D+00 -0.655447D-01  0.280715D-01  0.000000D+00  0.367969D-01
     14   0.000000D+00 -0.320303D+00  0.378525D-01  0.000000D+00 -0.704416D+00
     15  -0.504756D+00  0.000000D+00  0.000000D+00 -0.187148D+00  0.000000D+00
     16  -0.837142D-01  0.000000D+00  0.000000D+00 -0.103531D+00  0.000000D+00
               826           827           828           829           830 
      1  -0.162795D+03 -0.162754D+03 -0.162749D+03 -0.162737D+03 -0.162678D+03
      2  -0.363532D-01 -0.119025D-01 -0.827336D-02  0.000000D+00  0.000000D+00
      3   0.481198D-01  0.105626D-01  0.773747D-03  0.000000D+00  0.000000D+00
      4   0.000000D+00  0.000000D+00  0.000000D+00 -0.673601D-01  0.794334D-02
      5   0.300554D+00  0.118716D+00  0.494731D-01  0.000000D+00  0.000000D+00
      6  -0.377974D+00 -0.844710D-01 -0.827273D-02  0.000000D+00  0.000000D+00
      7   0.000000D+00  0.000000D+00  0.000000D+00  0.555653D+00 -0.168443D-01
      8   0.000000D+00  0.000000D+00  0.000000D+00 -0.392062D+00  0.411411D-03
      9   0.000000D+00  0.000000D+00  0.000000D+00  0.105183D+01 -0.318192D-01
     10   0.970269D+00  0.351108D+00 -0.122302D-01  0.000000D+00  0.000000D+00
     11  -0.120219D+01 -0.871023D+00  0.213855D-01  0.000000D+00  0.000000D+00
     12   0.635828D+00  0.139564D+00 -0.162293D-01  0.000000D+00  0.000000D+00
     13  -0.183975D-01  0.476268D-01 -0.508848D-01  0.000000D+00  0.000000D+00
     14   0.541142D+00  0.966848D-01 -0.829485D-01  0.000000D+00  0.000000D+00
     15   0.000000D+00  0.000000D+00  0.000000D+00 -0.115413D+01  0.917663D-01
     16   0.000000D+00  0.000000D+00  0.000000D+00 -0.508855D+00  0.966419D-01
               831           832           833           834           835 
      1  -0.162669D+03 -0.162655D+03 -0.162655D+03 -0.162641D+03 -0.162602D+03
      2   0.000000D+00 -0.794913D-02  0.000000D+00 -0.724110D-02  0.493914D-01
      3   0.000000D+00  0.459467D-01  0.000000D+00  0.564779D-01  0.153926D-02
      4  -0.216248D-01  0.000000D+00  0.201396D-01  0.000000D+00  0.000000D+00
      5   0.000000D+00  0.487607D-01  0.000000D+00  0.540149D-01 -0.399900D+00
      6   0.000000D+00 -0.325588D+00  0.000000D+00 -0.404715D+00 -0.180630D-01
      7   0.257658D+00  0.000000D+00 -0.211621D+00  0.000000D+00  0.000000D+00
      8  -0.201126D+00  0.000000D+00  0.169912D+00  0.000000D+00  0.000000D+00
      9   0.513162D+00  0.000000D+00 -0.423442D+00  0.000000D+00  0.000000D+00
     10   0.000000D+00  0.716338D+00  0.000000D+00  0.721055D+00 -0.209506D+00
     11   0.000000D+00  0.104235D+00  0.000000D+00 -0.530696D-01  0.159101D+01
     12   0.000000D+00  0.533926D+00  0.000000D+00  0.460916D+00  0.436390D-03
     13   0.000000D+00 -0.658253D-01  0.000000D+00 -0.179059D-03 -0.102954D-02
     14   0.000000D+00  0.785240D+00  0.000000D+00  0.674438D+00  0.257384D+00
     15  -0.560993D+00  0.000000D+00  0.416409D+00  0.000000D+00  0.000000D+00
     16  -0.235496D+00  0.000000D+00  0.216159D+00  0.000000D+00  0.000000D+00
               836           837           838           839           840 
      1  -0.162572D+03 -0.162568D+03 -0.162527D+03 -0.162518D+03 -0.162475D+03
      2   0.122416D-01  0.000000D+00  0.270653D-01  0.000000D+00  0.000000D+00
      3   0.992554D-02  0.000000D+00  0.352145D-01  0.000000D+00  0.000000D+00
      4   0.000000D+00  0.297728D-01  0.000000D+00 -0.304749D-01 -0.583089D-02
      5  -0.117875D+00  0.000000D+00 -0.206086D+00  0.000000D+00  0.000000D+00
      6  -0.827919D-01  0.000000D+00 -0.228134D+00  0.000000D+00  0.000000D+00
      7   0.000000D+00 -0.248089D+00  0.000000D+00  0.208287D+00  0.652880D-01
      8   0.000000D+00  0.149662D+00  0.000000D+00 -0.153009D+00 -0.453596D-01
      9   0.000000D+00 -0.426461D+00  0.000000D+00  0.391105D+00  0.126001D+00
     10   0.848673D-01  0.000000D+00  0.292820D+00  0.000000D+00  0.000000D+00
     11   0.421602D+00  0.000000D+00  0.897257D+00  0.000000D+00  0.000000D+00
     12   0.212919D-01  0.000000D+00  0.222803D+00  0.000000D+00  0.000000D+00
     13   0.172267D-01  0.000000D+00 -0.317864D-01  0.000000D+00  0.000000D+00
     14   0.197817D+00  0.000000D+00  0.598998D+00  0.000000D+00  0.000000D+00
     15   0.000000D+00  0.468041D+00  0.000000D+00 -0.303028D+00 -0.114316D+00
     16   0.000000D+00  0.186274D+00  0.000000D+00 -0.236530D+00 -0.716184D-01
               841           842           843           844           845 
      1  -0.162470D+03 -0.162427D+03 -0.162417D+03 -0.162345D+03 -0.162342D+03
      2   0.403982D-01 -0.348448D-01 -0.279091D-02  0.000000D+00  0.000000D+00
      3   0.188978D-01 -0.239368D-01 -0.260509D-02  0.000000D+00  0.000000D+00
      4   0.000000D+00  0.000000D+00  0.000000D+00 -0.450083D-02 -0.148099D-01
      5  -0.288701D+00  0.276102D+00  0.697155D-02  0.000000D+00  0.000000D+00
      6  -0.220344D+00  0.191025D+00  0.224285D-01  0.000000D+00  0.000000D+00
      7   0.000000D+00  0.000000D+00  0.000000D+00  0.333977D-01  0.115244D+00
      8   0.000000D+00  0.000000D+00  0.000000D+00 -0.416206D-01 -0.675293D-01
      9   0.000000D+00  0.000000D+00  0.000000D+00  0.796808D-01  0.210202D+00
     10   0.252553D+00 -0.820704D-01 -0.453961D-01  0.000000D+00  0.000000D+00
     11   0.895036D+00 -0.107714D+01  0.416940D-01  0.000000D+00  0.000000D+00
     12   0.535343D+00 -0.199330D+00  0.122351D+00  0.000000D+00  0.000000D+00
     13   0.365985D-01 -0.210654D-01 -0.558070D-01  0.000000D+00  0.000000D+00
     14   0.808168D+00 -0.344031D+00  0.601173D-02  0.000000D+00  0.000000D+00
     15   0.000000D+00  0.000000D+00  0.000000D+00 -0.456861D-01 -0.153313D+00
     16   0.000000D+00  0.000000D+00  0.000000D+00 -0.919931D-01 -0.531923D-01
               846           847           848           849           850 
      1  -0.162327D+03 -0.162285D+03 -0.162234D+03 -0.162206D+03 -0.162204D+03
      2   0.563107D-01  0.167888D-02 -0.187125D-01  0.000000D+00  0.225050D-01
      3  -0.146124D-01 -0.414724D-01 -0.143667D-01  0.000000D+00 -0.226561D-01
      4   0.000000D+00  0.000000D+00  0.000000D+00  0.337939D-01  0.000000D+00
      5  -0.410029D+00 -0.250914D-01  0.158476D+00  0.000000D+00 -0.158804D+00
      6   0.611585D-01  0.293618D+00  0.127902D+00  0.000000D+00  0.160301D+00
      7   0.000000D+00  0.000000D+00  0.000000D+00 -0.185987D+00  0.000000D+00
      8   0.000000D+00  0.000000D+00  0.000000D+00  0.199330D+00  0.000000D+00
      9   0.000000D+00  0.000000D+00  0.000000D+00 -0.418692D+00  0.000000D+00
     10  -0.421675D+00 -0.511769D+00 -0.163394D+00  0.000000D+00 -0.443443D+00
     11   0.152951D+01  0.196009D+00 -0.430502D+00  0.000000D+00  0.630615D+00
     12  -0.712740D-01 -0.566433D+00 -0.126900D+00  0.000000D+00 -0.321134D+00
     13   0.758819D-01 -0.858638D-02  0.195132D-01  0.000000D+00  0.418529D-01
     14   0.342942D+00 -0.430309D+00 -0.256055D+00  0.000000D+00 -0.915067D-01
     15   0.000000D+00  0.000000D+00  0.000000D+00  0.557985D+00  0.000000D+00
     16   0.000000D+00  0.000000D+00  0.000000D+00  0.320821D+00  0.000000D+00
               851           852           853           854           855 
      1  -0.162201D+03 -0.162177D+03 -0.162165D+03 -0.162104D+03 -0.162051D+03
      2   0.986432D-02  0.316920D-01  0.000000D+00 -0.587926D-02  0.000000D+00
      3  -0.171586D-02  0.164456D-01  0.000000D+00  0.169574D-01  0.000000D+00
      4   0.000000D+00  0.000000D+00 -0.776908D-02  0.000000D+00  0.295184D-01
      5  -0.671615D-01 -0.215248D+00  0.000000D+00  0.329700D-01  0.000000D+00
      6   0.471756D-02 -0.804562D-01  0.000000D+00 -0.123075D+00  0.000000D+00
      7   0.000000D+00  0.000000D+00  0.752251D-01  0.000000D+00 -0.195287D+00
      8   0.000000D+00  0.000000D+00 -0.251569D-01  0.000000D+00  0.145976D-01
      9   0.000000D+00  0.000000D+00  0.120282D+00  0.000000D+00 -0.241752D+00
     10   0.774775D-01 -0.164545D+00  0.000000D+00  0.238550D+00  0.000000D+00
     11  -0.648953D-01  0.114820D+01  0.000000D+00 -0.229159D+00  0.000000D+00
     12  -0.280814D-01 -0.916290D-02  0.000000D+00  0.182522D+00  0.000000D+00
     13   0.706913D-01 -0.448771D-01  0.000000D+00 -0.709309D-02  0.000000D+00
     14  -0.764114D-01  0.464458D+00  0.000000D+00  0.873252D-01  0.000000D+00
     15   0.000000D+00  0.000000D+00 -0.191101D+00  0.000000D+00  0.363544D+00
     16   0.000000D+00  0.000000D+00 -0.829980D-01  0.000000D+00  0.945215D-01
               856           857           858           859           860 
      1  -0.162032D+03 -0.162015D+03 -0.161981D+03 -0.161906D+03 -0.161876D+03
      2   0.288022D-01  0.276389D-01 -0.231582D-01  0.328940D-02  0.620158D-02
      3  -0.114927D-01  0.244101D-02 -0.165728D-01 -0.134500D-01 -0.462774D-02
      4   0.000000D+00  0.000000D+00  0.000000D+00  0.000000D+00  0.000000D+00
      5  -0.215392D+00 -0.226366D+00  0.142826D+00 -0.542734D-01 -0.233001D-01
      6   0.751074D-01 -0.408545D-01  0.642412D-01  0.963411D-01  0.155154D-01
      7   0.000000D+00  0.000000D+00  0.000000D+00  0.000000D+00  0.000000D+00
      8   0.000000D+00  0.000000D+00  0.000000D+00  0.000000D+00  0.000000D+00
      9   0.000000D+00  0.000000D+00  0.000000D+00  0.000000D+00  0.000000D+00
     10  -0.256707D+00  0.304993D-02 -0.138385D+00 -0.171103D+00 -0.228833D-01
     11   0.102101D+01  0.693665D+00 -0.841180D+00 -0.411793D-01  0.247710D-01
     12  -0.146192D+00 -0.802502D-01 -0.477567D+00 -0.346297D+00  0.546902D-01
     13  -0.285352D-01 -0.239381D-01  0.913117D-01  0.467605D-01 -0.935350D-02
     14   0.835353D-01  0.171972D+00 -0.661452D+00 -0.342136D+00  0.108351D+00
     15   0.000000D+00  0.000000D+00  0.000000D+00  0.000000D+00  0.000000D+00
     16   0.000000D+00  0.000000D+00  0.000000D+00  0.000000D+00  0.000000D+00
               861           862           863           864           865 
      1  -0.161805D+03 -0.161695D+03 -0.161579D+03 -0.161390D+03 -0.147210D+03
      2   0.125659D-01  0.226576D-02 -0.156772D-01  0.243838D-01  0.000000D+00
      3   0.152178D-01 -0.104793D-01 -0.242510D-01  0.203561D-01  0.000000D+00
      4   0.000000D+00  0.000000D+00  0.000000D+00  0.000000D+00 -0.174859D-01
      5  -0.607157D-01 -0.377599D-01  0.120524D+00 -0.252566D+00  0.000000D+00
      6  -0.926954D-01  0.113267D+00  0.196090D+00 -0.223006D+00  0.000000D+00
      7   0.000000D+00  0.000000D+00  0.000000D+00  0.000000D+00  0.124879D+00
      8   0.000000D+00  0.000000D+00  0.000000D+00  0.000000D+00  0.159041D-02
      9   0.000000D+00  0.000000D+00  0.000000D+00  0.000000D+00 -0.260500D+00
     10   0.144636D+00 -0.205592D+00 -0.204186D+00  0.273299D+00  0.000000D+00
     11   0.434867D+00  0.255307D+00 -0.549890D+00  0.615880D+00  0.000000D+00
     12   0.343328D+00 -0.139943D+00 -0.288762D+00  0.131754D+00  0.000000D+00
     13  -0.606725D-01  0.113941D-01  0.585069D-01 -0.278396D-02  0.000000D+00
     14   0.515944D+00 -0.157348D+00 -0.522852D+00  0.356877D+00  0.000000D+00
     15   0.000000D+00  0.000000D+00  0.000000D+00  0.000000D+00  0.247574D+00
     16   0.000000D+00  0.000000D+00  0.000000D+00  0.000000D+00 -0.309510D-03
               866           867           868           869           870 
      1  -0.147164D+03 -0.147078D+03 -0.147003D+03 -0.146992D+03 -0.146904D+03
      2   0.518399D-02  0.908588D-02  0.000000D+00  0.117577D-01  0.214529D-02
      3  -0.633944D-02  0.535499D-02  0.000000D+00 -0.924044D-02 -0.200690D-02
      4   0.000000D+00  0.000000D+00  0.125989D-01  0.000000D+00  0.000000D+00
      5  -0.264143D-01 -0.114490D+00  0.000000D+00 -0.112483D+00 -0.275076D-01
      6   0.745107D-01 -0.902121D-01  0.000000D+00  0.900204D-01  0.529715D-01
      7   0.000000D+00  0.000000D+00 -0.410755D-01  0.000000D+00  0.000000D+00
      8   0.000000D+00  0.000000D+00 -0.109962D-02  0.000000D+00  0.000000D+00
      9   0.000000D+00  0.000000D+00  0.652992D-01  0.000000D+00  0.000000D+00
     10   0.164174D+00 -0.193012D+00  0.000000D+00  0.179534D+00  0.115246D+00
     11  -0.796720D-01 -0.510196D+00  0.000000D+00 -0.514637D+00 -0.117989D+00
     12  -0.252887D-01  0.362884D-01  0.000000D+00 -0.811203D-01 -0.517843D-01
     13   0.375972D-01  0.222710D-01  0.000000D+00 -0.319093D-01 -0.322435D-01
     14   0.191236D+00 -0.222770D+00  0.000000D+00  0.174323D+00  0.101378D+00
     15   0.000000D+00  0.000000D+00 -0.699651D-01  0.000000D+00  0.000000D+00
     16   0.000000D+00  0.000000D+00 -0.141412D-02  0.000000D+00  0.000000D+00
               871           872           873           874           875 
      1  -0.146826D+03 -0.146586D+03 -0.146304D+03 -0.137795D+03 -0.137767D+03
      2   0.798539D-02 -0.309665D-03 -0.980469D-03 -0.121316D-02  0.000000D+00
      3  -0.189675D-02 -0.446572D-03 -0.231932D-03  0.226380D-01  0.000000D+00
      4   0.000000D+00  0.000000D+00  0.000000D+00  0.000000D+00 -0.246093D-02
      5  -0.607837D-01  0.339800D-01  0.182690D-01  0.732122D-01  0.000000D+00
      6   0.685781D-02 -0.121207D-01 -0.198938D-02 -0.211513D+00  0.000000D+00
      7   0.000000D+00  0.000000D+00  0.000000D+00  0.000000D+00  0.140806D+00
      8   0.000000D+00  0.000000D+00  0.000000D+00  0.000000D+00  0.146312D+00
      9   0.000000D+00  0.000000D+00  0.000000D+00  0.000000D+00 -0.941865D-02
     10   0.184543D-01 -0.305689D-01 -0.101382D-01 -0.706797D-01  0.000000D+00
     11  -0.363036D+00 -0.704694D-01  0.111401D-01 -0.780061D-01  0.000000D+00
     12  -0.150544D+00 -0.141094D+00 -0.261454D-01 -0.520981D+00  0.000000D+00
     13  -0.137013D+00 -0.133872D+00 -0.317460D-01 -0.984467D-01  0.000000D+00
     14   0.850770D-02  0.106956D-02  0.146348D-01  0.877088D-01  0.000000D+00
     15   0.000000D+00  0.000000D+00  0.000000D+00  0.000000D+00 -0.306621D-02
     16   0.000000D+00  0.000000D+00  0.000000D+00  0.000000D+00  0.156134D+00
               876           877           878           879           880 
      1  -0.137616D+03 -0.137574D+03 -0.137557D+03 -0.137475D+03 -0.137372D+03
      2   0.000000D+00 -0.750287D-02  0.362149D-02 -0.718562D-03  0.651440D-02
      3   0.000000D+00 -0.627140D-02  0.389176D-02 -0.187533D-02 -0.901676D-03
      4   0.206541D-01  0.000000D+00  0.000000D+00  0.000000D+00  0.000000D+00
      5   0.000000D+00  0.128704D+00 -0.847590D-01  0.482536D-01 -0.483473D-01
      6   0.000000D+00 -0.471272D-02  0.292544D-03  0.674911D-01 -0.329272D-02
      7  -0.110749D+00  0.000000D+00  0.000000D+00  0.000000D+00  0.000000D+00
      8  -0.102834D+00  0.000000D+00  0.000000D+00  0.000000D+00  0.000000D+00
      9  -0.906896D-02  0.000000D+00  0.000000D+00  0.000000D+00  0.000000D+00
     10   0.000000D+00 -0.132252D+00  0.930719D-01 -0.409919D-01  0.492763D-01
     11   0.000000D+00 -0.457663D-02  0.249209D-01  0.394384D-01  0.583250D-01
     12   0.000000D+00 -0.392348D-02  0.423896D-01  0.193102D+00  0.958883D-01
     13   0.000000D+00  0.344513D-01  0.264684D-01  0.812547D-01  0.114231D+00
     14   0.000000D+00  0.122889D+00 -0.737971D-01  0.521112D-01 -0.202810D-01
     15   0.223109D-01  0.000000D+00  0.000000D+00  0.000000D+00  0.000000D+00
     16  -0.115184D+00  0.000000D+00  0.000000D+00  0.000000D+00  0.000000D+00
               881           882           883           884           885 
      1  -0.137152D+03 -0.136911D+03 -0.126072D+03 -0.126010D+03 -0.125863D+03
      2   0.189846D-02 -0.236755D-02  0.000000D+00  0.385229D-02  0.320477D-02
      3   0.853676D-03 -0.167295D-03  0.000000D+00 -0.146236D-01 -0.611572D-02
      4   0.000000D+00  0.000000D+00  0.319287D-01  0.000000D+00  0.000000D+00
      5  -0.460375D-01  0.287875D-01  0.000000D+00 -0.518661D-02 -0.154124D+00
      6   0.681204D-02  0.144637D-01  0.000000D+00  0.219470D+00  0.904969D-01
      7   0.000000D+00  0.000000D+00 -0.269879D+00  0.000000D+00  0.000000D+00
      8   0.000000D+00  0.000000D+00  0.199137D+00  0.000000D+00  0.000000D+00
      9   0.000000D+00  0.000000D+00 -0.519147D+00  0.000000D+00  0.000000D+00
     10   0.425960D-01 -0.226201D-01  0.000000D+00 -0.428687D+00 -0.295229D+00
     11  -0.187362D+00 -0.100532D+00  0.000000D+00 -0.252434D-01  0.553705D+00
     12  -0.157812D+00 -0.553031D-01  0.000000D+00 -0.394221D+00 -0.214811D+00
     13  -0.140130D+00 -0.115146D+00  0.000000D+00 -0.434448D-01 -0.764180D-01
     14  -0.395553D-01  0.459879D-01  0.000000D+00 -0.437132D+00 -0.673178D-01
     15   0.000000D+00  0.000000D+00  0.523708D+00  0.000000D+00  0.000000D+00
     16   0.000000D+00  0.000000D+00  0.202754D+00  0.000000D+00  0.000000D+00
               886           887           888           889           890 
      1  -0.125849D+03 -0.125806D+03 -0.125709D+03 -0.125601D+03 -0.125364D+03
      2   0.000000D+00  0.265357D-02  0.202405D-02 -0.187158D-02  0.152349D-02
      3   0.000000D+00  0.332678D-02 -0.251856D-02 -0.605585D-03  0.219575D-03
      4  -0.733010D-03  0.000000D+00  0.000000D+00  0.000000D+00  0.000000D+00
      5   0.000000D+00 -0.112518D+00 -0.817978D-01  0.518186D-01 -0.394721D-01
      6   0.000000D+00 -0.956151D-01  0.100965D-01  0.216981D-01  0.170107D-02
      7  -0.819024D-01  0.000000D+00  0.000000D+00  0.000000D+00  0.000000D+00
      8   0.663723D-01  0.000000D+00  0.000000D+00  0.000000D+00  0.000000D+00
      9  -0.167401D+00  0.000000D+00  0.000000D+00  0.000000D+00  0.000000D+00
     10   0.000000D+00  0.103167D+00 -0.793658D-01  0.478969D-02 -0.289111D-01
     11   0.000000D+00  0.487044D+00  0.317071D+00 -0.267387D+00  0.306527D+00
     12   0.000000D+00  0.212304D+00  0.479185D-02 -0.958091D-01  0.139757D+00
     13   0.000000D+00  0.554143D-01  0.302858D-02 -0.517198D-01  0.137348D+00
     14   0.000000D+00  0.276825D+00  0.361796D-01 -0.864256D-01  0.462611D-01
     15   0.177577D+00  0.000000D+00  0.000000D+00  0.000000D+00  0.000000D+00
     16   0.924271D-01  0.000000D+00  0.000000D+00  0.000000D+00  0.000000D+00
               891 
      1  -0.125181D+03
      2  -0.130882D-02
      3  -0.876605D-03
      4   0.000000D+00
      5   0.126142D-01
      6  -0.416122D-02
      7   0.000000D+00
      8   0.000000D+00
      9   0.000000D+00
     10   0.181623D-01
     11  -0.194947D+00
     12  -0.149898D+00
     13  -0.185944D+00
     14   0.312909D-01
     15   0.000000D+00
     16   0.000000D+00
 Unable to Open any file for archive entry.
 1\1\GINC-HEL21\SP\RwB97XD TD-FC\def2TZVP\C1H3N1O1\PRAKRITI\14-Aug-2021
 \0\\#P TD(Nstates=10000) wB97XD/def2TZVP SCF(maxcycles=100) Int(Grid=u
 ltrafine)\\xGDB7_00001_tier4.com\\0,1\O,0,-1.028621,-0.395177,0.\N,0,0
 .,0.526228,0.\C,0,1.132746,-0.030907,0.\H,0,-1.816572,0.151791,0.\H,0,
 1.994262,0.623439,0.\H,0,1.254802,-1.111965,0.\\Version=EM64L-G16RevC.
 01\State=1-A'\HF=-169.8269193\RMSD=7.104e-09\PG=CS [SG(C1H3N1O1)]\\@
 The archive entry for this job was punched.


 ON A TOMBSTONE, "HERE LIES LESTER MOORE,
 FOUR SLUGS FROM A 44, NO LES, NO MORE".
 Job cpu time:       0 days  0 hours 18 minutes 23.7 seconds.
 Elapsed time:       0 days  0 hours  2 minutes 18.4 seconds.
 File lengths (MBytes):  RWF=    990 Int=      0 D2E=      0 Chk=    260 Scr=      1
 Normal termination of Gaussian 16 at Sat Aug 14 06:19:19 2021.
