 Entering Gaussian System, Link 0=g16
 Input=xGDB7_000033_TDDFT.com
 Output=xGDB7_000033_TDDFT.log
 Initial command:
 /home/prakriti/g16/l1.exe "/scratch/prakriti/PBS_7421660.helios/Gau-135928.inp" -scrdir="/scratch/prakriti/PBS_7421660.helios/"
 Entering Link 1 = /home/prakriti/g16/l1.exe PID=    135929.
  
 Copyright (c) 1988-2019, Gaussian, Inc.  All Rights Reserved.
  
 This is part of the Gaussian(R) 16 program.  It is based on
 the Gaussian(R) 09 system (copyright 2009, Gaussian, Inc.),
 the Gaussian(R) 03 system (copyright 2003, Gaussian, Inc.),
 the Gaussian(R) 98 system (copyright 1998, Gaussian, Inc.),
 the Gaussian(R) 94 system (copyright 1995, Gaussian, Inc.),
 the Gaussian 92(TM) system (copyright 1992, Gaussian, Inc.),
 the Gaussian 90(TM) system (copyright 1990, Gaussian, Inc.),
 the Gaussian 88(TM) system (copyright 1988, Gaussian, Inc.),
 the Gaussian 86(TM) system (copyright 1986, Carnegie Mellon
 University), and the Gaussian 82(TM) system (copyright 1983,
 Carnegie Mellon University). Gaussian is a federally registered
 trademark of Gaussian, Inc.
  
 This software contains proprietary and confidential information,
 including trade secrets, belonging to Gaussian, Inc.
  
 This software is provided under written license and may be
 used, copied, transmitted, or stored only in accord with that
 written license.
  
 The following legend is applicable only to US Government
 contracts under FAR:
  
                    RESTRICTED RIGHTS LEGEND
  
 Use, reproduction and disclosure by the US Government is
 subject to restrictions as set forth in subparagraphs (a)
 and (c) of the Commercial Computer Software - Restricted
 Rights clause in FAR 52.227-19.
  
 Gaussian, Inc.
 340 Quinnipiac St., Bldg. 40, Wallingford CT 06492
  
  
 ---------------------------------------------------------------
 Warning -- This program may not be used in any manner that
 competes with the business of Gaussian, Inc. or will provide
 assistance to any competitor of Gaussian, Inc.  The licensee
 of this program is prohibited from giving any competitor of
 Gaussian, Inc. access to this program.  By using this program,
 the user acknowledges that Gaussian, Inc. is engaged in the
 business of creating and licensing software in the field of
 computational chemistry and represents and warrants to the
 licensee that it is not a competitor of Gaussian, Inc. and that
 it will not use this program in any manner prohibited above.
 ---------------------------------------------------------------
  

 Cite this work as:
 Gaussian 16, Revision C.01,
 M. J. Frisch, G. W. Trucks, H. B. Schlegel, G. E. Scuseria, 
 M. A. Robb, J. R. Cheeseman, G. Scalmani, V. Barone, 
 G. A. Petersson, H. Nakatsuji, X. Li, M. Caricato, A. V. Marenich, 
 J. Bloino, B. G. Janesko, R. Gomperts, B. Mennucci, H. P. Hratchian, 
 J. V. Ortiz, A. F. Izmaylov, J. L. Sonnenberg, D. Williams-Young, 
 F. Ding, F. Lipparini, F. Egidi, J. Goings, B. Peng, A. Petrone, 
 T. Henderson, D. Ranasinghe, V. G. Zakrzewski, J. Gao, N. Rega, 
 G. Zheng, W. Liang, M. Hada, M. Ehara, K. Toyota, R. Fukuda, 
 J. Hasegawa, M. Ishida, T. Nakajima, Y. Honda, O. Kitao, H. Nakai, 
 T. Vreven, K. Throssell, J. A. Montgomery, Jr., J. E. Peralta, 
 F. Ogliaro, M. J. Bearpark, J. J. Heyd, E. N. Brothers, K. N. Kudin, 
 V. N. Staroverov, T. A. Keith, R. Kobayashi, J. Normand, 
 K. Raghavachari, A. P. Rendell, J. C. Burant, S. S. Iyengar, 
 J. Tomasi, M. Cossi, J. M. Millam, M. Klene, C. Adamo, R. Cammi, 
 J. W. Ochterski, R. L. Martin, K. Morokuma, O. Farkas, 
 J. B. Foresman, and D. J. Fox, Gaussian, Inc., Wallingford CT, 2019.
 
 ******************************************
 Gaussian 16:  EM64L-G16RevC.01  3-Jul-2019
                14-Aug-2021 
 ******************************************
 %mem=8gb
 %nproc=8
 Will use up to    8 processors via shared memory.
 ----------------------------------------------------------------------
 #P TD(Nstates=10000) wB97XD/def2TZVP SCF(maxcycles=100) Int(Grid=ultra
 fine)
 ----------------------------------------------------------------------
 1/38=1,172=1/1;
 2/12=2,17=6,18=5,40=1/2;
 3/5=44,7=101,11=9,25=1,30=1,74=-58,75=-5/1,2,3,8;
 4//1;
 5/5=2,7=100,38=5/2;
 8/6=1,10=1,108=10000/1;
 9/41=10000,42=1,70=2/14;
 6/7=2,8=2,9=2,10=2/1;
 99/5=1,9=1/99;
 Leave Link    1 at Sat Aug 14 06:21:30 2021, MaxMem=  1073741824 cpu:               0.4 elap:               0.1
 (Enter /home/prakriti/g16/l101.exe)
 ---------------------
 xGDB7_00001_tier4.com
 ---------------------
 Symbolic Z-matrix:
 Charge =  0 Multiplicity = 1
 6                     0.        0.72955  -0.36736 
 6                     0.       -0.72955  -0.36736 
 8                     0.        0.        0.84503 
 1                    -0.91895   1.26424  -0.58798 
 1                     0.91895   1.26424  -0.58798 
 1                     0.91895  -1.26424  -0.58798 
 1                    -0.91895  -1.26424  -0.58798 
 
 ITRead=  0  0  0  0  0  0  0
 MicOpt= -1 -1 -1 -1 -1 -1 -1
 NAtoms=      7 NQM=        7 NQMF=       0 NMMI=      0 NMMIF=      0
                NMic=       0 NMicF=      0.
                    Isotopes and Nuclear Properties:
 (Nuclear quadrupole moments (NQMom) in fm**2, nuclear magnetic moments (NMagM)
  in nuclear magnetons)

  Atom         1           2           3           4           5           6           7
 IAtWgt=          12          12          16           1           1           1           1
 AtmWgt=  12.0000000  12.0000000  15.9949146   1.0078250   1.0078250   1.0078250   1.0078250
 NucSpn=           0           0           0           1           1           1           1
 AtZEff=  -0.0000000  -0.0000000  -0.0000000  -0.0000000  -0.0000000  -0.0000000  -0.0000000
 NQMom=    0.0000000   0.0000000   0.0000000   0.0000000   0.0000000   0.0000000   0.0000000
 NMagM=    0.0000000   0.0000000   0.0000000   2.7928460   2.7928460   2.7928460   2.7928460
 AtZNuc=   6.0000000   6.0000000   8.0000000   1.0000000   1.0000000   1.0000000   1.0000000
 Leave Link  101 at Sat Aug 14 06:21:30 2021, MaxMem=  1073741824 cpu:               0.7 elap:               0.1
 (Enter /home/prakriti/g16/l202.exe)
                          Input orientation:                          
 ---------------------------------------------------------------------
 Center     Atomic      Atomic             Coordinates (Angstroms)
 Number     Number       Type             X           Y           Z
 ---------------------------------------------------------------------
      1          6           0        0.000000    0.729549   -0.367364
      2          6           0        0.000000   -0.729549   -0.367364
      3          8           0        0.000000    0.000000    0.845033
      4          1           0       -0.918945    1.264243   -0.587975
      5          1           0        0.918945    1.264243   -0.587975
      6          1           0        0.918945   -1.264243   -0.587975
      7          1           0       -0.918945   -1.264243   -0.587975
 ---------------------------------------------------------------------
                    Distance matrix (angstroms):
                    1          2          3          4          5
     1  C    0.000000
     2  C    1.459098   0.000000
     3  O    1.414973   1.414973   0.000000
     4  H    1.085830   2.206431   2.120444   0.000000
     5  H    1.085830   2.206431   2.120444   1.837890   0.000000
     6  H    2.206431   1.085830   2.120444   3.125873   2.528486
     7  H    2.206431   1.085830   2.120444   2.528486   3.125873
                    6          7
     6  H    0.000000
     7  H    1.837890   0.000000
 Stoichiometry    C2H4O
 Framework group  C2V[C2(O),SGV(C2),X(H4)]
 Deg. of freedom     5
 Full point group                 C2V     NOp   4
 Largest Abelian subgroup         C2V     NOp   4
 Largest concise Abelian subgroup C2V     NOp   4
                         Standard orientation:                         
 ---------------------------------------------------------------------
 Center     Atomic      Atomic             Coordinates (Angstroms)
 Number     Number       Type             X           Y           Z
 ---------------------------------------------------------------------
      1          6           0        0.000000    0.729549   -0.367364
      2          6           0       -0.000000   -0.729549   -0.367364
      3          8           0       -0.000000   -0.000000    0.845033
      4          1           0       -0.918945    1.264243   -0.587975
      5          1           0        0.918945    1.264243   -0.587975
      6          1           0        0.918945   -1.264243   -0.587975
      7          1           0       -0.918945   -1.264243   -0.587975
 ---------------------------------------------------------------------
 Rotational constants (GHZ):          26.1375833          22.3408058          14.3785431
 Leave Link  202 at Sat Aug 14 06:21:30 2021, MaxMem=  1073741824 cpu:               0.1 elap:               0.0
 (Enter /home/prakriti/g16/l301.exe)
 Standard basis: def2TZVP (5D, 7F)
 Ernie: Thresh=  0.10000D-02 Tol=  0.10000D-05 Strict=F.
 There are    48 symmetry adapted cartesian basis functions of A1  symmetry.
 There are    20 symmetry adapted cartesian basis functions of A2  symmetry.
 There are    25 symmetry adapted cartesian basis functions of B1  symmetry.
 There are    39 symmetry adapted cartesian basis functions of B2  symmetry.
 There are    41 symmetry adapted basis functions of A1  symmetry.
 There are    19 symmetry adapted basis functions of A2  symmetry.
 There are    23 symmetry adapted basis functions of B1  symmetry.
 There are    34 symmetry adapted basis functions of B2  symmetry.
   117 basis functions,   185 primitive gaussians,   132 cartesian basis functions
    12 alpha electrons       12 beta electrons
       nuclear repulsion energy        75.7300204600 Hartrees.
 IExCor= 4639 DFT=T Ex+Corr=wB97XD ExCW=0 ScaHFX=  1.000000
 ScaDFX=  1.000000  1.000000  1.000000  1.000000 ScalE2=  1.000000  1.000000
 IRadAn=      5 IRanWt=     -1 IRanGd=            0 ICorTp=0 IEmpDi=121
 HFx  wShort=  0.000000 wLong=  0.200000 cFull=  0.222036 cShort=  0.000000 cLong=  0.777964
 DFx  wShort=  0.000000 wLong=  0.200000 cFull=  0.000000 cShort=  0.000000 cLong=  1.000000
 NAtoms=    7 NActive=    7 NUniq=    3 SFac= 4.00D+00 NAtFMM=   60 NAOKFM=F Big=F
 Integral buffers will be    131072 words long.
 Raffenetti 1 integral format.
 Two-electron integral symmetry is turned on.
 R6Disp:  Grimme-D2 Dispersion energy=       -0.0011217697 Hartrees.
 Nuclear repulsion after empirical dispersion term =       75.7288986903 Hartrees.
 Leave Link  301 at Sat Aug 14 06:21:30 2021, MaxMem=  1073741824 cpu:               0.4 elap:               0.1
 (Enter /home/prakriti/g16/l302.exe)
 NPDir=0 NMtPBC=     1 NCelOv=     1 NCel=       1 NClECP=     1 NCelD=      1
         NCelK=      1 NCelE2=     1 NClLst=     1 CellRange=     0.0.
 One-electron integrals computed using PRISM.
 One-electron integral symmetry used in STVInt
   4 Symmetry operations used in ECPInt.
 ECPInt:  NShTT=    1225 NPrTT=    3648 LenC2=    1224 LenP2D=    3278.
 LDataN:  DoStor=T MaxTD1= 6 Len=  172
 NBasis=   117 RedAO= T EigKep=  3.68D-04  NBF=    41    19    23    34
 NBsUse=   117 1.00D-06 EigRej= -1.00D+00 NBFU=    41    19    23    34
 Precomputing XC quadrature grid using
 IXCGrd= 4 IRadAn=           5 IRanWt=          -1 IRanGd=           0 AccXCQ= 0.00D+00.
 Generated NRdTot=       0 NPtTot=           0 NUsed=           0 NTot=          32
 NSgBfM=   132   132   132   132   132 MxSgAt=     7 MxSgA2=     7.
 Leave Link  302 at Sat Aug 14 06:21:30 2021, MaxMem=  1073741824 cpu:               1.3 elap:               0.2
 (Enter /home/prakriti/g16/l303.exe)
 DipDrv:  MaxL=1.
 Leave Link  303 at Sat Aug 14 06:21:30 2021, MaxMem=  1073741824 cpu:               0.2 elap:               0.1
 (Enter /home/prakriti/g16/l308.exe)
 Leave Link  308 at Sat Aug 14 06:21:30 2021, MaxMem=  1073741824 cpu:               0.2 elap:               0.1
 (Enter /home/prakriti/g16/l401.exe)
 ExpMin= 9.52D-02 ExpMax= 2.70D+04 ExpMxC= 9.22D+02 IAcc=3 IRadAn=         5 AccDes= 0.00D+00
 Harris functional with IExCor= 4639 and IRadAn=       5 diagonalized for initial guess.
 HarFok:  IExCor= 4639 AccDes= 0.00D+00 IRadAn=         5 IDoV= 1 UseB2=F ITyADJ=14
 ICtDFT=  3500011 ScaDFX=  1.000000  1.000000  1.000000  1.000000
 FoFCou: FMM=F IPFlag=           0 FMFlag=      100000 FMFlg1=           0
         NFxFlg=           0 DoJE=T BraDBF=F KetDBF=T FulRan=T
         wScrn=  0.000000 ICntrl=       500 IOpCl=  0 I1Cent=   200000004 NGrid=           0
         NMat0=    1 NMatS0=      1 NMatT0=    0 NMatD0=    1 NMtDS0=    0 NMtDT0=    0
 Petite list used in FoFCou.
 Harris En= -147.387181222740    
 JPrj=0 DoOrth=F DoCkMO=F.
 Initial guess orbital symmetries:
       Occupied  (A1) (A1) (B2) (A1) (A1) (B2) (B1) (A1) (A2) (B2)
                 (A1) (B1)
       Virtual   (A1) (B2) (A1) (B1) (B2) (A2) (A1) (B2) (B2) (A1)
                 (B1) (A1) (A2) (B1) (B2) (B2) (A1) (A1) (B2) (A2)
                 (B1) (B1) (A1) (B2) (A1) (A2) (A1) (B1) (A1) (B2)
                 (A2) (B2) (B2) (A1) (B2) (B1) (A2) (A1) (B1) (A2)
                 (B2) (A1) (B1) (B2) (A1) (A1) (B2) (A1) (B1) (B2)
                 (B1) (A1) (A2) (B1) (A2) (B2) (A1) (A2) (A1) (B1)
                 (B2) (A2) (A1) (A1) (B2) (A1) (B2) (B1) (A2) (A1)
                 (B1) (B2) (A1) (B1) (B2) (A2) (B2) (A1) (A2) (B1)
                 (A1) (B1) (B2) (A2) (B2) (A1) (A2) (B2) (B2) (A1)
                 (B1) (B2) (B1) (A1) (A2) (A1) (B2) (A1) (A2) (B1)
                 (A1) (B2) (A1) (B2) (A1)
 The electronic state of the initial guess is 1-A1.
 Leave Link  401 at Sat Aug 14 06:21:30 2021, MaxMem=  1073741824 cpu:               2.3 elap:               0.3
 (Enter /home/prakriti/g16/l502.exe)
 Keep R1 ints in memory in symmetry-blocked form, NReq=59691739.
 FoFCou: FMM=F IPFlag=           0 FMFlag=           0 FMFlg1=           0
         NFxFlg=           0 DoJE=F BraDBF=F KetDBF=F FulRan=T
         wScrn=  0.000000 ICntrl=       600 IOpCl=  0 I1Cent=           0 NGrid=           0
         NMat0=    1 NMatS0=   6903 NMatT0=    0 NMatD0=    1 NMtDS0=    0 NMtDT0=    0
 Petite list used in FoFCou.
 Closed shell SCF:
 Using DIIS extrapolation, IDIIS=  1040.
 NGot=  1073741824 LenX=  1067679584 LenY=  1067661719
 Requested convergence on RMS density matrix=1.00D-08 within 100 cycles.
 Requested convergence on MAX density matrix=1.00D-06.
 Requested convergence on             energy=1.00D-06.
 No special actions if energy rises.
 Integral accuracy reduced to 1.0D-05 until final iterations.

 Cycle   1  Pass 0  IDiag  1:
 E= -153.748222569819    
 DIIS: error= 8.64D-02 at cycle   1 NSaved=   1.
 NSaved= 1 IEnMin= 1 EnMin= -153.748222569819     IErMin= 1 ErrMin= 8.64D-02
 ErrMax= 8.64D-02  0.00D+00 EMaxC= 1.00D-01 BMatC= 3.53D-01 BMatP= 3.53D-01
 IDIUse=3 WtCom= 1.36D-01 WtEn= 8.64D-01
 Coeff-Com:  0.100D+01
 Coeff-En:   0.100D+01
 Coeff:      0.100D+01
 Gap=     0.576 Goal=   None    Shift=    0.000
 GapD=    0.576 DampG=2.000 DampE=0.500 DampFc=1.0000 IDamp=-1.
 RMSDP=2.32D-03 MaxDP=5.30D-02              OVMax= 1.02D-01

 Cycle   2  Pass 0  IDiag  1:
 E= -153.749731937854     Delta-E=       -0.001509368035 Rises=F Damp=F
 DIIS: error= 2.99D-02 at cycle   2 NSaved=   2.
 NSaved= 2 IEnMin= 2 EnMin= -153.749731937854     IErMin= 2 ErrMin= 2.99D-02
 ErrMax= 2.99D-02  0.00D+00 EMaxC= 1.00D-01 BMatC= 8.47D-02 BMatP= 3.53D-01
 IDIUse=3 WtCom= 7.01D-01 WtEn= 2.99D-01
 Coeff-Com:  0.279D+00 0.721D+00
 Coeff-En:   0.492D+00 0.508D+00
 Coeff:      0.343D+00 0.657D+00
 Gap=     0.497 Goal=   None    Shift=    0.000
 RMSDP=1.59D-03 MaxDP=4.74D-02 DE=-1.51D-03 OVMax= 9.69D-02

 Cycle   3  Pass 0  IDiag  1:
 E= -153.785498336184     Delta-E=       -0.035766398330 Rises=F Damp=F
 DIIS: error= 1.59D-02 at cycle   3 NSaved=   3.
 NSaved= 3 IEnMin= 3 EnMin= -153.785498336184     IErMin= 3 ErrMin= 1.59D-02
 ErrMax= 1.59D-02  0.00D+00 EMaxC= 1.00D-01 BMatC= 2.33D-02 BMatP= 8.47D-02
 IDIUse=3 WtCom= 8.41D-01 WtEn= 1.59D-01
 Coeff-Com:  0.277D-01 0.350D+00 0.623D+00
 Coeff-En:   0.000D+00 0.246D+00 0.754D+00
 Coeff:      0.233D-01 0.333D+00 0.644D+00
 Gap=     0.501 Goal=   None    Shift=    0.000
 RMSDP=6.84D-04 MaxDP=1.72D-02 DE=-3.58D-02 OVMax= 3.91D-02

 Cycle   4  Pass 0  IDiag  1:
 E= -153.800835310053     Delta-E=       -0.015336973869 Rises=F Damp=F
 DIIS: error= 1.57D-03 at cycle   4 NSaved=   4.
 NSaved= 4 IEnMin= 4 EnMin= -153.800835310053     IErMin= 4 ErrMin= 1.57D-03
 ErrMax= 1.57D-03  0.00D+00 EMaxC= 1.00D-01 BMatC= 2.78D-04 BMatP= 2.33D-02
 IDIUse=3 WtCom= 9.84D-01 WtEn= 1.57D-02
 Coeff-Com:  0.235D-02 0.442D-01 0.161D+00 0.793D+00
 Coeff-En:   0.000D+00 0.000D+00 0.000D+00 0.100D+01
 Coeff:      0.232D-02 0.435D-01 0.158D+00 0.796D+00
 Gap=     0.496 Goal=   None    Shift=    0.000
 RMSDP=7.38D-05 MaxDP=1.58D-03 DE=-1.53D-02 OVMax= 3.76D-03

 Cycle   5  Pass 0  IDiag  1:
 E= -153.801021529230     Delta-E=       -0.000186219177 Rises=F Damp=F
 DIIS: error= 3.17D-04 at cycle   5 NSaved=   5.
 NSaved= 5 IEnMin= 5 EnMin= -153.801021529230     IErMin= 5 ErrMin= 3.17D-04
 ErrMax= 3.17D-04  0.00D+00 EMaxC= 1.00D-01 BMatC= 7.00D-06 BMatP= 2.78D-04
 IDIUse=3 WtCom= 9.97D-01 WtEn= 3.17D-03
 Coeff-Com: -0.107D-02-0.167D-01-0.190D-02 0.258D+00 0.762D+00
 Coeff-En:   0.000D+00 0.000D+00 0.000D+00 0.000D+00 0.100D+01
 Coeff:     -0.106D-02-0.167D-01-0.190D-02 0.257D+00 0.763D+00
 Gap=     0.496 Goal=   None    Shift=    0.000
 RMSDP=2.01D-05 MaxDP=3.01D-04 DE=-1.86D-04 OVMax= 7.61D-04

 Cycle   6  Pass 0  IDiag  1:
 E= -153.801028032617     Delta-E=       -0.000006503387 Rises=F Damp=F
 DIIS: error= 3.03D-05 at cycle   6 NSaved=   6.
 NSaved= 6 IEnMin= 6 EnMin= -153.801028032617     IErMin= 6 ErrMin= 3.03D-05
 ErrMax= 3.03D-05  0.00D+00 EMaxC= 1.00D-01 BMatC= 6.57D-08 BMatP= 7.00D-06
 IDIUse=1 WtCom= 1.00D+00 WtEn= 0.00D+00
 Coeff-Com: -0.115D-03-0.130D-02-0.576D-02-0.309D-01 0.108D-01 0.103D+01
 Coeff:     -0.115D-03-0.130D-02-0.576D-02-0.309D-01 0.108D-01 0.103D+01
 Gap=     0.496 Goal=   None    Shift=    0.000
 RMSDP=6.67D-06 MaxDP=1.09D-04 DE=-6.50D-06 OVMax= 1.62D-04

 Initial convergence to 1.0D-05 achieved.  Increase integral accuracy.
 Cycle   7  Pass 1  IDiag  1:
 E= -153.801031296175     Delta-E=       -0.000003263558 Rises=F Damp=F
 DIIS: error= 5.14D-05 at cycle   1 NSaved=   1.
 NSaved= 1 IEnMin= 1 EnMin= -153.801031296175     IErMin= 1 ErrMin= 5.14D-05
 ErrMax= 5.14D-05  0.00D+00 EMaxC= 1.00D-01 BMatC= 1.74D-07 BMatP= 1.74D-07
 IDIUse=1 WtCom= 1.00D+00 WtEn= 0.00D+00
 Coeff-Com:  0.100D+01
 Coeff:      0.100D+01
 Gap=     0.496 Goal=   None    Shift=    0.000
 RMSDP=6.67D-06 MaxDP=1.09D-04 DE=-3.26D-06 OVMax= 7.40D-05

 Cycle   8  Pass 1  IDiag  1:
 E= -153.801031405837     Delta-E=       -0.000000109662 Rises=F Damp=F
 DIIS: error= 5.32D-06 at cycle   2 NSaved=   2.
 NSaved= 2 IEnMin= 2 EnMin= -153.801031405837     IErMin= 2 ErrMin= 5.32D-06
 ErrMax= 5.32D-06  0.00D+00 EMaxC= 1.00D-01 BMatC= 2.02D-09 BMatP= 1.74D-07
 IDIUse=1 WtCom= 1.00D+00 WtEn= 0.00D+00
 Coeff-Com: -0.757D-01 0.108D+01
 Coeff:     -0.757D-01 0.108D+01
 Gap=     0.496 Goal=   None    Shift=    0.000
 RMSDP=5.39D-07 MaxDP=7.79D-06 DE=-1.10D-07 OVMax= 1.71D-05

 Cycle   9  Pass 1  IDiag  1:
 E= -153.801031407394     Delta-E=       -0.000000001557 Rises=F Damp=F
 DIIS: error= 3.03D-06 at cycle   3 NSaved=   3.
 NSaved= 3 IEnMin= 3 EnMin= -153.801031407394     IErMin= 3 ErrMin= 3.03D-06
 ErrMax= 3.03D-06  0.00D+00 EMaxC= 1.00D-01 BMatC= 9.56D-10 BMatP= 2.02D-09
 IDIUse=1 WtCom= 1.00D+00 WtEn= 0.00D+00
 Coeff-Com: -0.415D-01 0.509D+00 0.532D+00
 Coeff:     -0.415D-01 0.509D+00 0.532D+00
 Gap=     0.496 Goal=   None    Shift=    0.000
 RMSDP=1.46D-07 MaxDP=3.89D-06 DE=-1.56D-09 OVMax= 8.18D-06

 Cycle  10  Pass 1  IDiag  1:
 E= -153.801031408004     Delta-E=       -0.000000000611 Rises=F Damp=F
 DIIS: error= 8.52D-07 at cycle   4 NSaved=   4.
 NSaved= 4 IEnMin= 4 EnMin= -153.801031408004     IErMin= 4 ErrMin= 8.52D-07
 ErrMax= 8.52D-07  0.00D+00 EMaxC= 1.00D-01 BMatC= 6.42D-11 BMatP= 9.56D-10
 IDIUse=1 WtCom= 1.00D+00 WtEn= 0.00D+00
 Coeff-Com:  0.249D-02-0.604D-01 0.169D+00 0.888D+00
 Coeff:      0.249D-02-0.604D-01 0.169D+00 0.888D+00
 Gap=     0.496 Goal=   None    Shift=    0.000
 RMSDP=7.27D-08 MaxDP=1.09D-06 DE=-6.11D-10 OVMax= 3.16D-06

 Cycle  11  Pass 1  IDiag  1:
 E= -153.801031408063     Delta-E=       -0.000000000059 Rises=F Damp=F
 DIIS: error= 1.26D-07 at cycle   5 NSaved=   5.
 NSaved= 5 IEnMin= 5 EnMin= -153.801031408063     IErMin= 5 ErrMin= 1.26D-07
 ErrMax= 1.26D-07  0.00D+00 EMaxC= 1.00D-01 BMatC= 9.88D-13 BMatP= 6.42D-11
 IDIUse=1 WtCom= 1.00D+00 WtEn= 0.00D+00
 Coeff-Com:  0.223D-02-0.300D-01-0.807D-02 0.100D+00 0.936D+00
 Coeff:      0.223D-02-0.300D-01-0.807D-02 0.100D+00 0.936D+00
 Gap=     0.496 Goal=   None    Shift=    0.000
 RMSDP=1.52D-08 MaxDP=3.07D-07 DE=-5.92D-11 OVMax= 6.98D-07

 Cycle  12  Pass 1  IDiag  1:
 E= -153.801031408065     Delta-E=       -0.000000000002 Rises=F Damp=F
 DIIS: error= 3.90D-08 at cycle   6 NSaved=   6.
 NSaved= 6 IEnMin= 6 EnMin= -153.801031408065     IErMin= 6 ErrMin= 3.90D-08
 ErrMax= 3.90D-08  0.00D+00 EMaxC= 1.00D-01 BMatC= 1.16D-13 BMatP= 9.88D-13
 IDIUse=1 WtCom= 1.00D+00 WtEn= 0.00D+00
 Coeff-Com:  0.486D-03-0.543D-02-0.106D-01-0.152D-01 0.251D+00 0.780D+00
 Coeff:      0.486D-03-0.543D-02-0.106D-01-0.152D-01 0.251D+00 0.780D+00
 Gap=     0.496 Goal=   None    Shift=    0.000
 RMSDP=4.15D-09 MaxDP=7.76D-08 DE=-1.76D-12 OVMax= 2.16D-07

 SCF Done:  E(RwB97XD) =  -153.801031408     A.U. after   12 cycles
            NFock= 12  Conv=0.41D-08     -V/T= 2.0045
 KE= 1.531079837536D+02 PE=-5.113086073545D+02 EE= 1.286706935025D+02
 Leave Link  502 at Sat Aug 14 06:21:32 2021, MaxMem=  1073741824 cpu:              15.5 elap:               2.0
 (Enter /home/prakriti/g16/l801.exe)
 DoSCS=F DFT=T ScalE2(SS,OS)=  1.000000  1.000000
 ExpMin= 9.52D-02 ExpMax= 2.70D+04 ExpMxC= 9.22D+02 IAcc=3 IRadAn=         5 AccDes= 0.00D+00
 HarFok:  IExCor=  205 AccDes= 0.00D+00 IRadAn=         5 IDoV=-2 UseB2=F ITyADJ=14
 ICtDFT= 12500011 ScaDFX=  1.000000  1.000000  1.000000  1.000000
 Largest valence mixing into a core orbital is  6.97D-05
 Largest core mixing into a valence orbital is  1.07D-05
 Range of M.O.s used for correlation:     4   117
 NBasis=   117 NAE=    12 NBE=    12 NFC=     3 NFV=     0
 NROrb=    114 NOA=     9 NOB=     9 NVA=   105 NVB=   105

 **** Warning!!: The largest alpha MO coefficient is  0.14792542D+02

 Leave Link  801 at Sat Aug 14 06:21:33 2021, MaxMem=  1073741824 cpu:               0.6 elap:               0.1
 (Enter /home/prakriti/g16/l914.exe)
 RHF ground state
 Two-electron integrals replicated using symmetry.
 MDV=  1073741824 DFT=T DoStab=F Mixed=T DoRPA=T DoScal=F NonHer=T
 Making orbital integer symmetry assigments:
 Orbital symmetries:
       Occupied  (A1) (A1) (B2) (A1) (A1) (B2) (B1) (A1) (B2) (A2)
                 (A1) (B1)
       Virtual   (A1) (B2) (A1) (B1) (B2) (A2) (A1) (B2) (B2) (A1)
                 (B1) (A1) (B1) (A2) (B2) (B2) (A1) (A1) (B2) (A2)
                 (B1) (B1) (B2) (A1) (A1) (A2) (A1) (B1) (A1) (B2)
                 (A2) (B2) (B2) (A1) (B2) (B1) (A2) (A1) (B1) (A2)
                 (B2) (A1) (B1) (B2) (A1) (A1) (B2) (A1) (B1) (B2)
                 (B1) (A1) (A2) (B1) (A2) (B2) (A1) (A2) (A1) (B1)
                 (B2) (A2) (A1) (A1) (B2) (A1) (B2) (B1) (A2) (A1)
                 (B1) (B2) (A1) (B2) (B1) (A2) (B2) (A1) (A2) (B1)
                 (A1) (B1) (B2) (A2) (B2) (A1) (A2) (B2) (B2) (A1)
                 (B1) (B2) (B1) (A1) (A2) (A1) (B2) (A1) (A2) (B1)
                 (A1) (B2) (A1) (B2) (A1)
   945 initial guesses have been made.
 Convergence on wavefunction:    0.001000000000000
 Davidson Disk Diagonalization:  ConvIn= 1.00D-03 SkipCon=T Conv= 1.00D-03.
 Max sub-space:  5670 roots to seek:  1890 dimension of matrix:         1890
 *** WARNING: Number of orthogonal guesses is          945
 Iteration     1 Dimension   945 NMult     0 NNew    945
 CISAX will form   480 AO SS matrices at one time.
 NMat=   480 NSing=   480 JSym2X=-1.
 FoFJK:  IHMeth= 1 ICntrl=       0 DoSepK=T KAlg= 0 I1Cent=           0 FoldK=F
 IRaf=         1 NMat=     960 IRICut=       1 DoRegI=T DoRafI=F ISym2E=-1 IDoP0=3 IntGTp=3.
 FoFCou: FMM=F IPFlag=           0 FMFlag=      100000 FMFlg1=           0
         NFxFlg=           0 DoJE=F BraDBF=F KetDBF=F FulRan=T
         wScrn=  0.000000 ICntrl=       500 IOpCl=  0 I1Cent=           0 NGrid=           0
         NMat0=  480 NMatS0=    480 NMatT0=    0 NMatD0=  480 NMtDS0=    0 NMtDT0=    0
 Petite list used in FoFCou.
 NMat=   465 NSing=   465 JSym2X=-1.
 New state      1 was old state      3
 New state      3 was old state      1
 New state      4 was old state      8
 New state      5 was old state      6
 New state      6 was old state      5
 New state      7 was old state      4
 New state      8 was old state      7
 New state     13 was old state     14
 New state     14 was old state     17
 New state     15 was old state     13
 New state     17 was old state     20
 New state     18 was old state     15
 New state     20 was old state     21
 New state     21 was old state     18
 New state     27 was old state     28
 New state     28 was old state     29
 New state     29 was old state     27
 New state     30 was old state     32
 New state     31 was old state     30
 New state     32 was old state     31
 New state     34 was old state     35
 New state     35 was old state     34
 New state     36 was old state     48
 New state     37 was old state     38
 New state     38 was old state     45
 New state     39 was old state     43
 New state     40 was old state     37
 New state     41 was old state     40
 New state     42 was old state     39
 New state     43 was old state     36
 New state     45 was old state     41
 New state     46 was old state     42
 New state     47 was old state     46
 New state     48 was old state     47
 New state     50 was old state     53
 New state     52 was old state     50
 New state     53 was old state     52
 New state     54 was old state     58
 New state     55 was old state     57
 New state     56 was old state     55
 New state     57 was old state     56
 New state     58 was old state     60
 New state     60 was old state     62
 New state     61 was old state     54
 New state     62 was old state     69
 New state     63 was old state     61
 New state     64 was old state     63
 New state     65 was old state     72
 New state     66 was old state     68
 New state     67 was old state     76
 New state     68 was old state     67
 New state     69 was old state     66
 New state     70 was old state     65
 New state     71 was old state     64
 New state     72 was old state     80
 New state     74 was old state     71
 New state     75 was old state     70
 New state     76 was old state     74
 New state     77 was old state     81
 New state     78 was old state     83
 New state     79 was old state     75
 New state     80 was old state     78
 New state     81 was old state     85
 New state     82 was old state     88
 New state     83 was old state     79
 New state     84 was old state     86
 New state     85 was old state     84
 New state     86 was old state     91
 New state     87 was old state     82
 New state     88 was old state     89
 New state     89 was old state     90
 New state     90 was old state     96
 New state     91 was old state     92
 New state     92 was old state     93
 New state     93 was old state     94
 New state     94 was old state    100
 New state     95 was old state     99
 New state     96 was old state     87
 New state     97 was old state     95
 New state     98 was old state    102
 New state     99 was old state    101
 New state    100 was old state    111
 New state    101 was old state    110
 New state    102 was old state    103
 New state    103 was old state    133
 New state    104 was old state    107
 New state    105 was old state    104
 New state    107 was old state     97
 New state    108 was old state    115
 New state    109 was old state    112
 New state    110 was old state    108
 New state    111 was old state    105
 New state    112 was old state    109
 New state    113 was old state    116
 New state    114 was old state    113
 New state    115 was old state    114
 New state    116 was old state    117
 New state    117 was old state    122
 New state    118 was old state    120
 New state    119 was old state    121
 New state    120 was old state    132
 New state    121 was old state    118
 New state    122 was old state    126
 New state    123 was old state    125
 New state    124 was old state    119
 New state    125 was old state    123
 New state    126 was old state    130
 New state    127 was old state    129
 New state    128 was old state    124
 New state    129 was old state    131
 New state    130 was old state    127
 New state    131 was old state    128
 New state    132 was old state    136
 New state    133 was old state    141
 New state    134 was old state    139
 New state    136 was old state    134
 New state    137 was old state    138
 New state    138 was old state    137
 New state    139 was old state    146
 New state    140 was old state    147
 New state    141 was old state    143
 New state    142 was old state    140
 New state    143 was old state    145
 New state    144 was old state    142
 New state    145 was old state    152
 New state    146 was old state    144
 New state    147 was old state    149
 New state    148 was old state    155
 New state    149 was old state    148
 New state    150 was old state    153
 New state    151 was old state    154
 New state    152 was old state    150
 New state    153 was old state    157
 New state    154 was old state    151
 New state    155 was old state    161
 New state    157 was old state    158
 New state    158 was old state    165
 New state    160 was old state    167
 New state    161 was old state    176
 New state    162 was old state    168
 New state    163 was old state    164
 New state    164 was old state    169
 New state    165 was old state    162
 New state    166 was old state    160
 New state    167 was old state    172
 New state    168 was old state    163
 New state    169 was old state    173
 New state    170 was old state    171
 New state    171 was old state    166
 New state    172 was old state    170
 New state    173 was old state    177
 New state    174 was old state    185
 New state    175 was old state    183
 New state    176 was old state    174
 New state    177 was old state    181
 New state    179 was old state    175
 New state    180 was old state    182
 New state    181 was old state    180
 New state    182 was old state    179
 New state    183 was old state    186
 New state    184 was old state    190
 New state    185 was old state    187
 New state    186 was old state    184
 New state    187 was old state    195
 New state    188 was old state    189
 New state    189 was old state    196
 New state    190 was old state    192
 New state    191 was old state    194
 New state    192 was old state    193
 New state    193 was old state    191
 New state    194 was old state    188
 New state    195 was old state    198
 New state    196 was old state    212
 New state    198 was old state    200
 New state    199 was old state    203
 New state    200 was old state    199
 New state    201 was old state    202
 New state    202 was old state    205
 New state    203 was old state    204
 New state    204 was old state    201
 New state    205 was old state    213
 New state    206 was old state    207
 New state    207 was old state    208
 New state    208 was old state    209
 New state    209 was old state    206
 New state    210 was old state    211
 New state    211 was old state    210
 New state    212 was old state    217
 New state    213 was old state    215
 New state    214 was old state    222
 New state    215 was old state    216
 New state    216 was old state    218
 New state    217 was old state    214
 New state    218 was old state    225
 New state    219 was old state    220
 New state    220 was old state    219
 New state    221 was old state    229
 New state    222 was old state    226
 New state    224 was old state    221
 New state    225 was old state    224
 New state    226 was old state    230
 New state    228 was old state    232
 New state    229 was old state    228
 New state    230 was old state    233
 New state    232 was old state    239
 New state    233 was old state    235
 New state    234 was old state    236
 New state    235 was old state    234
 New state    236 was old state    246
 New state    237 was old state    238
 New state    238 was old state    237
 New state    239 was old state    240
 New state    240 was old state    244
 New state    244 was old state    254
 New state    245 was old state    247
 New state    246 was old state    245
 New state    247 was old state    252
 New state    248 was old state    249
 New state    249 was old state    248
 New state    250 was old state    251
 New state    251 was old state    250
 New state    252 was old state    253
 New state    253 was old state    258
 New state    254 was old state    256
 New state    255 was old state    264
 New state    256 was old state    255
 New state    257 was old state    261
 New state    258 was old state    257
 New state    259 was old state    262
 New state    260 was old state    265
 New state    261 was old state    259
 New state    262 was old state    260
 No map to state    264
 New state    265 was old state    266
 No map to state    266
 New state    271 was old state    272
 New state    272 was old state    271
 New state    276 was old state    277
 New state    277 was old state    276
 New state    280 was old state    281
 New state    281 was old state    280
 New state    282 was old state    285
 New state    283 was old state    282
 New state    284 was old state    283
 New state    285 was old state    284
 New state    288 was old state    290
 New state    289 was old state    288
 New state    290 was old state    292
 New state    291 was old state    289
 New state    292 was old state    294
 New state    294 was old state    291
 New state    295 was old state    298
 New state    296 was old state    295
 New state    297 was old state    296
 New state    298 was old state    297
 New state    303 was old state    304
 New state    304 was old state    307
 New state    305 was old state    306
 New state    306 was old state    305
 New state    307 was old state    303
 New state    308 was old state    309
 New state    309 was old state    311
 New state    311 was old state    308
 New state    313 was old state    314
 New state    314 was old state    316
 New state    315 was old state    313
 New state    316 was old state    315
 New state    318 was old state    322
 New state    319 was old state    318
 New state    320 was old state    321
 New state    321 was old state    320
 New state    322 was old state    324
 New state    323 was old state    319
 New state    324 was old state    323
 New state    325 was old state    328
 New state    327 was old state    325
 New state    328 was old state    330
 New state    329 was old state    327
 New state    330 was old state    331
 New state    331 was old state    335
 New state    332 was old state    329
 New state    333 was old state    332
 New state    335 was old state    333
 New state    341 was old state    342
 New state    342 was old state    341
 New state    343 was old state    345
 New state    345 was old state    343
 New state    346 was old state    348
 New state    348 was old state    350
 New state    350 was old state    351
 New state    351 was old state    353
 New state    353 was old state    346
 New state    354 was old state    355
 New state    355 was old state    357
 New state    356 was old state    354
 New state    357 was old state    359
 New state    358 was old state    356
 New state    359 was old state    358
 New state    360 was old state    364
 New state    361 was old state    360
 New state    362 was old state    361
 New state    363 was old state    366
 New state    364 was old state    363
 New state    365 was old state    362
 New state    366 was old state    371
 New state    368 was old state    369
 New state    369 was old state    365
 New state    370 was old state    372
 New state    371 was old state    373
 New state    372 was old state    368
 New state    373 was old state    370
 New state    380 was old state    382
 New state    381 was old state    380
 New state    382 was old state    383
 New state    383 was old state    381
 New state    384 was old state    389
 New state    385 was old state    388
 New state    386 was old state    385
 New state    387 was old state    384
 New state    388 was old state    387
 New state    389 was old state    386
 New state    390 was old state    391
 New state    391 was old state    390
 New state    392 was old state    395
 New state    393 was old state    392
 New state    394 was old state    393
 New state    395 was old state    394
 New state    396 was old state    397
 New state    397 was old state    396
 New state    401 was old state    405
 New state    402 was old state    401
 New state    403 was old state    402
 New state    405 was old state    403
 New state    406 was old state    407
 New state    407 was old state    410
 New state    408 was old state    406
 New state    410 was old state    408
 New state    411 was old state    413
 New state    412 was old state    411
 New state    413 was old state    412
 New state    415 was old state    416
 New state    416 was old state    418
 New state    417 was old state    415
 New state    418 was old state    417
 New state    420 was old state    424
 New state    421 was old state    420
 New state    422 was old state    425
 New state    423 was old state    421
 New state    424 was old state    423
 New state    425 was old state    422
 New state    427 was old state    428
 New state    428 was old state    427
 New state    429 was old state    430
 New state    430 was old state    432
 New state    431 was old state    429
 New state    432 was old state    431
 New state    433 was old state    434
 New state    434 was old state    435
 New state    435 was old state    436
 New state    436 was old state    433
 New state    440 was old state    441
 New state    441 was old state    442
 New state    442 was old state    440
 New state    446 was old state    448
 New state    448 was old state    446
 New state    449 was old state    450
 New state    450 was old state    449
 New state    451 was old state    452
 New state    452 was old state    453
 New state    453 was old state    451
 New state    455 was old state    457
 New state    456 was old state    455
 New state    457 was old state    456
 New state    459 was old state    460
 New state    460 was old state    461
 New state    461 was old state    459
 New state    465 was old state    466
 New state    466 was old state    465
 New state    467 was old state    468
 New state    468 was old state    467
 New state    470 was old state    471
 New state    471 was old state    472
 New state    472 was old state    470
 New state    473 was old state    474
 New state    474 was old state    473
 New state    475 was old state    476
 New state    476 was old state    475
 New state    477 was old state    480
 New state    479 was old state    477
 New state    480 was old state    479
 New state    481 was old state    486
 New state    484 was old state    481
 New state    485 was old state    484
 New state    486 was old state    485
 New state    487 was old state    489
 New state    488 was old state    487
 New state    489 was old state    495
 New state    490 was old state    488
 New state    492 was old state    494
 New state    493 was old state    492
 New state    494 was old state    490
 New state    495 was old state    497
 New state    497 was old state    499
 New state    498 was old state    501
 New state    499 was old state    493
 New state    500 was old state    502
 New state    501 was old state    498
 New state    502 was old state    503
 New state    503 was old state    504
 New state    504 was old state    505
 New state    505 was old state    506
 New state    506 was old state    500
 New state    510 was old state    517
 New state    511 was old state    510
 New state    512 was old state    514
 New state    513 was old state    515
 New state    514 was old state    512
 New state    515 was old state    511
 New state    517 was old state    520
 New state    518 was old state    513
 New state    519 was old state    518
 New state    520 was old state    521
 New state    521 was old state    522
 New state    522 was old state    523
 New state    523 was old state    524
 New state    524 was old state    525
 New state    525 was old state    519
 New state    526 was old state    527
 New state    527 was old state    526
 New state    528 was old state    529
 New state    529 was old state    528
 New state    530 was old state    531
 New state    531 was old state    530
 New state    533 was old state    534
 New state    534 was old state    533
 New state    536 was old state    548
 New state    537 was old state    536
 New state    538 was old state    539
 New state    539 was old state    538
 New state    540 was old state    537
 New state    541 was old state    544
 New state    542 was old state    540
 New state    544 was old state    541
 New state    545 was old state    542
 New state    546 was old state    545
 New state    548 was old state    546
 New state    552 was old state    553
 New state    553 was old state    552
 New state    554 was old state    556
 New state    556 was old state    554
 New state    558 was old state    559
 New state    559 was old state    560
 New state    560 was old state    561
 New state    561 was old state    558
 New state    562 was old state    565
 New state    564 was old state    562
 New state    565 was old state    572
 New state    566 was old state    564
 New state    569 was old state    571
 New state    570 was old state    566
 New state    571 was old state    573
 New state    572 was old state    570
 New state    573 was old state    574
 New state    574 was old state    576
 New state    576 was old state    569
 New state    577 was old state    578
 New state    578 was old state    577
 New state    579 was old state    580
 New state    580 was old state    579
 New state    581 was old state    582
 New state    582 was old state    585
 New state    584 was old state    586
 New state    585 was old state    584
 New state    586 was old state    581
 New state    587 was old state    588
 New state    588 was old state    587
 New state    589 was old state    590
 New state    590 was old state    591
 New state    591 was old state    589
 New state    593 was old state    595
 New state    594 was old state    593
 New state    595 was old state    594
 New state    597 was old state    599
 New state    598 was old state    597
 New state    599 was old state    598
 New state    600 was old state    602
 New state    601 was old state    603
 New state    602 was old state    600
 New state    603 was old state    601
 New state    605 was old state    606
 New state    606 was old state    605
 New state    610 was old state    611
 New state    611 was old state    610
 New state    612 was old state    614
 New state    613 was old state    612
 New state    614 was old state    613
 New state    616 was old state    617
 New state    617 was old state    619
 New state    619 was old state    616
 New state    620 was old state    621
 New state    621 was old state    620
 New state    622 was old state    624
 New state    624 was old state    625
 New state    625 was old state    626
 New state    626 was old state    627
 New state    627 was old state    629
 New state    628 was old state    622
 New state    629 was old state    631
 New state    630 was old state    628
 New state    631 was old state    630
 New state    635 was old state    636
 New state    636 was old state    637
 New state    637 was old state    635
 New state    642 was old state    646
 New state    643 was old state    642
 New state    644 was old state    643
 New state    645 was old state    644
 New state    646 was old state    645
 New state    662 was old state    663
 New state    663 was old state    662
 New state    666 was old state    670
 New state    667 was old state    666
 New state    668 was old state    669
 New state    669 was old state    667
 New state    670 was old state    668
 New state    671 was old state    672
 New state    672 was old state    671
 New state    675 was old state    676
 New state    676 was old state    677
 New state    677 was old state    675
 New state    680 was old state    682
 New state    681 was old state    680
 New state    682 was old state    683
 New state    683 was old state    681
 New state    689 was old state    692
 New state    690 was old state    695
 New state    692 was old state    690
 New state    693 was old state    689
 New state    694 was old state    693
 New state    695 was old state    694
 New state    697 was old state    698
 New state    698 was old state    697
 New state    703 was old state    704
 New state    704 was old state    705
 New state    705 was old state    703
 New state    709 was old state    710
 New state    710 was old state    709
 New state    713 was old state    714
 New state    714 was old state    713
 New state    719 was old state    720
 New state    720 was old state    721
 New state    721 was old state    722
 New state    722 was old state    719
 New state    726 was old state    727
 New state    727 was old state    726
 New state    732 was old state    735
 New state    733 was old state    732
 New state    734 was old state    733
 New state    735 was old state    734
 New state    736 was old state    737
 New state    737 was old state    736
 New state    740 was old state    742
 New state    742 was old state    740
 New state    747 was old state    749
 New state    749 was old state    747
 New state    756 was old state    759
 New state    758 was old state    756
 New state    759 was old state    760
 New state    760 was old state    758
 New state    762 was old state    763
 New state    763 was old state    762
 New state    766 was old state    767
 New state    767 was old state    766
 New state    770 was old state    771
 New state    771 was old state    770
 New state    772 was old state    773
 New state    773 was old state    772
 New state    777 was old state    778
 New state    778 was old state    777
 New state    780 was old state    781
 New state    781 was old state    780
 New state    784 was old state    785
 New state    785 was old state    784
 New state    786 was old state    787
 New state    787 was old state    786
 New state    788 was old state    789
 New state    789 was old state    788
 New state    791 was old state    795
 New state    792 was old state    791
 New state    793 was old state    792
 New state    795 was old state    793
 New state    800 was old state    801
 New state    801 was old state    800
 New state    810 was old state    812
 New state    812 was old state    810
 New state    818 was old state    819
 New state    819 was old state    820
 New state    820 was old state    818
 New state    821 was old state    822
 New state    822 was old state    821
 New state    823 was old state    825
 New state    824 was old state    826
 New state    825 was old state    824
 New state    826 was old state    823
 New state    827 was old state    828
 New state    828 was old state    827
 New state    831 was old state    833
 New state    832 was old state    831
 New state    833 was old state    832
 New state    834 was old state    836
 New state    835 was old state    838
 New state    836 was old state    835
 New state    837 was old state    834
 New state    838 was old state    839
 New state    839 was old state    837
 New state    841 was old state    842
 New state    842 was old state    841
 New state    843 was old state    844
 New state    844 was old state    843
 New state    846 was old state    848
 New state    847 was old state    849
 New state    848 was old state    846
 New state    849 was old state    847
 New state    850 was old state    852
 New state    852 was old state    850
 New state    853 was old state    854
 New state    854 was old state    855
 New state    855 was old state    853
 New state    856 was old state    858
 New state    858 was old state    856
 New state    859 was old state    860
 New state    860 was old state    861
 New state    861 was old state    859
 New state    862 was old state    863
 New state    863 was old state    862
 New state    876 was old state    877
 New state    877 was old state    879
 New state    878 was old state    880
 New state    879 was old state    876
 New state    880 was old state    881
 New state    881 was old state    878
 New state    885 was old state    887
 New state    886 was old state    889
 New state    887 was old state    885
 New state    888 was old state    886
 New state    889 was old state    890
 New state    890 was old state    888
 New state    893 was old state    894
 New state    894 was old state    895
 New state    895 was old state    893
 New state    896 was old state    899
 New state    898 was old state    896
 New state    899 was old state    901
 New state    900 was old state    898
 New state    901 was old state    902
 New state    902 was old state    900
 New state    904 was old state    905
 New state    905 was old state    904
 New state    906 was old state    907
 New state    907 was old state    906
 New state    909 was old state    912
 New state    910 was old state    909
 New state    911 was old state    910
 New state    912 was old state    913
 New state    913 was old state    911
 New state    914 was old state    916
 New state    915 was old state    914
 New state    916 was old state    915
 New state    919 was old state    920
 New state    920 was old state    919
 New state    923 was old state    924
 New state    924 was old state    923
 New state    925 was old state    927
 New state    926 was old state    925
 New state    927 was old state    928
 New state    928 was old state    926
 New state    930 was old state    931
 New state    931 was old state    930
 New state    939 was old state    940
 New state    940 was old state    939
 Excitation Energies [eV] at current iteration:
 Root      1 :     8.503951915902499
 Root      2 :     8.505097772920216
 Root      3 :     8.762172564937261
 Root      4 :     9.625383351288050
 Root      5 :     9.705339992295412
 Root      6 :     9.706146264281617
 Root      7 :     9.922203218381069
 Root      8 :    10.260500743201290
 Root      9 :    10.527929307790310
 Root     10 :    10.952932966571450
 Root     11 :    11.410231048423540
 Root     12 :    11.478585460723220
 Root     13 :    11.584150563078600
 Root     14 :    11.683959375592880
 Root     15 :    12.005114581414510
 Root     16 :    12.058071923549060
 Root     17 :    12.202402940237700
 Root     18 :    12.283445903548150
 Root     19 :    12.519693300491340
 Root     20 :    12.616216111898280
 Root     21 :    12.692659495781080
 Root     22 :    12.754032159742980
 Root     23 :    12.911275432641980
 Root     24 :    13.073121154306490
 Root     25 :    13.440807889119960
 Root     26 :    13.548028007583900
 Root     27 :    13.757950055606610
 Root     28 :    14.081106953386230
 Root     29 :    14.296227512921720
 Root     30 :    14.432051717956930
 Root     31 :    14.505481516456770
 Root     32 :    14.672801306491210
 Root     33 :    14.704025109228120
 Root     34 :    14.761573133797220
 Root     35 :    14.773721512517910
 Root     36 :    15.027373709614770
 Root     37 :    15.041771803261940
 Root     38 :    15.295003792506350
 Root     39 :    15.298650629625660
 Root     40 :    15.356739530111750
 Root     41 :    15.366452700877610
 Root     42 :    15.526716400274700
 Root     43 :    15.549086391809640
 Root     44 :    15.615014252802380
 Root     45 :    15.722450770448970
 Root     46 :    16.039146559514890
 Root     47 :    16.043753702257980
 Root     48 :    16.478031525131430
 Root     49 :    16.510135487673940
 Root     50 :    16.916580554671810
 Root     51 :    16.964101631159300
 Root     52 :    17.027870843268770
 Root     53 :    17.083241487644750
 Root     54 :    17.257040561057070
 Root     55 :    17.432661786387650
 Root     56 :    17.529021388397050
 Root     57 :    17.573705511545530
 Root     58 :    17.690834860537990
 Root     59 :    17.744076012422780
 Root     60 :    17.970958078134860
 Root     61 :    18.065121809237810
 Root     62 :    18.109126799308450
 Root     63 :    18.296903983953430
 Root     64 :    18.353195883356530
 Root     65 :    18.377805769930750
 Root     66 :    18.472005955995360
 Root     67 :    18.475115068314440
 Root     68 :    18.569228638066950
 Root     69 :    18.579569194408060
 Root     70 :    18.741832086148430
 Root     71 :    18.806290928297270
 Root     72 :    18.947231654721770
 Root     73 :    18.996400436874480
 Root     74 :    19.041487975641930
 Root     75 :    19.209587600728690
 Root     76 :    19.328930816606620
 Root     77 :    19.660949346926270
 Root     78 :    19.662586206776030
 Root     79 :    19.694174735085780
 Root     80 :    19.780862575428200
 Root     81 :    19.845972806723360
 Root     82 :    20.076780350311150
 Root     83 :    20.148769748359540
 Root     84 :    20.245224382182640
 Root     85 :    20.281324803025750
 Root     86 :    20.337198949752200
 Root     87 :    20.445660297369050
 Root     88 :    20.457245891274400
 Root     89 :    20.569269544132710
 Root     90 :    20.657740047502330
 Root     91 :    20.690557214581960
 Root     92 :    20.731375859560040
 Root     93 :    20.796770426764200
 Root     94 :    20.844155321340690
 Root     95 :    20.884707934384220
 Root     96 :    20.937455569329410
 Root     97 :    20.983041399201370
 Root     98 :    20.986296122023140
 Root     99 :    21.039298365344680
 Root    100 :    21.180636103946240
 Root    101 :    21.282627652482140
 Root    102 :    21.307531793826510
 Root    103 :    21.350377084947860
 Root    104 :    21.443700096634030
 Root    105 :    21.488391439942970
 Root    106 :    21.522096648544960
 Root    107 :    21.600912956914370
 Root    108 :    22.141575161845730
 Root    109 :    22.160355549586530
 Root    110 :    22.177659772990810
 Root    111 :    22.186396605762860
 Root    112 :    22.596210690869610
 Root    113 :    22.641513248962960
 Root    114 :    22.725218731789380
 Root    115 :    22.730762176818280
 Root    116 :    23.133839628557490
 Root    117 :    23.160202455966840
 Root    118 :    23.204422137034000
 Root    119 :    23.447952066228870
 Root    120 :    23.462598249983730
 Root    121 :    23.542330436127070
 Root    122 :    23.651628267013150
 Root    123 :    23.743752937783000
 Root    124 :    23.782041476464840
 Root    125 :    23.945479797871820
 Root    126 :    24.230239530917310
 Root    127 :    24.255235391371090
 Root    128 :    24.259102376061500
 Root    129 :    24.324036743219520
 Root    130 :    24.378395594227860
 Root    131 :    24.392698474203410
 Root    132 :    24.589322005131350
 Root    133 :    24.748454929044260
 Root    134 :    24.808725026848840
 Root    135 :    24.907429171636520
 Root    136 :    24.949263990152050
 Root    137 :    25.310414750168070
 Root    138 :    25.353160505563250
 Root    139 :    25.548475162159330
 Root    140 :    25.604154508177210
 Root    141 :    25.757875290068720
 Root    142 :    25.790777895347430
 Root    143 :    25.838074247206190
 Root    144 :    25.866649041112510
 Root    145 :    26.004851748644210
 Root    146 :    26.069129417191630
 Root    147 :    26.184854411001960
 Root    148 :    26.306334058239060
 Root    149 :    26.366676625009950
 Root    150 :    26.842918041203560
 Root    151 :    26.846304086978450
 Root    152 :    26.897517269735320
 Root    153 :    27.054052015690540
 Root    154 :    27.077118452601450
 Root    155 :    27.723906274868000
 Root    156 :    27.727207405872800
 Root    157 :    27.769853656748830
 Root    158 :    27.798070760686340
 Root    159 :    28.097323054209600
 Root    160 :    28.459337213383100
 Root    161 :    28.631265400464950
 Root    162 :    28.645651284229460
 Root    163 :    28.659337451719090
 Root    164 :    28.834660441712430
 Root    165 :    28.886045044042180
 Root    166 :    28.907694597906620
 Root    167 :    29.086848924234260
 Root    168 :    29.122138804568860
 Root    169 :    29.398739318641470
 Root    170 :    29.411932713395840
 Root    171 :    29.469112752193260
 Root    172 :    29.630151176796580
 Root    173 :    29.928337329629130
 Root    174 :    30.321150608659130
 Root    175 :    30.327703109042720
 Root    176 :    30.343332487584540
 Root    177 :    30.523855830099260
 Root    178 :    30.557402410981030
 Root    179 :    30.614249136538170
 Root    180 :    30.721281232790120
 Root    181 :    30.874872949294390
 Root    182 :    31.013975868210260
 Root    183 :    31.031488998453860
 Root    184 :    31.050587468762470
 Root    185 :    31.078818596029270
 Root    186 :    31.448945957041480
 Root    187 :    31.484017380477740
 Root    188 :    31.596604304725870
 Root    189 :    31.667790210256240
 Root    190 :    31.760678357153810
 Root    191 :    31.792602624854880
 Root    192 :    31.871475214906120
 Root    193 :    31.883829393896780
 Root    194 :    32.015100772055210
 Root    195 :    32.111460162353470
 Root    196 :    32.300147602598680
 Root    197 :    32.336661128595360
 Root    198 :    32.599106313948520
 Root    199 :    32.877884974809710
 Root    200 :    32.951000225844710
 Root    201 :    33.112339218543050
 Root    202 :    33.515149991328140
 Root    203 :    33.541141006750760
 Root    204 :    33.808319151482120
 Root    205 :    33.817652626028860
 Root    206 :    33.824406021062960
 Root    207 :    34.021973458483880
 Root    208 :    34.452786727286790
 Root    209 :    34.488470925147980
 Root    210 :    34.739667574173940
 Root    211 :    34.916014274356670
 Root    212 :    35.169642356313570
 Root    213 :    35.190377388480510
 Root    214 :    35.294156704726990
 Root    215 :    35.325546285496660
 Root    216 :    35.450277511390100
 Root    217 :    35.516575432187240
 Root    218 :    35.535915948798050
 Root    219 :    35.714355647470700
 Root    220 :    35.907036965373390
 Root    221 :    36.040173629321070
 Root    222 :    36.277026595514520
 Root    223 :    36.284357494091830
 Root    224 :    36.349702626571240
 Root    225 :    36.450494627423080
 Root    226 :    36.639261290543530
 Root    227 :    36.648289662498670
 Root    228 :    36.764319875235200
 Root    229 :    36.796573488675340
 Root    230 :    36.853860744625950
 Root    231 :    37.156805280022750
 Root    232 :    37.175626517712980
 Root    233 :    37.229641345384910
 Root    234 :    37.433432994097180
 Root    235 :    37.594965649985780
 Root    236 :    37.706915105185440
 Root    237 :    37.835631689628600
 Root    238 :    38.030641689162320
 Root    239 :    38.120118656995440
 Root    240 :    38.571095411413210
 Root    241 :    38.626515718229060
 Root    242 :    38.806215840006220
 Root    243 :    38.818808551986150
 Root    244 :    38.945657769997840
 Root    245 :    39.007015187605860
 Root    246 :    39.033101699214250
 Root    247 :    39.525616662969970
 Root    248 :    39.626956398523200
 Root    249 :    39.910565430207460
 Root    250 :    39.939239441439340
 Root    251 :    40.057900866703820
 Root    252 :    40.244693358259890
 Root    253 :    40.373857000821690
 Root    254 :    40.425825820726120
 Root    255 :    40.610399394320180
 Root    256 :    40.684388876349430
 Root    257 :    40.924915371744770
 Root    258 :    41.135873624307810
 Root    259 :    41.157088191841820
 Root    260 :    41.206691363047120
 Root    261 :    41.275800836964980
 Root    262 :    41.312011569371290
 Root    263 :    41.405143037091640
 Root    264 :    41.605553064324710
 Root    265 :    41.760001114253360
 Root    266 :    42.007079997151310
 Root    267 :    42.059560624354570
 Root    268 :    42.151762091048770
 Root    269 :    42.398894230982730
 Root    270 :    42.405216216519830
 Root    271 :    42.545948270600110
 Root    272 :    42.919576762325940
 Root    273 :    43.082883136570220
 Root    274 :    43.301617971567710
 Root    275 :    43.680536995616240
 Root    276 :    43.829572745992440
 Root    277 :    44.241672753117950
 Root    278 :    44.522631552969160
 Root    279 :    44.598057751993340
 Root    280 :    45.102370134127270
 Root    281 :    45.498023157695920
 Root    282 :    45.518886160353990
 Root    283 :    45.522204900237510
 Root    284 :    45.877826719913670
 Root    285 :    46.150815432685520
 Root    286 :    46.539591961897150
 Root    287 :    46.560859672219370
 Root    288 :    46.901041534877540
 Root    289 :    46.925017682751430
 Root    290 :    46.940211571134530
 Root    291 :    47.108061579307430
 Root    292 :    47.352242308526150
 Root    293 :    47.521805776836980
 Root    294 :    47.543432064238980
 Root    295 :    47.856527285512360
 Root    296 :    48.014185170205470
 Root    297 :    48.157874528600590
 Root    298 :    48.188177029279660
 Root    299 :    48.282885346814330
 Root    300 :    48.501105778063610
 Root    301 :    48.898774890410360
 Root    302 :    49.101576356259560
 Root    303 :    49.294779743298580
 Root    304 :    49.845826339234630
 Root    305 :    49.881337588130260
 Root    306 :    49.945639816476660
 Root    307 :    49.960866455050890
 Root    308 :    50.106070927191730
 Root    309 :    50.179035691319540
 Root    310 :    50.564156849351530
 Root    311 :    50.694401751480610
 Root    312 :    50.796942471821050
 Root    313 :    51.020329718521250
 Root    314 :    51.278664324514380
 Root    315 :    51.317630990323050
 Root    316 :    51.471847010580160
 Root    317 :    51.572849060313220
 Root    318 :    52.216100594694500
 Root    319 :    52.216344576603080
 Root    320 :    52.230954867432780
 Root    321 :    52.334036525408900
 Root    322 :    52.464349591378020
 Root    323 :    52.506671427807250
 Root    324 :    52.575007984373720
 Root    325 :    52.694558130747750
 Root    326 :    52.762737571504420
 Root    327 :    52.850808468372650
 Root    328 :    53.015534186553420
 Root    329 :    53.504554036318440
 Root    330 :    53.549038939112710
 Root    331 :    53.635522296479330
 Root    332 :    53.854496775946760
 Root    333 :    53.911715022537900
 Root    334 :    54.114475753974930
 Root    335 :    54.193009308481860
 Root    336 :    54.275650570589210
 Root    337 :    54.620366458548000
 Root    338 :    54.982337370694430
 Root    339 :    55.013025575600920
 Root    340 :    55.018829214218940
 Root    341 :    55.318384713498280
 Root    342 :    55.514198440953140
 Root    343 :    55.613272407453740
 Root    344 :    55.630258593375960
 Root    345 :    55.913148145712470
 Root    346 :    55.947947785118820
 Root    347 :    56.133475700213270
 Root    348 :    56.208346975695530
 Root    349 :    56.255401731057250
 Root    350 :    56.589743295748970
 Root    351 :    56.698263799924430
 Root    352 :    56.705493346410680
 Root    353 :    56.775396371519920
 Root    354 :    56.992550372061590
 Root    355 :    57.132943405449590
 Root    356 :    57.295124381063980
 Root    357 :    57.358095454086780
 Root    358 :    57.563488704207690
 Root    359 :    57.582327268281960
 Root    360 :    57.810259873164320
 Root    361 :    57.818940828880370
 Root    362 :    57.883990200087210
 Root    363 :    57.965727949286230
 Root    364 :    57.967848274988210
 Root    365 :    58.027994500569240
 Root    366 :    58.287182388644120
 Root    367 :    58.403516105452630
 Root    368 :    58.442537802179190
 Root    369 :    58.454108292538790
 Root    370 :    58.532317867585980
 Root    371 :    58.536274444181170
 Root    372 :    58.700635654955490
 Root    373 :    58.764537195640360
 Root    374 :    59.075676359644250
 Root    375 :    59.196901606259780
 Root    376 :    59.387695475867080
 Root    377 :    59.666264284208840
 Root    378 :    59.730047581776500
 Root    379 :    60.266403274131330
 Root    380 :    60.493177074365950
 Root    381 :    60.585272941954660
 Root    382 :    60.630046295572180
 Root    383 :    60.903572440114100
 Root    384 :    61.050978726489260
 Root    385 :    61.174487388180060
 Root    386 :    61.198103614588480
 Root    387 :    61.327598765836690
 Root    388 :    61.359790174384500
 Root    389 :    61.415451315337780
 Root    390 :    61.634538192142220
 Root    391 :    61.722269989364950
 Root    392 :    61.915345482015060
 Root    393 :    62.152430653142130
 Root    394 :    62.246848198105330
 Root    395 :    62.265383291983040
 Root    396 :    62.659232088988090
 Root    397 :    62.853695729628860
 Root    398 :    63.301639157868390
 Root    399 :    63.484952746500390
 Root    400 :    63.743374501013750
 Root    401 :    64.105354043135860
 Root    402 :    64.631335956609360
 Root    403 :    64.649414013403200
 Root    404 :    64.774182304898010
 Root    405 :    65.037838551749060
 Root    406 :    65.376562218037520
 Root    407 :    65.387683683420730
 Root    408 :    65.397002130791090
 Root    409 :    65.520852884457070
 Root    410 :    65.541676894387270
 Root    411 :    65.690729966971500
 Root    412 :    65.723260398759560
 Root    413 :    65.812152019852860
 Root    414 :    65.981320894066240
 Root    415 :    66.372525141435860
 Root    416 :    66.556536777179090
 Root    417 :    66.558677266822120
 Root    418 :    66.704711188347220
 Root    419 :    67.601867759822060
 Root    420 :    67.630819076435970
 Root    421 :    67.795974983706050
 Root    422 :    68.118880656951360
 Root    423 :    68.216201039478890
 Root    424 :    68.253049362823290
 Root    425 :    68.269311095292220
 Root    426 :    68.392096032856500
 Root    427 :    68.560684115899010
 Root    428 :    68.611379910979390
 Root    429 :    68.677308001409290
 Root    430 :    68.726465344119520
 Root    431 :    68.785056937859610
 Root    432 :    68.949646533559530
 Root    433 :    69.220385629218500
 Root    434 :    69.231765728886490
 Root    435 :    69.324946929742270
 Root    436 :    69.391922149321560
 Root    437 :    70.127197826524910
 Root    438 :    70.180773908982350
 Root    439 :    70.425958100893400
 Root    440 :    70.797694769774550
 Root    441 :    70.798443162935290
 Root    442 :    70.824354693871480
 Root    443 :    71.000153673726670
 Root    444 :    71.118417384841450
 Root    445 :    71.504546532764910
 Root    446 :    71.620732519287980
 Root    447 :    71.625031952498660
 Root    448 :    71.684626571371130
 Root    449 :    72.187344805951880
 Root    450 :    72.402284842598350
 Root    451 :    72.727463753774120
 Root    452 :    72.762390744645630
 Root    453 :    72.954905553727230
 Root    454 :    73.232978698156700
 Root    455 :    73.360859164551630
 Root    456 :    73.559675943328740
 Root    457 :    73.686756965671180
 Root    458 :    73.806645447103190
 Root    459 :    74.321715705070320
 Root    460 :    74.407721312041820
 Root    461 :    74.518397479660120
 Root    462 :    74.742734526393450
 Root    463 :    74.920279646119110
 Root    464 :    75.209478574819160
 Root    465 :    75.227460766159820
 Root    466 :    75.260748845237170
 Root    467 :    75.588530952673910
 Root    468 :    75.591723375167630
 Root    469 :    75.691408911090120
 Root    470 :    75.799742530421580
 Root    471 :    76.121461794820080
 Root    472 :    76.167729863220440
 Root    473 :    76.583978307800520
 Root    474 :    76.603338700209960
 Root    475 :    76.698757200878840
 Root    476 :    76.942874838255380
 Root    477 :    77.166903549420370
 Root    478 :    77.188699587785290
 Root    479 :    77.205882505473430
 Root    480 :    77.285508559639620
 Root    481 :    77.439559736504620
 Root    482 :    77.586645270839130
 Root    483 :    77.670349500922610
 Root    484 :    77.701557666311260
 Root    485 :    77.759636840846530
 Root    486 :    78.048426739201760
 Root    487 :    78.251138136947790
 Root    488 :    78.312463356350580
 Root    489 :    78.509891736440280
 Root    490 :    78.678329075491020
 Root    491 :    79.015633929660400
 Root    492 :    79.061410086465660
 Root    493 :    79.100026350719260
 Root    494 :    79.101573169868970
 Root    495 :    79.372126491251520
 Root    496 :    79.453561668985260
 Root    497 :    79.463013274973250
 Root    498 :    79.522320989603640
 Root    499 :    79.550015919770840
 Root    500 :    79.587152067401730
 Root    501 :    79.849123465735590
 Root    502 :    79.899274617782920
 Root    503 :    80.030032907049020
 Root    504 :    80.079715227546120
 Root    505 :    80.321166217649160
 Root    506 :    80.359473145581550
 Root    507 :    80.853042725988060
 Root    508 :    80.923287747996210
 Root    509 :    81.136195761696200
 Root    510 :    81.305913454496140
 Root    511 :    81.567695025379140
 Root    512 :    81.718545965003530
 Root    513 :    81.765024035019350
 Root    514 :    81.854622687945240
 Root    515 :    81.920450617238230
 Root    516 :    82.108496684948420
 Root    517 :    82.385672441499300
 Root    518 :    82.530275180630070
 Root    519 :    82.652177096666350
 Root    520 :    82.676190114635400
 Root    521 :    82.749585245003810
 Root    522 :    82.765267328348630
 Root    523 :    82.815824696942570
 Root    524 :    82.921013245926940
 Root    525 :    82.944416776816780
 Root    526 :    83.035009676233430
 Root    527 :    83.067588384770430
 Root    528 :    83.216284542737650
 Root    529 :    83.243663947307070
 Root    530 :    83.559971638372670
 Root    531 :    83.787637426017610
 Root    532 :    83.948538035322170
 Root    533 :    84.290808849162930
 Root    534 :    84.311736331871440
 Root    535 :    84.781806397871480
 Root    536 :    84.923782966747480
 Root    537 :    85.153252905698470
 Root    538 :    85.268884953303200
 Root    539 :    85.272235149567850
 Root    540 :    85.277700539377310
 Root    541 :    85.617150466041050
 Root    542 :    85.814223298951750
 Root    543 :    85.864467405502510
 Root    544 :    85.869706869502780
 Root    545 :    86.017769406217540
 Root    546 :    86.110855927375770
 Root    547 :    86.391014252576240
 Root    548 :    86.414882725547570
 Root    549 :    86.556985533726670
 Root    550 :    86.597769291233990
 Root    551 :    86.747219479522880
 Root    552 :    86.970603274009010
 Root    553 :    87.109330510261120
 Root    554 :    87.303873218248940
 Root    555 :    87.446534177826010
 Root    556 :    87.550340380140210
 Root    557 :    87.665996535421980
 Root    558 :    87.753398065042400
 Root    559 :    88.167461742894520
 Root    560 :    88.177911956535040
 Root    561 :    88.573961335912390
 Root    562 :    88.678518815275400
 Root    563 :    88.712850573239190
 Root    564 :    88.726124265649690
 Root    565 :    88.843061947018920
 Root    566 :    88.965992936250880
 Root    567 :    88.984899105449660
 Root    568 :    89.293593162107830
 Root    569 :    89.329603283563120
 Root    570 :    89.561634233856310
 Root    571 :    89.827024268695280
 Root    572 :    89.844893562801060
 Root    573 :    89.891546015790480
 Root    574 :    90.001782012083580
 Root    575 :    90.031648418757030
 Root    576 :    90.084836927127370
 Root    577 :    90.251083005825420
 Root    578 :    90.426569773346540
 Root    579 :    90.470391551069180
 Root    580 :    90.625650857987860
 Root    581 :    90.839372190265820
 Root    582 :    90.892148000919160
 Root    583 :    90.923256539841260
 Root    584 :    91.054140230921690
 Root    585 :    91.173939100428670
 Root    586 :    91.350409947770980
 Root    587 :    91.655041811688120
 Root    588 :    91.921582328950830
 Root    589 :    92.153636564162070
 Root    590 :    92.319209671108990
 Root    591 :    92.732264026370190
 Root    592 :    92.922817055424220
 Root    593 :    93.016520600670460
 Root    594 :    93.188030551938380
 Root    595 :    93.303841417819780
 Root    596 :    93.356855133286890
 Root    597 :    93.574464033993590
 Root    598 :    93.576184526036600
 Root    599 :    93.814130966630980
 Root    600 :    93.993020896175030
 Root    601 :    94.101800000282300
 Root    602 :    94.190431250259120
 Root    603 :    94.192318814132280
 Root    604 :    94.275455826437150
 Root    605 :    94.355078122984410
 Root    606 :    94.556694994997540
 Root    607 :    94.915586885528780
 Root    608 :    95.079673982270460
 Root    609 :    95.571517323139300
 Root    610 :    96.117731592450350
 Root    611 :    96.120033252704860
 Root    612 :    96.627680098711660
 Root    613 :    96.711482389621270
 Root    614 :    96.792831177802550
 Root    615 :    96.897707592502310
 Root    616 :    96.944488788737000
 Root    617 :    97.002021013371960
 Root    618 :    97.169718404617910
 Root    619 :    97.200116047402060
 Root    620 :    97.400385758606130
 Root    621 :    97.553558584420130
 Root    622 :    97.591217368781360
 Root    623 :    97.719148139943000
 Root    624 :    97.750721661518010
 Root    625 :    97.952451186551160
 Root    626 :    98.055846782564400
 Root    627 :    98.470539860786300
 Root    628 :    98.529547154841230
 Root    629 :    98.535477563922530
 Root    630 :    98.663979773810240
 Root    631 :    98.818413081732960
 Root    632 :    98.853618650709190
 Root    633 :    99.168811428810000
 Root    634 :    99.233067256869180
 Root    635 :    99.466348996338330
 Root    636 :    99.553783029397680
 Root    637 :    99.665323874698740
 Root    638 :    99.825998049627980
 Root    639 :    99.908019179408680
 Root    640 :   100.131551561750700
 Root    641 :   100.214567726641000
 Root    642 :   100.321132420200200
 Root    643 :   100.365070153434600
 Root    644 :   100.387463256196500
 Root    645 :   100.715706498065600
 Root    646 :   100.788619966855200
 Root    647 :   101.153494784317500
 Root    648 :   101.418925059837500
 Root    649 :   101.482695639278400
 Root    650 :   101.780920290744800
 Root    651 :   101.866351001337300
 Root    652 :   101.996834880599400
 Root    653 :   102.057265495882400
 Root    654 :   102.394423279468100
 Root    655 :   102.535981278625200
 Root    656 :   102.789985572615000
 Root    657 :   102.854076364644200
 Root    658 :   103.268987709309200
 Root    659 :   103.321423104595700
 Root    660 :   103.515537578052800
 Root    661 :   103.939507965146300
 Root    662 :   104.173380983868800
 Root    663 :   104.360039501328900
 Root    664 :   104.416730761235300
 Root    665 :   104.564787363396100
 Root    666 :   105.004564345596300
 Root    667 :   105.098809854077500
 Root    668 :   105.207363738831200
 Root    669 :   105.219795800383400
 Root    670 :   105.313114218299900
 Root    671 :   105.766978423426900
 Root    672 :   105.924205082416700
 Root    673 :   106.344004329511300
 Root    674 :   106.424146609952500
 Root    675 :   106.689242506117100
 Root    676 :   106.862018278437900
 Root    677 :   106.867486147483900
 Root    678 :   107.274664788840700
 Root    679 :   107.438472783301700
 Root    680 :   107.448822009125400
 Root    681 :   107.495323769442200
 Root    682 :   107.860776730513200
 Root    683 :   107.865610029482700
 Root    684 :   108.023628460929600
 Root    685 :   108.383430028452600
 Root    686 :   108.475476407589300
 Root    687 :   108.707072483294200
 Root    688 :   108.899011398712800
 Root    689 :   109.459459477271000
 Root    690 :   109.485919424806800
 Root    691 :   109.566649702844100
 Root    692 :   109.698770763183600
 Root    693 :   109.916046128698100
 Root    694 :   109.944532869298700
 Root    695 :   110.141553218794100
 Root    696 :   110.754393404082400
 Root    697 :   110.822990505939100
 Root    698 :   110.865074915916100
 Root    699 :   111.477409663951700
 Root    700 :   112.245109803694300
 Root    701 :   112.468688254013700
 Root    702 :   112.538035622175500
 Root    703 :   112.659128137977300
 Root    704 :   113.033363323436000
 Root    705 :   113.087242344502400
 Root    706 :   113.362828026336700
 Root    707 :   113.854999303743400
 Root    708 :   114.479292617303000
 Root    709 :   114.858290356607100
 Root    710 :   114.886068083366000
 Root    711 :   115.343864021899200
 Root    712 :   115.396692627424100
 Root    713 :   115.945126521561500
 Root    714 :   116.328483752406200
 Root    715 :   116.339654669600400
 Root    716 :   116.799884547296200
 Root    717 :   117.046569600274900
 Root    718 :   117.371483019381400
 Root    719 :   117.583813490697600
 Root    720 :   117.791875627308800
 Root    721 :   117.848179774144700
 Root    722 :   117.934588626835100
 Root    723 :   118.194830845569300
 Root    724 :   118.486015127528800
 Root    725 :   118.740548480803000
 Root    726 :   118.851498485897000
 Root    727 :   119.050290948526900
 Root    728 :   119.167642388383000
 Root    729 :   119.562660094420000
 Root    730 :   120.258817465731600
 Root    731 :   120.484580438758600
 Root    732 :   120.593981916091000
 Root    733 :   120.682411147675100
 Root    734 :   120.858535773555700
 Root    735 :   121.171753700541800
 Root    736 :   121.874900386290100
 Root    737 :   121.977794457656400
 Root    738 :   121.994283214183600
 Root    739 :   122.821366306374500
 Root    740 :   122.922166720754300
 Root    741 :   122.926304182570600
 Root    742 :   123.123748994219400
 Root    743 :   123.562098456029700
 Root    744 :   123.594171512045400
 Root    745 :   123.783767635847700
 Root    746 :   124.370980380795800
 Root    747 :   124.477493620069000
 Root    748 :   124.502525754773700
 Root    749 :   124.619078866123900
 Root    750 :   124.800289877132300
 Root    751 :   125.357736783706000
 Root    752 :   125.615299349184600
 Root    753 :   126.110222730978300
 Root    754 :   126.260677008415200
 Root    755 :   126.470905612459400
 Root    756 :   126.785984816675000
 Root    757 :   126.859708491526400
 Root    758 :   127.032368227388500
 Root    759 :   127.085449653933400
 Root    760 :   127.145606552779800
 Root    761 :   127.664591424213500
 Root    762 :   127.986351824202700
 Root    763 :   128.165943827737100
 Root    764 :   128.190579438008600
 Root    765 :   128.488799534498400
 Root    766 :   128.546480744076100
 Root    767 :   129.079846571167000
 Root    768 :   129.285632351985300
 Root    769 :   129.912615487845300
 Root    770 :   130.587292844827500
 Root    771 :   130.760757730913700
 Root    772 :   131.192354558027300
 Root    773 :   131.366611006005400
 Root    774 :   132.151651364445800
 Root    775 :   132.783627306843500
 Root    776 :   133.522800093998500
 Root    777 :   133.697739238120500
[...]
     15   0.757686D+00  0.000000D+00  0.000000D+00  0.000000D+00  0.000000D+00
     16   0.000000D+00  0.000000D+00  0.680792D+00  0.000000D+00  0.000000D+00
               876           877           878           879           880 
      1  -0.146886D+03 -0.146884D+03 -0.146873D+03 -0.146857D+03 -0.146850D+03
      2   0.000000D+00  0.000000D+00 -0.571786D-01  0.000000D+00  0.000000D+00
      3   0.850131D-01  0.000000D+00  0.000000D+00  0.000000D+00  0.000000D+00
      4   0.000000D+00  0.103454D-01  0.000000D+00  0.000000D+00 -0.855896D-01
      5   0.000000D+00  0.000000D+00  0.482032D+00  0.000000D+00  0.000000D+00
      6  -0.685417D+00  0.000000D+00  0.000000D+00  0.000000D+00  0.000000D+00
      7   0.000000D+00 -0.136597D+00  0.000000D+00  0.000000D+00  0.618677D+00
      8   0.106915D+01  0.000000D+00  0.000000D+00  0.000000D+00  0.000000D+00
      9   0.000000D+00  0.000000D+00  0.753948D+00  0.000000D+00  0.000000D+00
     10   0.000000D+00  0.000000D+00  0.000000D+00 -0.302076D-01  0.000000D+00
     11   0.000000D+00 -0.105970D+00  0.000000D+00  0.000000D+00 -0.522237D-01
     12   0.000000D+00  0.211008D+00  0.000000D+00  0.000000D+00  0.213568D-01
     13   0.000000D+00 -0.118073D+00  0.000000D+00  0.000000D+00  0.196012D+01
     14   0.000000D+00  0.000000D+00  0.000000D+00 -0.573394D-03  0.000000D+00
     15   0.000000D+00  0.000000D+00  0.808319D+00  0.000000D+00  0.000000D+00
     16  -0.128490D+01  0.000000D+00  0.000000D+00  0.000000D+00  0.000000D+00
               881           882           883           884           885 
      1  -0.146829D+03 -0.146799D+03 -0.146777D+03 -0.146772D+03 -0.146750D+03
      2   0.000000D+00  0.000000D+00 -0.479480D-01  0.000000D+00  0.000000D+00
      3   0.000000D+00  0.000000D+00  0.000000D+00  0.000000D+00 -0.331998D-01
      4  -0.174737D-01  0.208129D-01  0.000000D+00  0.000000D+00  0.000000D+00
      5   0.000000D+00  0.000000D+00  0.405756D+00  0.000000D+00  0.000000D+00
      6   0.000000D+00  0.000000D+00  0.000000D+00  0.000000D+00  0.265853D+00
      7   0.184533D-01 -0.111721D+00  0.000000D+00  0.000000D+00  0.000000D+00
      8   0.000000D+00  0.000000D+00  0.000000D+00  0.000000D+00 -0.393615D+00
      9   0.000000D+00  0.000000D+00  0.628818D+00  0.000000D+00  0.000000D+00
     10   0.000000D+00  0.000000D+00  0.000000D+00  0.146286D-01  0.000000D+00
     11   0.247834D-01  0.346342D-01  0.000000D+00  0.000000D+00  0.000000D+00
     12   0.357368D-02 -0.124277D-01  0.000000D+00  0.000000D+00  0.000000D+00
     13   0.628670D-01 -0.389067D+00  0.000000D+00  0.000000D+00  0.000000D+00
     14   0.000000D+00  0.000000D+00  0.000000D+00  0.505626D-01  0.000000D+00
     15   0.000000D+00  0.000000D+00  0.685634D+00  0.000000D+00  0.000000D+00
     16   0.000000D+00  0.000000D+00  0.000000D+00  0.000000D+00  0.249183D+00
               886           887           888           889           890 
      1  -0.146739D+03 -0.146738D+03 -0.146711D+03 -0.146689D+03 -0.146668D+03
      2   0.000000D+00 -0.223379D-01  0.000000D+00 -0.848155D-01  0.000000D+00
      3   0.000000D+00  0.000000D+00 -0.263951D-01  0.000000D+00 -0.102911D-01
      4   0.000000D+00  0.000000D+00  0.000000D+00  0.000000D+00  0.000000D+00
      5   0.000000D+00  0.195333D+00  0.000000D+00  0.626923D+00  0.000000D+00
      6   0.000000D+00  0.000000D+00  0.225670D+00  0.000000D+00  0.156006D-01
      7   0.000000D+00  0.000000D+00  0.000000D+00  0.000000D+00  0.000000D+00
      8   0.000000D+00  0.000000D+00 -0.341011D+00  0.000000D+00 -0.233514D-01
      9   0.000000D+00  0.250668D+00  0.000000D+00  0.994026D+00  0.000000D+00
     10   0.298866D-01  0.000000D+00  0.000000D+00  0.000000D+00  0.000000D+00
     11   0.000000D+00  0.000000D+00  0.000000D+00  0.000000D+00  0.000000D+00
     12   0.000000D+00  0.000000D+00  0.000000D+00  0.000000D+00  0.000000D+00
     13   0.000000D+00  0.000000D+00  0.000000D+00  0.000000D+00  0.000000D+00
     14  -0.120732D-01  0.000000D+00  0.000000D+00  0.000000D+00  0.000000D+00
     15   0.000000D+00  0.239019D+00  0.000000D+00  0.112307D+01  0.000000D+00
     16   0.000000D+00  0.000000D+00  0.362976D+00  0.000000D+00  0.191973D-01
               891           892           893           894           895 
      1  -0.146610D+03 -0.146598D+03 -0.146596D+03 -0.146583D+03 -0.146573D+03
      2   0.000000D+00  0.000000D+00 -0.539885D-01  0.000000D+00 -0.726861D-01
      3   0.182574D-01  0.000000D+00  0.000000D+00  0.000000D+00  0.000000D+00
      4   0.000000D+00  0.709632D-01  0.000000D+00  0.153680D-01  0.000000D+00
      5   0.000000D+00  0.000000D+00  0.419411D+00  0.000000D+00  0.554511D+00
      6  -0.137339D+00  0.000000D+00  0.000000D+00  0.000000D+00  0.000000D+00
      7   0.000000D+00 -0.492654D+00  0.000000D+00 -0.115753D+00  0.000000D+00
      8   0.235020D+00  0.000000D+00  0.000000D+00  0.000000D+00  0.000000D+00
      9   0.000000D+00  0.000000D+00  0.630640D+00  0.000000D+00  0.850339D+00
     10   0.000000D+00  0.000000D+00  0.000000D+00  0.000000D+00  0.000000D+00
     11   0.000000D+00  0.309826D-01  0.000000D+00 -0.190758D-01  0.000000D+00
     12   0.000000D+00 -0.671740D-01  0.000000D+00  0.594781D-01  0.000000D+00
     13   0.000000D+00 -0.159907D+01  0.000000D+00 -0.218445D+00  0.000000D+00
     14   0.000000D+00  0.000000D+00  0.000000D+00  0.000000D+00  0.000000D+00
     15   0.000000D+00  0.000000D+00  0.724417D+00  0.000000D+00  0.941076D+00
     16  -0.206422D+00  0.000000D+00  0.000000D+00  0.000000D+00  0.000000D+00
               896           897           898           899           900 
      1  -0.146564D+03 -0.146554D+03 -0.146551D+03 -0.146506D+03 -0.146500D+03
      2   0.000000D+00  0.000000D+00  0.000000D+00  0.000000D+00  0.000000D+00
      3  -0.385292D-01  0.000000D+00  0.000000D+00  0.000000D+00  0.000000D+00
      4   0.000000D+00  0.000000D+00 -0.303605D-01  0.000000D+00  0.000000D+00
      5   0.000000D+00  0.000000D+00  0.000000D+00  0.000000D+00  0.000000D+00
      6   0.321530D+00  0.000000D+00  0.000000D+00  0.000000D+00  0.000000D+00
      7   0.000000D+00  0.000000D+00  0.229145D+00  0.000000D+00  0.000000D+00
      8  -0.451925D+00  0.000000D+00  0.000000D+00  0.000000D+00  0.000000D+00
      9   0.000000D+00  0.000000D+00  0.000000D+00  0.000000D+00  0.000000D+00
     10   0.000000D+00 -0.421442D-02  0.000000D+00 -0.141431D-01 -0.342450D-01
     11   0.000000D+00  0.000000D+00 -0.681233D-01  0.000000D+00  0.000000D+00
     12   0.000000D+00  0.000000D+00  0.460665D-01  0.000000D+00  0.000000D+00
     13   0.000000D+00  0.000000D+00  0.824874D+00  0.000000D+00  0.000000D+00
     14   0.000000D+00 -0.359814D-01  0.000000D+00  0.114375D+00  0.524484D-01
     15   0.000000D+00  0.000000D+00  0.000000D+00  0.000000D+00  0.000000D+00
     16   0.486984D+00  0.000000D+00  0.000000D+00  0.000000D+00  0.000000D+00
               901           902           903           904           905 
      1  -0.146437D+03 -0.146421D+03 -0.146394D+03 -0.146391D+03 -0.146384D+03
      2   0.000000D+00  0.000000D+00 -0.122851D-01  0.000000D+00 -0.243214D-01
      3   0.000000D+00  0.000000D+00  0.000000D+00  0.767800D-01  0.000000D+00
      4   0.332675D-01  0.000000D+00  0.000000D+00  0.000000D+00  0.000000D+00
      5   0.000000D+00  0.000000D+00  0.745776D-01  0.000000D+00  0.191725D+00
      6   0.000000D+00  0.000000D+00  0.000000D+00 -0.532537D+00  0.000000D+00
      7  -0.258132D+00  0.000000D+00  0.000000D+00  0.000000D+00  0.000000D+00
      8   0.000000D+00  0.000000D+00  0.000000D+00  0.930690D+00  0.000000D+00
      9   0.000000D+00  0.000000D+00  0.164603D+00  0.000000D+00  0.253065D+00
     10   0.000000D+00 -0.226087D-01  0.000000D+00  0.000000D+00  0.000000D+00
     11   0.354816D-01  0.000000D+00  0.000000D+00  0.000000D+00  0.000000D+00
     12   0.117648D-01  0.000000D+00  0.000000D+00  0.000000D+00  0.000000D+00
     13  -0.980323D+00  0.000000D+00  0.000000D+00  0.000000D+00  0.000000D+00
     14   0.000000D+00  0.169795D-01  0.000000D+00  0.000000D+00  0.000000D+00
     15   0.000000D+00  0.000000D+00  0.128162D+00  0.000000D+00  0.293467D+00
     16   0.000000D+00  0.000000D+00  0.000000D+00 -0.115031D+01  0.000000D+00
               906           907           908           909           910 
      1  -0.146319D+03 -0.146292D+03 -0.146253D+03 -0.146235D+03 -0.146224D+03
      2   0.000000D+00 -0.276485D-03  0.000000D+00  0.000000D+00  0.000000D+00
      3   0.000000D+00  0.000000D+00  0.167212D-03  0.000000D+00  0.000000D+00
      4   0.112385D+00  0.000000D+00  0.000000D+00  0.934496D-03  0.466007D-01
      5   0.000000D+00 -0.356601D-01  0.000000D+00  0.000000D+00  0.000000D+00
      6   0.000000D+00  0.000000D+00  0.260052D-01  0.000000D+00  0.000000D+00
      7  -0.710213D+00  0.000000D+00  0.000000D+00 -0.325836D-01 -0.307437D+00
      8   0.000000D+00  0.000000D+00  0.437989D-01  0.000000D+00  0.000000D+00
      9   0.000000D+00  0.248067D-01  0.000000D+00  0.000000D+00  0.000000D+00
     10   0.000000D+00  0.000000D+00  0.000000D+00  0.000000D+00  0.000000D+00
     11   0.864596D-01  0.000000D+00  0.000000D+00 -0.281863D-01  0.494538D-02
     12   0.738625D-02  0.000000D+00  0.000000D+00  0.620364D-01  0.386265D-01
     13  -0.277455D+01  0.000000D+00  0.000000D+00 -0.218094D+00 -0.757499D+00
     14   0.000000D+00  0.000000D+00  0.000000D+00  0.000000D+00  0.000000D+00
     15   0.000000D+00  0.792553D-01  0.000000D+00  0.000000D+00  0.000000D+00
     16   0.000000D+00  0.000000D+00  0.154657D+00  0.000000D+00  0.000000D+00
               911           912           913           914           915 
      1  -0.146222D+03 -0.146208D+03 -0.146176D+03 -0.146051D+03 -0.146043D+03
      2   0.000000D+00  0.000000D+00  0.000000D+00  0.128472D-01  0.000000D+00
      3   0.672424D-01  0.000000D+00  0.000000D+00  0.000000D+00  0.000000D+00
      4   0.000000D+00  0.000000D+00  0.000000D+00  0.000000D+00  0.359741D-01
      5   0.000000D+00  0.000000D+00  0.000000D+00 -0.117821D+00  0.000000D+00
      6  -0.498709D+00  0.000000D+00  0.000000D+00  0.000000D+00  0.000000D+00
      7   0.000000D+00  0.000000D+00  0.000000D+00  0.000000D+00 -0.249777D+00
      8   0.659680D+00  0.000000D+00  0.000000D+00  0.000000D+00  0.000000D+00
      9   0.000000D+00  0.000000D+00  0.000000D+00 -0.178388D+00  0.000000D+00
     10   0.000000D+00 -0.492825D-02  0.476619D-01  0.000000D+00  0.000000D+00
     11   0.000000D+00  0.000000D+00  0.000000D+00  0.000000D+00 -0.238910D-02
     12   0.000000D+00  0.000000D+00  0.000000D+00  0.000000D+00 -0.417219D-01
     13   0.000000D+00  0.000000D+00  0.000000D+00  0.000000D+00 -0.528194D+00
     14   0.000000D+00 -0.568773D-01 -0.421676D-01  0.000000D+00  0.000000D+00
     15   0.000000D+00  0.000000D+00  0.000000D+00 -0.252792D+00  0.000000D+00
     16  -0.912612D+00  0.000000D+00  0.000000D+00  0.000000D+00  0.000000D+00
               916           917           918           919           920 
      1  -0.146017D+03 -0.145873D+03 -0.145670D+03 -0.131312D+03 -0.131311D+03
      2   0.000000D+00  0.000000D+00  0.000000D+00  0.000000D+00 -0.106241D-02
      3   0.239997D-01  0.000000D+00  0.452979D-03  0.000000D+00  0.000000D+00
      4   0.000000D+00 -0.149637D-01  0.000000D+00 -0.218189D-01  0.000000D+00
      5   0.000000D+00  0.000000D+00  0.000000D+00  0.000000D+00  0.893790D-01
      6  -0.184490D+00  0.000000D+00 -0.907637D-02  0.000000D+00  0.000000D+00
      7   0.000000D+00  0.716921D-01  0.000000D+00  0.127794D+00  0.000000D+00
      8   0.383956D+00  0.000000D+00 -0.318318D-01  0.000000D+00  0.000000D+00
      9   0.000000D+00  0.000000D+00  0.000000D+00  0.000000D+00 -0.460532D-01
     10   0.000000D+00  0.000000D+00  0.000000D+00  0.000000D+00  0.000000D+00
     11   0.000000D+00 -0.202597D-01  0.000000D+00  0.287905D-02  0.000000D+00
     12   0.000000D+00 -0.292090D-03  0.000000D+00  0.321918D+00  0.000000D+00
     13   0.000000D+00  0.219818D+00  0.000000D+00 -0.210540D+00  0.000000D+00
     14   0.000000D+00  0.000000D+00  0.000000D+00  0.000000D+00  0.000000D+00
     15   0.000000D+00  0.000000D+00  0.000000D+00  0.000000D+00 -0.773790D-01
     16  -0.139044D+00  0.000000D+00  0.365261D-01  0.000000D+00  0.000000D+00
               921           922           923           924           925 
      1  -0.131239D+03 -0.131210D+03 -0.131177D+03 -0.131169D+03 -0.131135D+03
      2   0.000000D+00  0.000000D+00  0.000000D+00  0.000000D+00  0.174669D-01
      3   0.000000D+00  0.232118D-02  0.874943D-02  0.000000D+00  0.000000D+00
      4   0.000000D+00  0.000000D+00  0.000000D+00  0.000000D+00  0.000000D+00
      5   0.000000D+00  0.000000D+00  0.000000D+00  0.000000D+00 -0.196252D+00
      6   0.000000D+00  0.167842D-01 -0.164260D+00  0.000000D+00  0.000000D+00
      7   0.000000D+00  0.000000D+00  0.000000D+00  0.000000D+00  0.000000D+00
      8   0.000000D+00 -0.217611D+00 -0.182217D+00  0.000000D+00  0.000000D+00
      9   0.000000D+00  0.000000D+00  0.000000D+00  0.000000D+00  0.142961D+00
     10   0.256627D+00  0.000000D+00  0.000000D+00 -0.112891D-01  0.000000D+00
     11   0.000000D+00  0.000000D+00  0.000000D+00  0.000000D+00  0.000000D+00
     12   0.000000D+00  0.000000D+00  0.000000D+00  0.000000D+00  0.000000D+00
     13   0.000000D+00  0.000000D+00  0.000000D+00  0.000000D+00  0.000000D+00
     14  -0.329326D+00  0.000000D+00  0.000000D+00 -0.567883D-03  0.000000D+00
     15   0.000000D+00  0.000000D+00  0.000000D+00  0.000000D+00  0.155758D+00
     16   0.000000D+00 -0.223226D+00  0.177221D-01  0.000000D+00  0.000000D+00
               926           927           928           929           930 
      1  -0.131131D+03 -0.131064D+03 -0.131043D+03 -0.130999D+03 -0.130950D+03
      2   0.000000D+00  0.000000D+00  0.183181D-03  0.000000D+00  0.000000D+00
      3   0.000000D+00  0.000000D+00  0.000000D+00 -0.120998D-01  0.000000D+00
      4  -0.981958D-02 -0.108682D-01  0.000000D+00  0.000000D+00  0.000000D+00
      5   0.000000D+00  0.000000D+00  0.142598D-02  0.000000D+00  0.000000D+00
      6   0.000000D+00  0.000000D+00  0.000000D+00  0.139624D+00  0.000000D+00
      7   0.882242D-01  0.860318D-01  0.000000D+00  0.000000D+00  0.000000D+00
      8   0.000000D+00  0.000000D+00  0.000000D+00  0.519579D-01  0.000000D+00
      9   0.000000D+00  0.000000D+00  0.445681D-02  0.000000D+00  0.000000D+00
     10   0.000000D+00  0.000000D+00  0.000000D+00  0.000000D+00 -0.149368D+00
     11  -0.864406D-01 -0.351912D-01  0.000000D+00  0.000000D+00  0.000000D+00
     12  -0.439398D+00 -0.287225D-01  0.000000D+00  0.000000D+00  0.000000D+00
     13  -0.189397D+00 -0.129394D+00  0.000000D+00  0.000000D+00  0.000000D+00
     14   0.000000D+00  0.000000D+00  0.000000D+00  0.000000D+00  0.175206D+00
     15   0.000000D+00  0.000000D+00 -0.244157D-02  0.000000D+00  0.000000D+00
     16   0.000000D+00  0.000000D+00  0.000000D+00 -0.193280D+00  0.000000D+00
               931           932           933           934           935 
      1  -0.130933D+03 -0.130907D+03 -0.130808D+03 -0.130771D+03 -0.130508D+03
      2   0.000000D+00  0.000000D+00  0.000000D+00  0.000000D+00  0.000000D+00
      3   0.800936D-03  0.000000D+00  0.000000D+00  0.226389D-02  0.000000D+00
      4   0.000000D+00  0.719046D-02 -0.558420D-03  0.000000D+00  0.400477D-02
      5   0.000000D+00  0.000000D+00  0.000000D+00  0.000000D+00  0.000000D+00
      6  -0.164104D-01  0.000000D+00  0.000000D+00 -0.984788D-02  0.000000D+00
      7   0.000000D+00 -0.690932D-01  0.156332D-01  0.000000D+00 -0.620159D-01
      8  -0.653153D-02  0.000000D+00  0.000000D+00  0.846936D-01  0.000000D+00
      9   0.000000D+00  0.000000D+00  0.000000D+00  0.000000D+00  0.000000D+00
     10   0.000000D+00  0.000000D+00  0.000000D+00  0.000000D+00  0.000000D+00
     11   0.000000D+00  0.212929D+00  0.169464D+00  0.000000D+00 -0.109194D+00
     12   0.000000D+00  0.280286D+00  0.265907D+00  0.000000D+00 -0.524460D-01
     13   0.000000D+00  0.207963D+00  0.139890D+00  0.000000D+00 -0.172502D+00
     14   0.000000D+00  0.000000D+00  0.000000D+00  0.000000D+00  0.000000D+00
     15   0.000000D+00  0.000000D+00  0.000000D+00  0.000000D+00  0.000000D+00
     16  -0.838359D-02  0.000000D+00  0.000000D+00  0.379278D-01  0.000000D+00
               936           937           938           939           940 
      1  -0.130377D+03 -0.109919D+03 -0.109806D+03 -0.109764D+03 -0.109655D+03
      2   0.000000D+00  0.257869D-01  0.000000D+00  0.000000D+00  0.000000D+00
      3   0.306007D-02  0.000000D+00  0.000000D+00  0.702369D-02  0.000000D+00
      4   0.000000D+00  0.000000D+00  0.131578D-01  0.000000D+00  0.000000D+00
      5   0.000000D+00 -0.276745D+00  0.000000D+00  0.000000D+00  0.000000D+00
      6  -0.522599D-01  0.000000D+00  0.000000D+00 -0.221627D+00  0.000000D+00
      7   0.000000D+00  0.000000D+00 -0.211091D+00  0.000000D+00  0.000000D+00
      8   0.510923D-01  0.000000D+00  0.000000D+00  0.356548D+00  0.000000D+00
      9   0.000000D+00 -0.435096D+00  0.000000D+00  0.000000D+00  0.000000D+00
     10   0.000000D+00  0.000000D+00  0.000000D+00  0.000000D+00 -0.638397D-02
     11   0.000000D+00  0.000000D+00 -0.541307D-01  0.000000D+00  0.000000D+00
     12   0.000000D+00  0.000000D+00 -0.118854D+00  0.000000D+00  0.000000D+00
     13   0.000000D+00  0.000000D+00 -0.751605D+00  0.000000D+00  0.000000D+00
     14   0.000000D+00  0.000000D+00  0.000000D+00  0.000000D+00 -0.850584D-02
     15   0.000000D+00 -0.434992D+00  0.000000D+00  0.000000D+00  0.000000D+00
     16   0.529670D-01  0.000000D+00  0.000000D+00 -0.405849D+00  0.000000D+00
               941           942           943           944           945 
      1  -0.109607D+03 -0.109543D+03 -0.109411D+03 -0.109373D+03 -0.109024D+03
      2   0.000000D+00  0.297729D-03  0.000000D+00  0.000000D+00  0.000000D+00
      3   0.000000D+00  0.000000D+00  0.260099D-02  0.000000D+00  0.000000D+00
      4  -0.762361D-03  0.000000D+00  0.000000D+00  0.704903D-02 -0.166632D-03
      5   0.000000D+00 -0.525564D-01  0.000000D+00  0.000000D+00  0.000000D+00
      6   0.000000D+00  0.000000D+00 -0.398064D-01  0.000000D+00  0.000000D+00
      7  -0.113848D+00  0.000000D+00  0.000000D+00 -0.625166D-01  0.173292D-01
      8   0.000000D+00  0.000000D+00  0.104982D+00  0.000000D+00  0.000000D+00
      9   0.000000D+00 -0.928264D-01  0.000000D+00  0.000000D+00  0.000000D+00
     10   0.000000D+00  0.000000D+00  0.000000D+00  0.000000D+00  0.000000D+00
     11  -0.738810D-01  0.000000D+00  0.000000D+00 -0.140746D+00 -0.192474D+00
     12  -0.331488D-01  0.000000D+00  0.000000D+00 -0.149958D+00 -0.170602D+00
     13  -0.484657D+00  0.000000D+00  0.000000D+00 -0.253579D+00 -0.150790D+00
     14   0.000000D+00  0.000000D+00  0.000000D+00  0.000000D+00  0.000000D+00
     15   0.000000D+00 -0.114513D+00  0.000000D+00  0.000000D+00  0.000000D+00
     16   0.000000D+00  0.000000D+00 -0.382328D-01  0.000000D+00  0.000000D+00
 Unable to Open any file for archive entry.
 1\1\GINC-HEL20\SP\RwB97XD TD-FC\def2TZVP\C2H4O1\PRAKRITI\14-Aug-2021\0
 \\#P TD(Nstates=10000) wB97XD/def2TZVP SCF(maxcycles=100) Int(Grid=ult
 rafine)\\xGDB7_00001_tier4.com\\0,1\C,0,0.,0.729549,-0.367364\C,0,0.,-
 0.729549,-0.367364\O,0,0.,0.,0.845033\H,0,-0.918945,1.264243,-0.587975
 \H,0,0.918945,1.264243,-0.587975\H,0,0.918945,-1.264243,-0.587975\H,0,
 -0.918945,-1.264243,-0.587975\\Version=EM64L-G16RevC.01\State=1-A1\HF=
 -153.8010314\RMSD=4.148e-09\PG=C02V [C2(O1),SGV(C2),X(H4)]\\@
 The archive entry for this job was punched.


 LAWS OF PROGRAMMING DEFINITION:  A WORKING PROGRAM
                                  IS ONE THAT HAS
                                  ONLY UNOBSERVED
                                  BUGS.
 Job cpu time:       0 days  0 hours  8 minutes 51.2 seconds.
 Elapsed time:       0 days  0 hours  1 minutes  6.8 seconds.
 File lengths (MBytes):  RWF=   1115 Int=      0 D2E=      0 Chk=    304 Scr=      1
 Normal termination of Gaussian 16 at Sat Aug 14 06:22:37 2021.
