 Entering Gaussian System, Link 0=g16
 Input=xGDB7_000027_TDDFT.com
 Output=xGDB7_000027_TDDFT.log
 Initial command:
 /home/prakriti/g16/l1.exe "/scratch/prakriti/PBS_7421654.helios/Gau-163208.inp" -scrdir="/scratch/prakriti/PBS_7421654.helios/"
 Entering Link 1 = /home/prakriti/g16/l1.exe PID=    163209.
  
 Copyright (c) 1988-2019, Gaussian, Inc.  All Rights Reserved.
  
 This is part of the Gaussian(R) 16 program.  It is based on
 the Gaussian(R) 09 system (copyright 2009, Gaussian, Inc.),
 the Gaussian(R) 03 system (copyright 2003, Gaussian, Inc.),
 the Gaussian(R) 98 system (copyright 1998, Gaussian, Inc.),
 the Gaussian(R) 94 system (copyright 1995, Gaussian, Inc.),
 the Gaussian 92(TM) system (copyright 1992, Gaussian, Inc.),
 the Gaussian 90(TM) system (copyright 1990, Gaussian, Inc.),
 the Gaussian 88(TM) system (copyright 1988, Gaussian, Inc.),
 the Gaussian 86(TM) system (copyright 1986, Carnegie Mellon
 University), and the Gaussian 82(TM) system (copyright 1983,
 Carnegie Mellon University). Gaussian is a federally registered
 trademark of Gaussian, Inc.
  
 This software contains proprietary and confidential information,
 including trade secrets, belonging to Gaussian, Inc.
  
 This software is provided under written license and may be
 used, copied, transmitted, or stored only in accord with that
 written license.
  
 The following legend is applicable only to US Government
 contracts under FAR:
  
                    RESTRICTED RIGHTS LEGEND
  
 Use, reproduction and disclosure by the US Government is
 subject to restrictions as set forth in subparagraphs (a)
 and (c) of the Commercial Computer Software - Restricted
 Rights clause in FAR 52.227-19.
  
 Gaussian, Inc.
 340 Quinnipiac St., Bldg. 40, Wallingford CT 06492
  
  
 ---------------------------------------------------------------
 Warning -- This program may not be used in any manner that
 competes with the business of Gaussian, Inc. or will provide
 assistance to any competitor of Gaussian, Inc.  The licensee
 of this program is prohibited from giving any competitor of
 Gaussian, Inc. access to this program.  By using this program,
 the user acknowledges that Gaussian, Inc. is engaged in the
 business of creating and licensing software in the field of
 computational chemistry and represents and warrants to the
 licensee that it is not a competitor of Gaussian, Inc. and that
 it will not use this program in any manner prohibited above.
 ---------------------------------------------------------------
  

 Cite this work as:
 Gaussian 16, Revision C.01,
 M. J. Frisch, G. W. Trucks, H. B. Schlegel, G. E. Scuseria, 
 M. A. Robb, J. R. Cheeseman, G. Scalmani, V. Barone, 
 G. A. Petersson, H. Nakatsuji, X. Li, M. Caricato, A. V. Marenich, 
 J. Bloino, B. G. Janesko, R. Gomperts, B. Mennucci, H. P. Hratchian, 
 J. V. Ortiz, A. F. Izmaylov, J. L. Sonnenberg, D. Williams-Young, 
 F. Ding, F. Lipparini, F. Egidi, J. Goings, B. Peng, A. Petrone, 
 T. Henderson, D. Ranasinghe, V. G. Zakrzewski, J. Gao, N. Rega, 
 G. Zheng, W. Liang, M. Hada, M. Ehara, K. Toyota, R. Fukuda, 
 J. Hasegawa, M. Ishida, T. Nakajima, Y. Honda, O. Kitao, H. Nakai, 
 T. Vreven, K. Throssell, J. A. Montgomery, Jr., J. E. Peralta, 
 F. Ogliaro, M. J. Bearpark, J. J. Heyd, E. N. Brothers, K. N. Kudin, 
 V. N. Staroverov, T. A. Keith, R. Kobayashi, J. Normand, 
 K. Raghavachari, A. P. Rendell, J. C. Burant, S. S. Iyengar, 
 J. Tomasi, M. Cossi, J. M. Millam, M. Klene, C. Adamo, R. Cammi, 
 J. W. Ochterski, R. L. Martin, K. Morokuma, O. Farkas, 
 J. B. Foresman, and D. J. Fox, Gaussian, Inc., Wallingford CT, 2019.
 
 ******************************************
 Gaussian 16:  EM64L-G16RevC.01  3-Jul-2019
                14-Aug-2021 
 ******************************************
 %mem=8gb
 %nproc=8
 Will use up to    8 processors via shared memory.
 ----------------------------------------------------------------------
 #P TD(Nstates=10000) wB97XD/def2TZVP SCF(maxcycles=100) Int(Grid=ultra
 fine)
 ----------------------------------------------------------------------
 1/38=1,172=1/1;
 2/12=2,17=6,18=5,40=1/2;
 3/5=44,7=101,11=9,25=1,30=1,74=-58,75=-5/1,2,3,8;
 4//1;
 5/5=2,7=100,38=5/2;
 8/6=1,10=1,108=10000/1;
 9/41=10000,42=1,70=2/14;
 6/7=2,8=2,9=2,10=2/1;
 99/5=1,9=1/99;
 Leave Link    1 at Sat Aug 14 06:20:55 2021, MaxMem=  1073741824 cpu:               0.4 elap:               0.1
 (Enter /home/prakriti/g16/l101.exe)
 ---------------------
 xGDB7_00001_tier4.com
 ---------------------
 Symbolic Z-matrix:
 Charge =  0 Multiplicity = 1
 9                    -1.13972  -0.26973   0. 
 6                     0.        0.43028   0. 
 6                     1.18085  -0.14876   0. 
 1                    -0.18045   1.49833   0. 
 1                     1.28363  -1.22517   0. 
 1                     2.06922   0.46524   0. 
 
 ITRead=  0  0  0  0  0  0
 MicOpt= -1 -1 -1 -1 -1 -1
 NAtoms=      6 NQM=        6 NQMF=       0 NMMI=      0 NMMIF=      0
                NMic=       0 NMicF=      0.
                    Isotopes and Nuclear Properties:
 (Nuclear quadrupole moments (NQMom) in fm**2, nuclear magnetic moments (NMagM)
  in nuclear magnetons)

  Atom         1           2           3           4           5           6
 IAtWgt=          19          12          12           1           1           1
 AtmWgt=  18.9984033  12.0000000  12.0000000   1.0078250   1.0078250   1.0078250
 NucSpn=           1           0           0           1           1           1
 AtZEff=  -0.0000000  -0.0000000  -0.0000000  -0.0000000  -0.0000000  -0.0000000
 NQMom=    0.0000000   0.0000000   0.0000000   0.0000000   0.0000000   0.0000000
 NMagM=    2.6288670   0.0000000   0.0000000   2.7928460   2.7928460   2.7928460
 AtZNuc=   9.0000000   6.0000000   6.0000000   1.0000000   1.0000000   1.0000000
 Leave Link  101 at Sat Aug 14 06:20:55 2021, MaxMem=  1073741824 cpu:               0.7 elap:               0.1
 (Enter /home/prakriti/g16/l202.exe)
                          Input orientation:                          
 ---------------------------------------------------------------------
 Center     Atomic      Atomic             Coordinates (Angstroms)
 Number     Number       Type             X           Y           Z
 ---------------------------------------------------------------------
      1          9           0       -1.139724   -0.269725    0.000000
      2          6           0        0.000000    0.430281    0.000000
      3          6           0        1.180852   -0.148760    0.000000
      4          1           0       -0.180450    1.498331    0.000000
      5          1           0        1.283634   -1.225170    0.000000
      6          1           0        2.069222    0.465238    0.000000
 ---------------------------------------------------------------------
                    Distance matrix (angstroms):
                    1          2          3          4          5
     1  F    0.000000
     2  C    1.337527   0.000000
     3  C    2.323727   1.315181   0.000000
     4  H    2.011524   1.083187   2.136832   0.000000
     5  H    2.604907   2.094811   1.081306   3.092087   0.000000
     6  H    3.292037   2.069517   1.079905   2.475541   1.864035
                    6
     6  H    0.000000
 Stoichiometry    C2H3F
 Framework group  CS[SG(C2H3F)]
 Deg. of freedom     9
 Full point group                 CS      NOp   2
 Largest Abelian subgroup         CS      NOp   2
 Largest concise Abelian subgroup C1      NOp   1
                         Standard orientation:                         
 ---------------------------------------------------------------------
 Center     Atomic      Atomic             Coordinates (Angstroms)
 Number     Number       Type             X           Y           Z
 ---------------------------------------------------------------------
      1          9           0       -1.139724   -0.269725    0.000000
      2          6           0        0.000000    0.430281    0.000000
      3          6           0        1.180852   -0.148760    0.000000
      4          1           0       -0.180450    1.498331    0.000000
      5          1           0        1.283634   -1.225170    0.000000
      6          1           0        2.069222    0.465238    0.000000
 ---------------------------------------------------------------------
 Rotational constants (GHZ):          66.0732883          10.7041900           9.2118294
 Leave Link  202 at Sat Aug 14 06:20:55 2021, MaxMem=  1073741824 cpu:               0.1 elap:               0.0
 (Enter /home/prakriti/g16/l301.exe)
 Standard basis: def2TZVP (5D, 7F)
 Ernie: Thresh=  0.10000D-02 Tol=  0.10000D-05 Strict=F.
 There are    90 symmetry adapted cartesian basis functions of A'  symmetry.
 There are    36 symmetry adapted cartesian basis functions of A"  symmetry.
 There are    78 symmetry adapted basis functions of A'  symmetry.
 There are    33 symmetry adapted basis functions of A"  symmetry.
   111 basis functions,   177 primitive gaussians,   126 cartesian basis functions
    12 alpha electrons       12 beta electrons
       nuclear repulsion energy        67.8016714376 Hartrees.
 IExCor= 4639 DFT=T Ex+Corr=wB97XD ExCW=0 ScaHFX=  1.000000
 ScaDFX=  1.000000  1.000000  1.000000  1.000000 ScalE2=  1.000000  1.000000
 IRadAn=      5 IRanWt=     -1 IRanGd=            0 ICorTp=0 IEmpDi=121
 HFx  wShort=  0.000000 wLong=  0.200000 cFull=  0.222036 cShort=  0.000000 cLong=  0.777964
 DFx  wShort=  0.000000 wLong=  0.200000 cFull=  0.000000 cShort=  0.000000 cLong=  1.000000
 NAtoms=    6 NActive=    6 NUniq=    6 SFac= 1.00D+00 NAtFMM=   60 NAOKFM=F Big=F
 Integral buffers will be    131072 words long.
 Raffenetti 1 integral format.
 Two-electron integral symmetry is turned on.
 R6Disp:  Grimme-D2 Dispersion energy=       -0.0008655944 Hartrees.
 Nuclear repulsion after empirical dispersion term =       67.8008058432 Hartrees.
 Leave Link  301 at Sat Aug 14 06:20:55 2021, MaxMem=  1073741824 cpu:               0.5 elap:               0.1
 (Enter /home/prakriti/g16/l302.exe)
 NPDir=0 NMtPBC=     1 NCelOv=     1 NCel=       1 NClECP=     1 NCelD=      1
         NCelK=      1 NCelE2=     1 NClLst=     1 CellRange=     0.0.
 One-electron integrals computed using PRISM.
 One-electron integral symmetry used in STVInt
   2 Symmetry operations used in ECPInt.
 ECPInt:  NShTT=    1035 NPrTT=    3156 LenC2=    1033 LenP2D=    2801.
 LDataN:  DoStor=T MaxTD1= 6 Len=  172
 NBasis=   111 RedAO= T EigKep=  1.82D-04  NBF=    78    33
 NBsUse=   111 1.00D-06 EigRej= -1.00D+00 NBFU=    78    33
 Precomputing XC quadrature grid using
 IXCGrd= 4 IRadAn=           5 IRanWt=          -1 IRanGd=           0 AccXCQ= 0.00D+00.
 Generated NRdTot=       0 NPtTot=           0 NUsed=           0 NTot=          32
 NSgBfM=   126   126   126   126   126 MxSgAt=     6 MxSgA2=     6.
 Leave Link  302 at Sat Aug 14 06:20:56 2021, MaxMem=  1073741824 cpu:               1.3 elap:               0.2
 (Enter /home/prakriti/g16/l303.exe)
 DipDrv:  MaxL=1.
 Leave Link  303 at Sat Aug 14 06:20:56 2021, MaxMem=  1073741824 cpu:               0.2 elap:               0.1
 (Enter /home/prakriti/g16/l308.exe)
 Leave Link  308 at Sat Aug 14 06:20:56 2021, MaxMem=  1073741824 cpu:               0.2 elap:               0.1
 (Enter /home/prakriti/g16/l401.exe)
 ExpMin= 9.52D-02 ExpMax= 3.55D+04 ExpMxC= 1.21D+03 IAcc=3 IRadAn=         5 AccDes= 0.00D+00
 Harris functional with IExCor= 4639 and IRadAn=       5 diagonalized for initial guess.
 HarFok:  IExCor= 4639 AccDes= 0.00D+00 IRadAn=         5 IDoV= 1 UseB2=F ITyADJ=14
 ICtDFT=  3500011 ScaDFX=  1.000000  1.000000  1.000000  1.000000
 FoFCou: FMM=F IPFlag=           0 FMFlag=      100000 FMFlg1=           0
         NFxFlg=           0 DoJE=T BraDBF=F KetDBF=T FulRan=T
         wScrn=  0.000000 ICntrl=       500 IOpCl=  0 I1Cent=   200000004 NGrid=           0
         NMat0=    1 NMatS0=      1 NMatT0=    0 NMatD0=    1 NMtDS0=    0 NMtDT0=    0
 Petite list used in FoFCou.
 Harris En= -171.128657270895    
 JPrj=0 DoOrth=F DoCkMO=F.
 Initial guess orbital symmetries:
       Occupied  (A') (A') (A') (A') (A') (A') (A') (A') (A') (A")
                 (A') (A")
       Virtual   (A") (A') (A') (A') (A') (A') (A') (A") (A") (A')
                 (A') (A') (A') (A') (A') (A') (A") (A') (A') (A")
                 (A") (A') (A') (A") (A') (A') (A') (A") (A') (A')
                 (A') (A') (A") (A') (A") (A') (A') (A") (A') (A")
                 (A') (A') (A") (A') (A") (A') (A') (A") (A') (A')
                 (A') (A") (A') (A') (A') (A") (A') (A') (A') (A")
                 (A") (A") (A') (A") (A') (A') (A") (A') (A') (A")
                 (A') (A") (A') (A') (A") (A') (A') (A') (A") (A')
                 (A') (A') (A') (A') (A") (A') (A") (A') (A") (A')
                 (A') (A") (A') (A") (A') (A') (A') (A') (A')
 The electronic state of the initial guess is 1-A'.
 Leave Link  401 at Sat Aug 14 06:20:56 2021, MaxMem=  1073741824 cpu:               2.7 elap:               0.4
 (Enter /home/prakriti/g16/l502.exe)
 Keep R1 ints in memory in symmetry-blocked form, NReq=58555803.
 FoFCou: FMM=F IPFlag=           0 FMFlag=           0 FMFlg1=           0
         NFxFlg=           0 DoJE=F BraDBF=F KetDBF=F FulRan=T
         wScrn=  0.000000 ICntrl=       600 IOpCl=  0 I1Cent=           0 NGrid=           0
         NMat0=    1 NMatS0=   6216 NMatT0=    0 NMatD0=    1 NMtDS0=    0 NMtDT0=    0
 Petite list used in FoFCou.
 Closed shell SCF:
 Using DIIS extrapolation, IDIIS=  1040.
 NGot=  1073741824 LenX=  1063745585 LenY=  1063729268
 Requested convergence on RMS density matrix=1.00D-08 within 100 cycles.
 Requested convergence on MAX density matrix=1.00D-06.
 Requested convergence on             energy=1.00D-06.
 No special actions if energy rises.
 Integral accuracy reduced to 1.0D-05 until final iterations.

 Cycle   1  Pass 0  IDiag  1:
 E= -177.681767145889    
 DIIS: error= 5.31D-02 at cycle   1 NSaved=   1.
 NSaved= 1 IEnMin= 1 EnMin= -177.681767145889     IErMin= 1 ErrMin= 5.31D-02
 ErrMax= 5.31D-02  0.00D+00 EMaxC= 1.00D-01 BMatC= 5.53D-01 BMatP= 5.53D-01
 IDIUse=3 WtCom= 4.69D-01 WtEn= 5.31D-01
 Coeff-Com:  0.100D+01
 Coeff-En:   0.100D+01
 Coeff:      0.100D+01
 Gap=     0.479 Goal=   None    Shift=    0.000
 GapD=    0.479 DampG=2.000 DampE=0.500 DampFc=1.0000 IDamp=-1.
 RMSDP=5.91D-03 MaxDP=1.22D-01              OVMax= 2.30D-01

 Cycle   2  Pass 0  IDiag  1:
 E= -177.650761394266     Delta-E=        0.031005751623 Rises=F Damp=F
 DIIS: error= 5.24D-02 at cycle   2 NSaved=   2.
 NSaved= 2 IEnMin= 1 EnMin= -177.681767145889     IErMin= 2 ErrMin= 5.24D-02
 ErrMax= 5.24D-02  0.00D+00 EMaxC= 1.00D-01 BMatC= 3.43D-01 BMatP= 5.53D-01
 IDIUse=3 WtCom= 4.76D-01 WtEn= 5.24D-01
 Coeff-Com:  0.429D+00 0.571D+00
 Coeff-En:   0.543D+00 0.457D+00
 Coeff:      0.488D+00 0.512D+00
 Gap=     0.426 Goal=   None    Shift=    0.000
 RMSDP=2.45D-03 MaxDP=6.71D-02 DE= 3.10D-02 OVMax= 1.46D-01

 Cycle   3  Pass 0  IDiag  1:
 E= -177.842389405262     Delta-E=       -0.191628010996 Rises=F Damp=F
 DIIS: error= 5.68D-03 at cycle   3 NSaved=   3.
 NSaved= 3 IEnMin= 3 EnMin= -177.842389405262     IErMin= 3 ErrMin= 5.68D-03
 ErrMax= 5.68D-03  0.00D+00 EMaxC= 1.00D-01 BMatC= 4.19D-03 BMatP= 3.43D-01
 IDIUse=3 WtCom= 9.43D-01 WtEn= 5.68D-02
 Coeff-Com:  0.164D-01 0.106D+00 0.878D+00
 Coeff-En:   0.000D+00 0.000D+00 0.100D+01
 Coeff:      0.155D-01 0.995D-01 0.885D+00
 Gap=     0.432 Goal=   None    Shift=    0.000
 RMSDP=5.53D-04 MaxDP=1.43D-02 DE=-1.92D-01 OVMax= 2.24D-02

 Cycle   4  Pass 0  IDiag  1:
 E= -177.845025312450     Delta-E=       -0.002635907188 Rises=F Damp=F
 DIIS: error= 7.57D-04 at cycle   4 NSaved=   4.
 NSaved= 4 IEnMin= 4 EnMin= -177.845025312450     IErMin= 4 ErrMin= 7.57D-04
 ErrMax= 7.57D-04  0.00D+00 EMaxC= 1.00D-01 BMatC= 1.07D-04 BMatP= 4.19D-03
 IDIUse=3 WtCom= 9.92D-01 WtEn= 7.57D-03
 Coeff-Com: -0.191D-02-0.149D-01 0.245D-01 0.992D+00
 Coeff-En:   0.000D+00 0.000D+00 0.000D+00 0.100D+01
 Coeff:     -0.189D-02-0.148D-01 0.243D-01 0.992D+00
 Gap=     0.433 Goal=   None    Shift=    0.000
 RMSDP=9.24D-05 MaxDP=1.93D-03 DE=-2.64D-03 OVMax= 3.00D-03

 Cycle   5  Pass 0  IDiag  1:
 E= -177.845116757978     Delta-E=       -0.000091445528 Rises=F Damp=F
 DIIS: error= 1.77D-04 at cycle   5 NSaved=   5.
 NSaved= 5 IEnMin= 5 EnMin= -177.845116757978     IErMin= 5 ErrMin= 1.77D-04
 ErrMax= 1.77D-04  0.00D+00 EMaxC= 1.00D-01 BMatC= 2.93D-06 BMatP= 1.07D-04
 IDIUse=3 WtCom= 9.98D-01 WtEn= 1.77D-03
 Coeff-Com: -0.936D-03-0.790D-02-0.386D-01 0.156D+00 0.891D+00
 Coeff-En:   0.000D+00 0.000D+00 0.000D+00 0.000D+00 0.100D+01
 Coeff:     -0.934D-03-0.789D-02-0.385D-01 0.156D+00 0.891D+00
 Gap=     0.433 Goal=   None    Shift=    0.000
 RMSDP=2.36D-05 MaxDP=4.32D-04 DE=-9.14D-05 OVMax= 1.65D-03

 Cycle   6  Pass 0  IDiag  1:
 E= -177.845121832606     Delta-E=       -0.000005074628 Rises=F Damp=F
 DIIS: error= 8.73D-05 at cycle   6 NSaved=   6.
 NSaved= 6 IEnMin= 6 EnMin= -177.845121832606     IErMin= 6 ErrMin= 8.73D-05
 ErrMax= 8.73D-05  0.00D+00 EMaxC= 1.00D-01 BMatC= 8.83D-07 BMatP= 2.93D-06
 IDIUse=1 WtCom= 1.00D+00 WtEn= 0.00D+00
 Coeff-Com: -0.161D-03-0.121D-02-0.142D-01-0.562D-01 0.348D+00 0.724D+00
 Coeff:     -0.161D-03-0.121D-02-0.142D-01-0.562D-01 0.348D+00 0.724D+00
 Gap=     0.433 Goal=   None    Shift=    0.000
 RMSDP=7.65D-06 MaxDP=1.19D-04 DE=-5.07D-06 OVMax= 3.97D-04

 Initial convergence to 1.0D-05 achieved.  Increase integral accuracy.
 Cycle   7  Pass 1  IDiag  1:
 E= -177.845093529591     Delta-E=        0.000028303015 Rises=F Damp=F
 DIIS: error= 4.69D-05 at cycle   1 NSaved=   1.
 NSaved= 1 IEnMin= 1 EnMin= -177.845093529591     IErMin= 1 ErrMin= 4.69D-05
 ErrMax= 4.69D-05  0.00D+00 EMaxC= 1.00D-01 BMatC= 3.44D-07 BMatP= 3.44D-07
 IDIUse=1 WtCom= 1.00D+00 WtEn= 0.00D+00
 Coeff-Com:  0.100D+01
 Coeff:      0.100D+01
 Gap=     0.433 Goal=   None    Shift=    0.000
 RMSDP=7.65D-06 MaxDP=1.19D-04 DE= 2.83D-05 OVMax= 2.10D-04

 Cycle   8  Pass 1  IDiag  1:
 E= -177.845093757482     Delta-E=       -0.000000227891 Rises=F Damp=F
 DIIS: error= 2.26D-05 at cycle   2 NSaved=   2.
 NSaved= 2 IEnMin= 2 EnMin= -177.845093757482     IErMin= 2 ErrMin= 2.26D-05
 ErrMax= 2.26D-05  0.00D+00 EMaxC= 1.00D-01 BMatC= 6.53D-08 BMatP= 3.44D-07
 IDIUse=1 WtCom= 1.00D+00 WtEn= 0.00D+00
 Coeff-Com:  0.202D+00 0.798D+00
 Coeff:      0.202D+00 0.798D+00
 Gap=     0.433 Goal=   None    Shift=    0.000
 RMSDP=1.74D-06 MaxDP=4.02D-05 DE=-2.28D-07 OVMax= 9.22D-05

 Cycle   9  Pass 1  IDiag  1:
 E= -177.845093787308     Delta-E=       -0.000000029826 Rises=F Damp=F
 DIIS: error= 1.34D-05 at cycle   3 NSaved=   3.
 NSaved= 3 IEnMin= 3 EnMin= -177.845093787308     IErMin= 3 ErrMin= 1.34D-05
 ErrMax= 1.34D-05  0.00D+00 EMaxC= 1.00D-01 BMatC= 2.70D-08 BMatP= 6.53D-08
 IDIUse=1 WtCom= 1.00D+00 WtEn= 0.00D+00
 Coeff-Com: -0.369D-01 0.385D+00 0.652D+00
 Coeff:     -0.369D-01 0.385D+00 0.652D+00
 Gap=     0.433 Goal=   None    Shift=    0.000
 RMSDP=9.26D-07 MaxDP=1.81D-05 DE=-2.98D-08 OVMax= 5.36D-05

 Cycle  10  Pass 1  IDiag  1:
 E= -177.845093806628     Delta-E=       -0.000000019320 Rises=F Damp=F
 DIIS: error= 2.14D-06 at cycle   4 NSaved=   4.
 NSaved= 4 IEnMin= 4 EnMin= -177.845093806628     IErMin= 4 ErrMin= 2.14D-06
 ErrMax= 2.14D-06  0.00D+00 EMaxC= 1.00D-01 BMatC= 4.57D-10 BMatP= 2.70D-08
 IDIUse=1 WtCom= 1.00D+00 WtEn= 0.00D+00
 Coeff-Com: -0.151D-01 0.593D-01 0.168D+00 0.788D+00
 Coeff:     -0.151D-01 0.593D-01 0.168D+00 0.788D+00
 Gap=     0.433 Goal=   None    Shift=    0.000
 RMSDP=2.05D-07 MaxDP=3.67D-06 DE=-1.93D-08 OVMax= 1.23D-05

 Cycle  11  Pass 1  IDiag  1:
 E= -177.845093807124     Delta-E=       -0.000000000497 Rises=F Damp=F
 DIIS: error= 8.66D-07 at cycle   5 NSaved=   5.
 NSaved= 5 IEnMin= 5 EnMin= -177.845093807124     IErMin= 5 ErrMin= 8.66D-07
 ErrMax= 8.66D-07  0.00D+00 EMaxC= 1.00D-01 BMatC= 7.90D-11 BMatP= 4.57D-10
 IDIUse=1 WtCom= 1.00D+00 WtEn= 0.00D+00
 Coeff-Com:  0.150D-02-0.452D-01-0.477D-01 0.203D+00 0.888D+00
 Coeff:      0.150D-02-0.452D-01-0.477D-01 0.203D+00 0.888D+00
 Gap=     0.433 Goal=   None    Shift=    0.000
 RMSDP=1.63D-07 MaxDP=2.71D-06 DE=-4.97D-10 OVMax= 3.40D-06

 Cycle  12  Pass 1  IDiag  1:
 E= -177.845093807231     Delta-E=       -0.000000000107 Rises=F Damp=F
 DIIS: error= 3.74D-07 at cycle   6 NSaved=   6.
 NSaved= 6 IEnMin= 6 EnMin= -177.845093807231     IErMin= 6 ErrMin= 3.74D-07
 ErrMax= 3.74D-07  0.00D+00 EMaxC= 1.00D-01 BMatC= 1.15D-11 BMatP= 7.90D-11
 IDIUse=1 WtCom= 1.00D+00 WtEn= 0.00D+00
 Coeff-Com:  0.253D-02-0.235D-01-0.361D-01-0.215D-01 0.350D+00 0.729D+00
 Coeff:      0.253D-02-0.235D-01-0.361D-01-0.215D-01 0.350D+00 0.729D+00
 Gap=     0.433 Goal=   None    Shift=    0.000
 RMSDP=4.12D-08 MaxDP=7.51D-07 DE=-1.07D-10 OVMax= 3.33D-06

 Cycle  13  Pass 1  IDiag  1:
 E= -177.845093807245     Delta-E=       -0.000000000014 Rises=F Damp=F
 DIIS: error= 8.20D-08 at cycle   7 NSaved=   7.
 NSaved= 7 IEnMin= 7 EnMin= -177.845093807245     IErMin= 7 ErrMin= 8.20D-08
 ErrMax= 8.20D-08  0.00D+00 EMaxC= 1.00D-01 BMatC= 9.69D-13 BMatP= 1.15D-11
 IDIUse=1 WtCom= 1.00D+00 WtEn= 0.00D+00
 Coeff-Com:  0.731D-03-0.441D-02-0.820D-02-0.232D-01 0.268D-01 0.245D+00
 Coeff-Com:  0.764D+00
 Coeff:      0.731D-03-0.441D-02-0.820D-02-0.232D-01 0.268D-01 0.245D+00
 Coeff:      0.764D+00
 Gap=     0.433 Goal=   None    Shift=    0.000
 RMSDP=1.21D-08 MaxDP=1.87D-07 DE=-1.42D-11 OVMax= 3.66D-07

 Cycle  14  Pass 1  IDiag  1:
 E= -177.845093807245     Delta-E=        0.000000000000 Rises=F Damp=F
 DIIS: error= 2.02D-08 at cycle   8 NSaved=   8.
 NSaved= 8 IEnMin= 7 EnMin= -177.845093807245     IErMin= 8 ErrMin= 2.02D-08
 ErrMax= 2.02D-08  0.00D+00 EMaxC= 1.00D-01 BMatC= 2.91D-14 BMatP= 9.69D-13
 IDIUse=1 WtCom= 1.00D+00 WtEn= 0.00D+00
 Coeff-Com: -0.157D-03 0.161D-02 0.273D-02-0.982D-03-0.311D-01-0.232D-01
 Coeff-Com:  0.851D-01 0.966D+00
 Coeff:     -0.157D-03 0.161D-02 0.273D-02-0.982D-03-0.311D-01-0.232D-01
 Coeff:      0.851D-01 0.966D+00
 Gap=     0.433 Goal=   None    Shift=    0.000
 RMSDP=3.03D-09 MaxDP=4.53D-08 DE= 0.00D+00 OVMax= 1.28D-07

 SCF Done:  E(RwB97XD) =  -177.845093807     A.U. after   14 cycles
            NFock= 14  Conv=0.30D-08     -V/T= 2.0040
 KE= 1.771370951095D+02 PE=-5.548950436421D+02 EE= 1.321120488822D+02
 Leave Link  502 at Sat Aug 14 06:20:59 2021, MaxMem=  1073741824 cpu:              23.7 elap:               3.1
 (Enter /home/prakriti/g16/l801.exe)
 DoSCS=F DFT=T ScalE2(SS,OS)=  1.000000  1.000000
 ExpMin= 9.52D-02 ExpMax= 3.55D+04 ExpMxC= 1.21D+03 IAcc=3 IRadAn=         5 AccDes= 0.00D+00
 HarFok:  IExCor=  205 AccDes= 0.00D+00 IRadAn=         5 IDoV=-2 UseB2=F ITyADJ=14
 ICtDFT= 12500011 ScaDFX=  1.000000  1.000000  1.000000  1.000000
 Largest valence mixing into a core orbital is  6.57D-05
 Largest core mixing into a valence orbital is  1.17D-05
 Range of M.O.s used for correlation:     4   111
 NBasis=   111 NAE=    12 NBE=    12 NFC=     3 NFV=     0
 NROrb=    108 NOA=     9 NOB=     9 NVA=    99 NVB=    99

 **** Warning!!: The largest alpha MO coefficient is  0.18391069D+02

 Leave Link  801 at Sat Aug 14 06:20:59 2021, MaxMem=  1073741824 cpu:               0.5 elap:               0.1
 (Enter /home/prakriti/g16/l914.exe)
 RHF ground state
 Two-electron integrals replicated using symmetry.
 MDV=  1073741824 DFT=T DoStab=F Mixed=T DoRPA=T DoScal=F NonHer=T
 Making orbital integer symmetry assigments:
 Orbital symmetries:
       Occupied  (A') (A') (A') (A') (A') (A') (A') (A') (A") (A')
                 (A') (A")
       Virtual   (A") (A') (A') (A') (A') (A') (A') (A") (A') (A")
                 (A') (A') (A') (A') (A') (A") (A') (A') (A') (A")
                 (A") (A') (A') (A") (A') (A') (A') (A") (A') (A')
                 (A') (A') (A") (A') (A") (A') (A') (A") (A') (A')
                 (A") (A') (A") (A') (A") (A') (A') (A") (A') (A')
                 (A') (A") (A') (A') (A') (A") (A') (A') (A') (A")
                 (A") (A") (A') (A") (A') (A') (A") (A') (A') (A")
                 (A') (A") (A') (A') (A") (A') (A') (A') (A") (A')
                 (A') (A') (A') (A') (A") (A') (A") (A') (A") (A')
                 (A') (A") (A') (A") (A') (A') (A') (A') (A')
   891 initial guesses have been made.
 Convergence on wavefunction:    0.001000000000000
 Davidson Disk Diagonalization:  ConvIn= 1.00D-03 SkipCon=T Conv= 1.00D-03.
 Max sub-space:  5346 roots to seek:  1782 dimension of matrix:         1782
 *** WARNING: Number of orthogonal guesses is          891
 Iteration     1 Dimension   891 NMult     0 NNew    891
 CISAX will form   448 AO SS matrices at one time.
 NMat=   448 NSing=   448 JSym2X=-1.
 FoFJK:  IHMeth= 1 ICntrl=       0 DoSepK=T KAlg= 0 I1Cent=           0 FoldK=F
 IRaf=         1 NMat=     896 IRICut=       1 DoRegI=T DoRafI=F ISym2E=-1 IDoP0=3 IntGTp=3.
 FoFCou: FMM=F IPFlag=           0 FMFlag=      100000 FMFlg1=           0
         NFxFlg=           0 DoJE=F BraDBF=F KetDBF=F FulRan=T
         wScrn=  0.000000 ICntrl=       500 IOpCl=  0 I1Cent=           0 NGrid=           0
         NMat0=  448 NMatS0=    448 NMatT0=    0 NMatD0=  448 NMtDS0=    0 NMtDT0=    0
 Petite list used in FoFCou.
 NMat=   443 NSing=   443 JSym2X=-1.
 New state      4 was old state      5
 New state      5 was old state      4
 New state      6 was old state      7
 New state      7 was old state      6
 New state     10 was old state     16
 New state     11 was old state     14
 New state     13 was old state     11
 New state     14 was old state     13
 New state     15 was old state     10
 New state     16 was old state     17
 New state     17 was old state     15
 New state     18 was old state     22
 New state     19 was old state     18
 New state     20 was old state     19
 New state     22 was old state     24
 New state     23 was old state     20
 New state     24 was old state     30
 New state     25 was old state     27
 New state     26 was old state     28
 New state     27 was old state     25
 New state     28 was old state     23
 New state     29 was old state     26
 New state     30 was old state     32
 New state     32 was old state     35
 New state     33 was old state     37
 New state     34 was old state     33
 New state     35 was old state     29
 New state     36 was old state     42
 New state     37 was old state     39
 New state     38 was old state     40
 New state     39 was old state     34
 New state     40 was old state     38
 New state     41 was old state     36
 New state     42 was old state     43
 New state     43 was old state     41
 New state     44 was old state     46
 New state     45 was old state     47
 New state     46 was old state     50
 New state     47 was old state     48
 New state     48 was old state     51
 New state     49 was old state     45
 New state     50 was old state     54
 New state     51 was old state     49
 New state     52 was old state     55
 New state     54 was old state     44
 New state     55 was old state     57
 New state     56 was old state     52
 New state     57 was old state     59
 New state     58 was old state     56
 New state     59 was old state     61
 New state     60 was old state     63
 New state     61 was old state     62
 New state     62 was old state     58
 New state     63 was old state     66
 New state     64 was old state     69
 New state     66 was old state     67
 New state     67 was old state     68
 New state     68 was old state     64
 New state     69 was old state     77
 New state     70 was old state     74
 New state     72 was old state     73
 New state     73 was old state     70
 New state     74 was old state     75
 New state     75 was old state     72
 New state     76 was old state     78
 New state     77 was old state     79
 New state     78 was old state     84
 New state     79 was old state     82
 New state     80 was old state     76
 New state     81 was old state     80
 New state     82 was old state     85
 New state     83 was old state     81
 New state     84 was old state     88
 New state     85 was old state     86
 New state     86 was old state     83
 New state     88 was old state     90
 New state     90 was old state     91
 New state     91 was old state     92
 New state     92 was old state     96
 New state     93 was old state     94
 New state     94 was old state     95
 New state     95 was old state     93
 New state     96 was old state    101
 New state     97 was old state     98
 New state     98 was old state     97
 New state     99 was old state    102
 New state    100 was old state     99
 New state    101 was old state    104
 New state    102 was old state    100
 New state    103 was old state    106
 New state    104 was old state    105
 New state    105 was old state    103
 New state    106 was old state    108
 New state    107 was old state    117
 New state    108 was old state    111
 New state    109 was old state    113
 New state    110 was old state    109
 New state    111 was old state    110
 New state    113 was old state    107
 New state    114 was old state    119
 New state    116 was old state    118
 New state    117 was old state    114
 New state    118 was old state    116
 New state    119 was old state    127
 New state    121 was old state    122
 New state    122 was old state    123
 New state    123 was old state    124
 New state    124 was old state    128
 New state    126 was old state    130
 New state    127 was old state    131
 New state    128 was old state    121
 New state    130 was old state    134
 New state    131 was old state    126
 New state    132 was old state    133
 New state    133 was old state    136
 New state    134 was old state    138
 New state    135 was old state    132
 New state    136 was old state    135
 New state    137 was old state    143
 New state    138 was old state    141
 New state    140 was old state    142
 New state    141 was old state    144
 New state    142 was old state    140
 New state    143 was old state    150
 New state    144 was old state    145
 New state    145 was old state    137
 New state    147 was old state    149
 New state    148 was old state    154
 New state    149 was old state    148
 New state    150 was old state    147
 New state    151 was old state    153
 New state    152 was old state    151
 New state    153 was old state    152
 New state    154 was old state    156
 New state    155 was old state    157
 New state    156 was old state    155
 New state    157 was old state    159
 New state    158 was old state    160
 New state    159 was old state    166
 New state    160 was old state    162
 New state    161 was old state    164
 New state    162 was old state    158
 New state    163 was old state    161
 New state    164 was old state    168
 New state    165 was old state    167
 New state    166 was old state    174
 New state    167 was old state    165
 New state    168 was old state    173
 New state    169 was old state    172
 New state    170 was old state    171
 New state    171 was old state    170
 No map to state    172
 New state    173 was old state    176
 New state    174 was old state    169
 New state    176 was old state    179
 New state    178 was old state    180
 New state    179 was old state    190
 New state    180 was old state    178
 New state    182 was old state    184
 New state    183 was old state    182
 New state    184 was old state    188
 New state    185 was old state    187
 New state    186 was old state    185
 New state    187 was old state    191
 New state    188 was old state    183
 New state    190 was old state    192
 New state    191 was old state    197
 New state    192 was old state    193
 New state    193 was old state    194
 New state    194 was old state    196
 New state    195 was old state    186
 New state    196 was old state    201
 New state    197 was old state    200
 New state    200 was old state    203
 New state    201 was old state    202
 New state    202 was old state    210
 New state    203 was old state    204
 New state    204 was old state    206
 New state    205 was old state    219
 New state    206 was old state    213
 New state    209 was old state    212
 New state    210 was old state    214
 New state    211 was old state    209
 New state    212 was old state    205
 New state    213 was old state    211
 New state    214 was old state    215
 New state    215 was old state    218
 New state    217 was old state    220
 New state    218 was old state    222
 New state    219 was old state    217
 New state    220 was old state    221
 New state    221 was old state    223
 New state    222 was old state    224
 New state    223 was old state    225
 New state    224 was old state    226
 New state    225 was old state    228
 New state    226 was old state    229
 New state    227 was old state    230
 New state    228 was old state    231
 New state    229 was old state    227
 New state    230 was old state    233
 New state    231 was old state    236
 New state    232 was old state    234
 New state    233 was old state    232
 New state    234 was old state    235
 New state    235 was old state    239
 New state    236 was old state    238
 New state    238 was old state    240
 New state    239 was old state    249
 New state    240 was old state    241
 New state    241 was old state    242
 New state    242 was old state    245
 New state    243 was old state    244
 No map to state    244
 New state    245 was old state    243
 New state    247 was old state    248
 New state    248 was old state    254
 New state    249 was old state    247
 New state    251 was old state    253
 New state    253 was old state    255
 New state    254 was old state    256
 New state    255 was old state    251
 New state    256 was old state    266
 New state    259 was old state    265
 New state    260 was old state    264
 New state    261 was old state    260
 New state    263 was old state    259
 New state    264 was old state    261
 New state    265 was old state    268
 New state    266 was old state    263
 New state    268 was old state    269
 New state    269 was old state    271
 New state    270 was old state    272
 New state    271 was old state    270
 New state    272 was old state    276
 New state    274 was old state    278
 New state    275 was old state    274
 New state    276 was old state    275
 New state    278 was old state    280
 New state    279 was old state    281
 New state    280 was old state    282
 New state    281 was old state    279
 New state    282 was old state    283
 New state    283 was old state    285
 No map to state    284
 New state    285 was old state    284
 New state    287 was old state    288
 New state    288 was old state    289
 New state    289 was old state    291
 New state    290 was old state    287
 New state    291 was old state    293
 New state    292 was old state    294
 New state    293 was old state    292
 New state    294 was old state    299
 New state    295 was old state    298
 New state    297 was old state    295
 New state    298 was old state    297
 New state    299 was old state    301
 New state    300 was old state    302
 New state    301 was old state    300
 New state    302 was old state    307
 New state    303 was old state    305
 New state    304 was old state    303
 New state    305 was old state    306
 New state    306 was old state    290
 New state    307 was old state    308
 New state    308 was old state    309
 New state    309 was old state    304
 New state    314 was old state    317
 New state    316 was old state    314
 New state    317 was old state    326
 New state    319 was old state    320
 New state    320 was old state    319
 New state    322 was old state    323
 New state    323 was old state    334
 New state    325 was old state    322
 New state    326 was old state    325
 New state    327 was old state    330
 New state    328 was old state    327
 New state    329 was old state    328
 New state    330 was old state    332
 New state    331 was old state    329
 New state    332 was old state    331
 New state    333 was old state    336
 New state    334 was old state    337
 New state    335 was old state    333
 New state    336 was old state    335
 New state    337 was old state    345
 New state    339 was old state    340
 New state    340 was old state    342
 New state    341 was old state    344
 New state    342 was old state    341
 New state    344 was old state    350
 New state    345 was old state    354
 New state    346 was old state    339
 New state    347 was old state    348
 New state    348 was old state    347
 New state    349 was old state    346
 New state    350 was old state    349
 New state    351 was old state    362
 New state    352 was old state    351
 New state    353 was old state    357
 New state    354 was old state    358
 New state    356 was old state    353
 New state    357 was old state    352
 New state    358 was old state    356
 New state    361 was old state    365
 New state    362 was old state    367
 New state    363 was old state    366
 New state    364 was old state    368
 New state    365 was old state    363
 New state    366 was old state    361
 New state    367 was old state    369
 New state    368 was old state    364
 New state    369 was old state    370
 New state    370 was old state    372
 New state    371 was old state    374
 New state    372 was old state    373
 New state    373 was old state    371
 New state    374 was old state    377
 New state    375 was old state    376
 New state    376 was old state    378
 New state    377 was old state    379
 New state    378 was old state    381
 New state    379 was old state    382
 New state    381 was old state    390
 New state    382 was old state    383
 New state    383 was old state    384
 New state    384 was old state    385
 New state    385 was old state    400
 New state    387 was old state    389
 New state    389 was old state    387
 New state    390 was old state    394
 New state    394 was old state    398
 New state    395 was old state    397
 New state    397 was old state    406
 New state    398 was old state    395
 New state    400 was old state    401
 New state    401 was old state    404
 New state    404 was old state    405
 New state    405 was old state    408
 New state    406 was old state    409
 New state    407 was old state    412
 New state    408 was old state    411
 New state    409 was old state    410
 New state    410 was old state    407
 New state    411 was old state    417
 New state    412 was old state    413
 New state    413 was old state    423
 New state    414 was old state    416
 New state    415 was old state    414
 New state    416 was old state    415
 New state    417 was old state    425
 New state    418 was old state    419
 New state    419 was old state    418
 New state    420 was old state    424
 New state    421 was old state    420
 New state    423 was old state    429
 New state    424 was old state    434
 New state    425 was old state    427
 New state    427 was old state    421
 New state    429 was old state    433
 New state    431 was old state    432
 New state    432 was old state    431
 New state    433 was old state    435
 New state    434 was old state    447
 New state    435 was old state    441
 New state    438 was old state    440
 New state    439 was old state    445
 New state    440 was old state    443
 New state    441 was old state    439
 New state    442 was old state    438
 New state    443 was old state    442
 New state    445 was old state    446
 New state    446 was old state    455
 New state    447 was old state    450
 New state    448 was old state    452
 New state    449 was old state    448
 New state    450 was old state    451
 New state    451 was old state    454
 New state    452 was old state    449
 New state    453 was old state    467
 New state    454 was old state    457
 New state    455 was old state    458
 New state    457 was old state    464
 New state    458 was old state    453
 New state    459 was old state    461
 New state    460 was old state    462
 New state    461 was old state    463
 No map to state    462
 New state    463 was old state    468
 New state    464 was old state    459
 New state    465 was old state    466
 New state    466 was old state    460
 New state    467 was old state    465
 New state    468 was old state    469
 New state    469 was old state    470
 New state    470 was old state    471
 New state    471 was old state    473
 New state    473 was old state    476
 No map to state    476
 New state    477 was old state    478
 New state    478 was old state    477
 New state    482 was old state    483
 New state    483 was old state    484
 New state    484 was old state    487
 New state    485 was old state    482
 New state    486 was old state    489
 New state    487 was old state    485
 New state    489 was old state    486
 New state    490 was old state    491
 New state    491 was old state    492
 New state    492 was old state    490
 New state    496 was old state    498
 New state    497 was old state    496
 New state    498 was old state    502
 New state    499 was old state    497
 New state    500 was old state    505
 New state    501 was old state    500
 New state    502 was old state    499
 New state    503 was old state    501
 New state    505 was old state    506
 New state    506 was old state    503
 New state    507 was old state    508
 New state    508 was old state    509
 New state    509 was old state    511
 New state    510 was old state    507
 New state    511 was old state    510
 New state    512 was old state    517
 New state    513 was old state    514
 New state    514 was old state    512
 New state    516 was old state    513
 New state    517 was old state    516
 New state    519 was old state    520
 New state    520 was old state    525
 New state    521 was old state    522
 New state    522 was old state    521
 New state    525 was old state    526
 New state    526 was old state    519
 New state    527 was old state    528
 New state    528 was old state    527
 New state    530 was old state    531
 New state    531 was old state    530
 New state    532 was old state    533
 New state    533 was old state    532
 New state    535 was old state    537
 New state    536 was old state    535
 New state    537 was old state    541
 New state    538 was old state    536
 New state    539 was old state    540
 New state    540 was old state    539
 New state    541 was old state    538
 New state    542 was old state    544
 New state    543 was old state    550
 New state    544 was old state    545
 New state    545 was old state    543
 New state    546 was old state    548
 New state    547 was old state    549
 New state    548 was old state    542
 New state    549 was old state    554
 New state    550 was old state    547
 New state    551 was old state    553
 New state    553 was old state    546
 New state    554 was old state    551
 New state    555 was old state    556
 New state    556 was old state    558
 New state    557 was old state    561
 New state    558 was old state    555
 New state    559 was old state    562
 New state    560 was old state    557
 New state    561 was old state    560
 New state    562 was old state    559
 New state    564 was old state    567
 New state    565 was old state    564
 New state    567 was old state    565
 New state    568 was old state    569
 New state    569 was old state    568
 New state    573 was old state    574
 New state    574 was old state    573
 New state    575 was old state    576
 New state    576 was old state    580
 New state    577 was old state    582
 New state    579 was old state    581
 New state    580 was old state    577
 New state    581 was old state    575
 New state    582 was old state    583
 New state    583 was old state    584
 New state    584 was old state    585
 New state    585 was old state    579
 New state    587 was old state    588
 New state    588 was old state    587
 New state    589 was old state    593
 New state    590 was old state    592
 New state    591 was old state    595
 New state    592 was old state    590
 New state    593 was old state    591
 New state    594 was old state    597
 New state    595 was old state    594
 New state    596 was old state    589
 New state    597 was old state    596
 New state    598 was old state    600
 New state    599 was old state    598
 New state    600 was old state    602
 New state    601 was old state    603
 New state    602 was old state    601
 New state    603 was old state    599
 New state    604 was old state    605
 New state    605 was old state    606
 New state    606 was old state    604
 New state    620 was old state    621
 New state    621 was old state    620
 New state    624 was old state    627
 New state    625 was old state    624
 New state    626 was old state    628
 New state    627 was old state    626
 New state    628 was old state    625
 New state    629 was old state    633
 New state    631 was old state    629
 New state    633 was old state    634
 New state    634 was old state    631
 New state    635 was old state    636
 New state    636 was old state    635
 New state    637 was old state    642
 New state    638 was old state    637
 New state    640 was old state    643
 New state    641 was old state    638
 New state    642 was old state    640
 New state    643 was old state    644
 New state    644 was old state    641
 New state    645 was old state    650
 New state    648 was old state    645
 New state    649 was old state    648
 New state    650 was old state    649
 New state    653 was old state    655
 New state    654 was old state    656
 New state    655 was old state    653
 New state    656 was old state    654
 New state    657 was old state    659
 New state    658 was old state    661
 New state    659 was old state    657
 New state    661 was old state    662
 New state    662 was old state    665
 New state    663 was old state    664
 New state    664 was old state    663
 New state    665 was old state    666
 New state    666 was old state    669
 New state    667 was old state    668
 New state    668 was old state    658
 New state    669 was old state    670
 New state    670 was old state    671
 New state    671 was old state    672
 New state    672 was old state    667
 New state    678 was old state    679
 New state    679 was old state    684
 New state    682 was old state    678
 New state    683 was old state    685
 New state    684 was old state    683
 New state    685 was old state    682
 New state    687 was old state    689
 New state    688 was old state    687
 New state    689 was old state    688
 New state    692 was old state    694
 New state    693 was old state    692
 New state    694 was old state    693
 New state    695 was old state    696
 New state    696 was old state    695
 New state    699 was old state    701
 New state    700 was old state    699
 New state    701 was old state    700
 New state    702 was old state    704
 New state    703 was old state    702
 New state    704 was old state    705
 New state    705 was old state    703
 New state    707 was old state    709
 New state    709 was old state    707
 New state    712 was old state    713
 New state    713 was old state    712
 New state    718 was old state    719
 New state    719 was old state    718
 New state    722 was old state    724
 New state    723 was old state    722
 New state    724 was old state    723
 New state    725 was old state    727
 New state    727 was old state    725
 New state    728 was old state    729
 New state    729 was old state    730
 New state    730 was old state    728
 New state    735 was old state    737
 New state    736 was old state    735
 New state    737 was old state    736
 New state    738 was old state    739
 New state    739 was old state    738
 New state    747 was old state    748
 New state    748 was old state    747
 New state    759 was old state    760
 New state    760 was old state    761
 New state    761 was old state    759
 New state    763 was old state    765
 New state    764 was old state    766
 New state    765 was old state    764
 New state    766 was old state    763
 New state    768 was old state    771
 New state    769 was old state    768
 New state    770 was old state    769
 New state    771 was old state    775
 New state    774 was old state    777
 New state    775 was old state    770
 New state    776 was old state    774
 New state    777 was old state    776
 New state    778 was old state    780
 New state    779 was old state    778
 New state    780 was old state    779
 New state    781 was old state    782
 New state    782 was old state    781
 New state    783 was old state    785
 New state    784 was old state    783
 New state    785 was old state    784
 New state    786 was old state    787
 New state    787 was old state    791
 New state    788 was old state    786
 New state    789 was old state    788
 New state    790 was old state    794
 New state    791 was old state    789
 New state    792 was old state    790
 New state    793 was old state    792
 New state    794 was old state    793
 New state    795 was old state    799
 New state    797 was old state    800
 New state    798 was old state    795
 New state    799 was old state    797
 New state    800 was old state    798
 New state    801 was old state    805
 New state    802 was old state    801
 New state    804 was old state    802
 New state    805 was old state    804
 New state    809 was old state    811
 New state    810 was old state    812
 New state    811 was old state    809
 New state    812 was old state    810
 New state    813 was old state    814
 New state    814 was old state    816
 New state    815 was old state    813
 New state    816 was old state    815
 New state    818 was old state    819
 New state    819 was old state    818
 New state    820 was old state    821
 New state    821 was old state    822
 New state    822 was old state    825
 New state    823 was old state    820
 New state    824 was old state    823
 New state    825 was old state    826
 New state    826 was old state    827
 New state    827 was old state    824
 New state    828 was old state    829
 New state    829 was old state    828
 New state    833 was old state    834
 New state    834 was old state    833
 New state    835 was old state    836
 New state    836 was old state    837
 New state    837 was old state    840
 New state    838 was old state    835
 New state    839 was old state    838
 New state    840 was old state    841
 New state    841 was old state    839
 New state    843 was old state    848
 New state    844 was old state    846
 New state    845 was old state    843
 New state    846 was old state    845
 New state    847 was old state    844
 New state    848 was old state    847
 New state    850 was old state    852
 New state    852 was old state    850
 New state    853 was old state    857
 New state    855 was old state    853
 New state    856 was old state    855
 New state    857 was old state    859
 New state    858 was old state    856
 New state    859 was old state    858
 New state    868 was old state    869
 New state    869 was old state    868
 New state    876 was old state    877
 New state    877 was old state    876
 New state    885 was old state    886
 New state    886 was old state    885
 Excitation Energies [eV] at current iteration:
 Root      1 :     7.797573881937947
 Root      2 :     8.456665613507257
 Root      3 :     8.923562412764033
 Root      4 :     8.986335446766125
 Root      5 :     9.433171737428488
 Root      6 :     9.949976339294208
 Root      7 :    10.366075706169040
 Root      8 :    11.523747957198540
 Root      9 :    11.673159406870740
 Root     10 :    11.941011954254330
 Root     11 :    11.983394104719210
 Root     12 :    12.176787139387130
 Root     13 :    12.267716721119990
 Root     14 :    12.350005662541340
 Root     15 :    12.502562755569470
 Root     16 :    12.804494978821620
 Root     17 :    13.091607236896020
 Root     18 :    13.400880982064460
 Root     19 :    13.566292782672550
 Root     20 :    13.709185949259050
 Root     21 :    14.031784585206990
 Root     22 :    14.312189514284680
 Root     23 :    14.370519586428880
 Root     24 :    14.618036526469880
 Root     25 :    14.845915552953080
 Root     26 :    14.869442281853710
 Root     27 :    14.906799290777570
 Root     28 :    15.220140906607930
 Root     29 :    15.241412459172880
 Root     30 :    15.286401564644790
 Root     31 :    15.372885725247300
 Root     32 :    15.537180896381590
 Root     33 :    15.582116485098580
 Root     34 :    15.585278264909960
 Root     35 :    15.874037056680820
 Root     36 :    16.145642249453850
 Root     37 :    16.203440480198710
 Root     38 :    16.298426870441680
 Root     39 :    16.329856106877180
 Root     40 :    16.344424897951440
 Root     41 :    16.446793296155580
 Root     42 :    16.698674615484360
 Root     43 :    17.007556318310280
 Root     44 :    17.220754477919870
 Root     45 :    17.527430609122400
 Root     46 :    17.721235602115400
 Root     47 :    17.808385463626500
 Root     48 :    17.823735473129610
 Root     49 :    17.939904242054050
 Root     50 :    18.177369045572610
 Root     51 :    18.201516817014180
 Root     52 :    18.206660083311000
 Root     53 :    18.345049905713130
 Root     54 :    18.401987190560640
 Root     55 :    18.429680046713100
 Root     56 :    18.451560765577840
 Root     57 :    18.636697073240970
 Root     58 :    18.746930637998310
 Root     59 :    18.877541943608190
 Root     60 :    19.006297971744380
 Root     61 :    19.090677417708170
 Root     62 :    19.227019724947440
 Root     63 :    19.414980458979020
 Root     64 :    19.469164255089180
 Root     65 :    19.495090332793050
 Root     66 :    19.754889695257610
 Root     67 :    19.822390421639100
 Root     68 :    20.031936447543750
 Root     69 :    20.082515438676600
 Root     70 :    20.253283768208710
 Root     71 :    20.544588096958190
 Root     72 :    20.680330534250420
 Root     73 :    20.716731999886530
 Root     74 :    20.734677734890120
 Root     75 :    20.783025733667080
 Root     76 :    20.785328173658510
 Root     77 :    21.015241772964580
 Root     78 :    21.059580080460480
 Root     79 :    21.108820502682510
 Root     80 :    21.246131227454650
 Root     81 :    21.532952103335650
 Root     82 :    21.625131203866190
 Root     83 :    21.817524986335550
 Root     84 :    21.997290897793240
 Root     85 :    22.066980972872440
 Root     86 :    22.158001698367350
 Root     87 :    22.298335696131660
 Root     88 :    22.335037202853630
 Root     89 :    22.440994373088340
 Root     90 :    22.614591589559820
 Root     91 :    22.713715238630400
 Root     92 :    22.975461299304400
 Root     93 :    22.994425111917650
 Root     94 :    23.157098183965580
 Root     95 :    23.357656465472740
 Root     96 :    23.429869669370240
 Root     97 :    23.488091100059260
 Root     98 :    23.668888216229960
 Root     99 :    23.768114551949570
 Root    100 :    23.776373909444800
 Root    101 :    23.980970942038730
 Root    102 :    24.169962865277470
 Root    103 :    24.312562823115740
 Root    104 :    24.503932161375560
 Root    105 :    24.553280204390520
 Root    106 :    24.639880605477820
 Root    107 :    24.739496391319130
 Root    108 :    24.756552788874070
 Root    109 :    24.810986710712310
 Root    110 :    24.948714925404830
 Root    111 :    25.068478175143750
 Root    112 :    25.238734968879970
 Root    113 :    25.261444487951610
 Root    114 :    25.399105025088300
 Root    115 :    25.617049475799700
 Root    116 :    25.937583012898920
 Root    117 :    25.967744134874720
 Root    118 :    26.064151708703000
 Root    119 :    26.167728343503390
 Root    120 :    26.327658797534130
 Root    121 :    26.397195150949520
 Root    122 :    26.536386757669680
 Root    123 :    26.661209842028800
 Root    124 :    26.677156455682180
 Root    125 :    26.742363493642470
 Root    126 :    26.961349302085760
 Root    127 :    26.975812047209790
 Root    128 :    27.032828731166710
 Root    129 :    27.126734383925580
 Root    130 :    27.348348284976590
 Root    131 :    27.436695784145840
 Root    132 :    27.609790409074440
 Root    133 :    27.958105524384480
 Root    134 :    28.053911002452810
 Root    135 :    28.335199097347840
 Root    136 :    28.498622271345740
 Root    137 :    28.698669264653910
 Root    138 :    28.819450968589070
 Root    139 :    28.827816141038280
 Root    140 :    28.901598596882180
 Root    141 :    29.020448292902700
 Root    142 :    29.054653529258800
 Root    143 :    29.146365079444850
 Root    144 :    29.243966489798670
 Root    145 :    29.259484636328630
 Root    146 :    29.585485225320040
 Root    147 :    29.650498746391920
 Root    148 :    29.871330388284660
 Root    149 :    29.896972963470150
 Root    150 :    30.013737224075390
 Root    151 :    30.097690629073370
 Root    152 :    30.150120085532950
 Root    153 :    30.409787379603890
 Root    154 :    30.759057590664910
 Root    155 :    30.930871102711710
 Root    156 :    30.962972349010070
 Root    157 :    31.018275027004880
 Root    158 :    31.261304074418440
 Root    159 :    31.297600652651190
 Root    160 :    31.391145518937910
 Root    161 :    31.530287054727690
 Root    162 :    31.636367387749350
 Root    163 :    31.894339763032510
 Root    164 :    31.989212567938890
 Root    165 :    32.014984599022750
 Root    166 :    32.464753065667290
 Root    167 :    32.610096738197430
 Root    168 :    32.639277313901040
 Root    169 :    32.745417110296780
 Root    170 :    32.784112837821550
 Root    171 :    32.891686232189760
 Root    172 :    32.973486251266100
 Root    173 :    33.018057408384260
 Root    174 :    33.157876535340170
 Root    175 :    33.372780617582730
 Root    176 :    33.547458991455490
 Root    177 :    33.875407080555100
 Root    178 :    34.029313901536130
 Root    179 :    34.106156703160620
 Root    180 :    34.216020207620040
 Root    181 :    34.455049745305970
 Root    182 :    34.773268407105340
 Root    183 :    34.856717230590210
 Root    184 :    35.125012198885980
 Root    185 :    35.209473197756090
 Root    186 :    35.287519750611150
 Root    187 :    35.321639074732890
 Root    188 :    35.572602982252020
 Root    189 :    35.625811527509820
 Root    190 :    35.775442613448900
 Root    191 :    35.917420628881620
 Root    192 :    36.019376273102100
 Root    193 :    36.062928466649570
 Root    194 :    36.209827426732320
 Root    195 :    36.297954662827960
 Root    196 :    36.613533566665640
 Root    197 :    36.690331332590840
 Root    198 :    36.800893931786090
 Root    199 :    37.008455840298900
 Root    200 :    37.188632188795750
 Root    201 :    37.226178679435110
 Root    202 :    37.392231978507300
 Root    203 :    37.553247405006650
 Root    204 :    37.591092204128830
 Root    205 :    37.777179140730990
 Root    206 :    38.366670260498670
 Root    207 :    38.539795029131280
 Root    208 :    38.831612351180180
 Root    209 :    38.898814216978540
 Root    210 :    38.923520666242750
 Root    211 :    38.989502603792400
 Root    212 :    38.993448986840920
 Root    213 :    39.055360498314460
 Root    214 :    39.102364007423890
 Root    215 :    39.436621987480840
 Root    216 :    39.477522883390420
 Root    217 :    39.507434212132420
 Root    218 :    39.515386827326930
 Root    219 :    39.567394953666660
 Root    220 :    39.782937905286030
 Root    221 :    40.005900336238280
 Root    222 :    40.047913195210080
 Root    223 :    40.386624975114080
 Root    224 :    40.678589133840870
 Root    225 :    41.018473337468420
 Root    226 :    41.060272727161230
 Root    227 :    41.436243350446960
 Root    228 :    41.667567644022110
 Root    229 :    41.791414338823320
 Root    230 :    41.798549748012850
 Root    231 :    41.925419983306040
 Root    232 :    42.026886531901400
 Root    233 :    42.051582075968220
 Root    234 :    42.328187195008250
 Root    235 :    42.463123314516500
 Root    236 :    42.523602850476980
 Root    237 :    42.833432894411000
 Root    238 :    42.852147081654340
 Root    239 :    42.922329736805340
 Root    240 :    43.234627455448970
 Root    241 :    43.418454910041260
 Root    242 :    43.730893326176760
 Root    243 :    43.771569528055800
 Root    244 :    43.880138904486160
 Root    245 :    44.114185606951850
 Root    246 :    44.301341172209010
 Root    247 :    44.393833298582060
 Root    248 :    44.690140544251360
 Root    249 :    44.959924215165910
 Root    250 :    45.040252683162120
 Root    251 :    45.499521012140050
 Root    252 :    45.611287933001360
 Root    253 :    45.906683733253680
 Root    254 :    46.090344416718500
 Root    255 :    46.206660824753820
 Root    256 :    46.366132543376130
 Root    257 :    46.464589859816890
 Root    258 :    46.750666886203010
 Root    259 :    46.863490962533440
 Root    260 :    46.948294361360040
 Root    261 :    46.961433985573140
 Root    262 :    47.143733035276220
 Root    263 :    47.211501598307850
 Root    264 :    47.359333581244780
 Root    265 :    47.786627996667660
 Root    266 :    47.836870399199820
 Root    267 :    48.132045081452550
 Root    268 :    48.281787946116840
 Root    269 :    48.390814959594760
 Root    270 :    48.755249925114330
 Root    271 :    48.967909252618510
 Root    272 :    49.277617396134180
 Root    273 :    49.531126186095560
 Root    274 :    49.655587255786730
 Root    275 :    49.802418169786770
 Root    276 :    49.884645650381170
 Root    277 :    50.132038361184410
 Root    278 :    50.359054690709630
 Root    279 :    50.593364388865740
 Root    280 :    50.623008333252170
 Root    281 :    50.859989229788370
 Root    282 :    50.947569816253020
 Root    283 :    51.026931101429100
 Root    284 :    51.452125276519230
 Root    285 :    51.537459168317920
 Root    286 :    52.146027836335070
 Root    287 :    52.303715294744290
 Root    288 :    52.357413698625120
 Root    289 :    52.454317436853020
 Root    290 :    52.493296590799680
 Root    291 :    52.567969019067460
 Root    292 :    52.981532190899120
 Root    293 :    53.218031631679690
 Root    294 :    53.294741207388050
 Root    295 :    53.308447934178450
 Root    296 :    53.401977993426110
 Root    297 :    53.523975797647840
 Root    298 :    54.099168559614250
 Root    299 :    54.128575286092480
 Root    300 :    54.413054148761200
 Root    301 :    54.424338062259240
 Root    302 :    54.457978489670640
 Root    303 :    54.769602261089990
 Root    304 :    54.839046044675040
 Root    305 :    55.034388802606560
 Root    306 :    55.351011110383380
 Root    307 :    55.497079302278590
 Root    308 :    55.537184455748640
 Root    309 :    55.656018672035510
 Root    310 :    55.800624322492740
 Root    311 :    56.403663739855850
 Root    312 :    56.648351422827130
 Root    313 :    56.899161768465360
 Root    314 :    56.904177707964530
 Root    315 :    56.935583172263390
 Root    316 :    57.013091263317560
 Root    317 :    57.151546614153570
 Root    318 :    57.234987059924530
 Root    319 :    57.387081258014750
 Root    320 :    57.480730918479710
 Root    321 :    57.600565360105030
 Root    322 :    57.760556142336680
 Root    323 :    58.094280109712680
 Root    324 :    58.202774949911060
 Root    325 :    58.332155576260500
 Root    326 :    58.438438154522920
 Root    327 :    58.587953862554490
 Root    328 :    58.672815871684780
 Root    329 :    58.842368956729560
 Root    330 :    58.882592078220940
 Root    331 :    59.112705271398260
 Root    332 :    59.221357689713980
 Root    333 :    59.389698590366630
 Root    334 :    59.609149877078010
 Root    335 :    59.875168757052760
 Root    336 :    60.042864857416060
 Root    337 :    60.122848580181060
 Root    338 :    60.530052753388220
 Root    339 :    60.795823027611770
 Root    340 :    60.914269299098590
 Root    341 :    61.058936021612890
 Root    342 :    61.115338054189760
 Root    343 :    61.410444913545040
 Root    344 :    61.569888959531770
 Root    345 :    61.745118743054900
 Root    346 :    61.826418837713980
 Root    347 :    61.984800543137060
 Root    348 :    62.070001082516920
 Root    349 :    62.162648741359580
 Root    350 :    62.330659749493640
 Root    351 :    62.380053706328980
 Root    352 :    62.686500952392350
 Root    353 :    63.049614201447990
 Root    354 :    63.070935687491730
 Root    355 :    63.288075269110040
 Root    356 :    63.365207964307790
 Root    357 :    63.385090155373750
 Root    358 :    63.492921363950300
 Root    359 :    64.215857005515550
 Root    360 :    64.515200257301290
 Root    361 :    64.816498564238900
 Root    362 :    65.002728839373970
 Root    363 :    65.029365543128290
 Root    364 :    65.232537812818480
 Root    365 :    65.300251699638270
 Root    366 :    65.316442885769120
 Root    367 :    65.458218407414420
 Root    368 :    65.503373824614370
 Root    369 :    65.716093330412650
 Root    370 :    66.291850284649290
 Root    371 :    66.427359517472350
 Root    372 :    66.622148736105940
 Root    373 :    66.731011199877220
 Root    374 :    67.188448526636680
 Root    375 :    67.212740576042050
 Root    376 :    67.855150776759190
 Root    377 :    68.112213260325500
 Root    378 :    68.221075988463890
 Root    379 :    68.472888815880010
 Root    380 :    68.537997638732420
 Root    381 :    68.736251059835740
 Root    382 :    68.855036121220640
 Root    383 :    68.891865689552960
 Root    384 :    69.187062857211840
 Root    385 :    69.270865860449700
 Root    386 :    69.536780928729410
 Root    387 :    69.685289808143040
 Root    388 :    70.007088271421890
 Root    389 :    70.041416059115490
 Root    390 :    70.403621835909320
 Root    391 :    70.752541346829400
 Root    392 :    70.989530767998860
 Root    393 :    71.317965713073960
 Root    394 :    71.369705648464690
 Root    395 :    71.517021893521790
 Root    396 :    71.636850804178850
 Root    397 :    71.787109620042050
 Root    398 :    71.831310451227450
 Root    399 :    71.947362800021300
 Root    400 :    71.990308327628300
 Root    401 :    72.315570497608190
 Root    402 :    72.794006928288510
 Root    403 :    73.036385088874780
 Root    404 :    73.133288860339310
 Root    405 :    73.183319924821720
 Root    406 :    73.315085127317020
 Root    407 :    73.717404542036970
 Root    408 :    74.005359280518900
 Root    409 :    74.053658083400280
 Root    410 :    74.257567945901710
 Root    411 :    74.516941143771700
 Root    412 :    74.694932994877320
 Root    413 :    74.860224063680920
 Root    414 :    74.943660429286060
 Root    415 :    74.979836973736440
 Root    416 :    75.314228893797860
 Root    417 :    75.315224566364760
 Root    418 :    75.325119351303330
 Root    419 :    75.607920632263500
 Root    420 :    75.708819173121110
 Root    421 :    75.965133935365840
 Root    422 :    76.223882645477460
 Root    423 :    76.265365272392340
 Root    424 :    76.285699520412010
 Root    425 :    76.648880231062880
 Root    426 :    76.700651867209330
 Root    427 :    76.742969385947450
 Root    428 :    76.930470694119390
 Root    429 :    77.003234662505280
 Root    430 :    77.551704785257030
 Root    431 :    77.884808278297560
 Root    432 :    78.027703049417200
 Root    433 :    78.074580932231910
 Root    434 :    78.265211742866840
 Root    435 :    78.406296858411340
 Root    436 :    78.732289114258020
 Root    437 :    78.870118272527590
 Root    438 :    78.896102762183650
 Root    439 :    79.141881029098300
 Root    440 :    79.172551659209390
 Root    441 :    79.185296781708260
 Root    442 :    79.255472416155160
 Root    443 :    79.512422625218680
 Root    444 :    79.603141934936150
 Root    445 :    79.870968722508440
 Root    446 :    79.967388167560630
 Root    447 :    80.084565863729240
 Root    448 :    80.355267394098660
 Root    449 :    80.662910269578030
 Root    450 :    80.690054650297280
 Root    451 :    80.887291688670620
 Root    452 :    81.022127374450350
 Root    453 :    81.130495357742690
 Root    454 :    81.357426867490130
 Root    455 :    81.390601631008480
 Root    456 :    81.627845174506500
 Root    457 :    81.763324059558670
 Root    458 :    81.845181032771040
 Root    459 :    82.343943205972050
 Root    460 :    82.422022594704940
 Root    461 :    82.569869981316830
 Root    462 :    82.649915243948300
 Root    463 :    82.694266993562320
 Root    464 :    82.883862075244750
 Root    465 :    82.908480474211250
 Root    466 :    82.982245550541420
 Root    467 :    83.280469377346830
 Root    468 :    83.319621269004200
 Root    469 :    83.541086289311550
 Root    470 :    83.812754575884380
 Root    471 :    84.225869240300140
 Root    472 :    84.364737881899460
 Root    473 :    84.508017374243390
 Root    474 :    84.513027313430560
 Root    475 :    84.636009778807870
 Root    476 :    84.726134331289800
 Root    477 :    84.899663473116620
 Root    478 :    85.270284472210290
 Root    479 :    85.560261641672000
 Root    480 :    85.866237178062560
 Root    481 :    85.886411626955960
 Root    482 :    85.934313780320480
 Root    483 :    86.004424509471460
 Root    484 :    86.177961239560180
 Root    485 :    86.249983460315660
 Root    486 :    86.412441761379040
 Root    487 :    86.511982541799770
 Root    488 :    86.524696546180220
 Root    489 :    86.714257539776920
 Root    490 :    87.010924713765690
 Root    491 :    87.314819358311350
 Root    492 :    87.316425643762240
 Root    493 :    87.650133283743000
 Root    494 :    87.956368523147030
 Root    495 :    88.036639362969650
 Root    496 :    88.436636377582180
 Root    497 :    88.444138633648540
 Root    498 :    88.754429276470150
 Root    499 :    88.789213153879730
 Root    500 :    88.859655280633050
 Root    501 :    88.890302801892470
 Root    502 :    89.087679483670100
 Root    503 :    89.182649309577190
 Root    504 :    89.310059101345600
 Root    505 :    89.409334621748930
 Root    506 :    89.690541952150100
 Root    507 :    89.834848742341340
 Root    508 :    90.015824990914580
 Root    509 :    90.090125747925400
 Root    510 :    90.116377493551640
 Root    511 :    90.134291760148100
 Root    512 :    90.651436206503320
 Root    513 :    90.662618763748160
 Root    514 :    90.730173084071650
 Root    515 :    90.879997473146060
 Root    516 :    91.234019102584200
 Root    517 :    91.297345055639170
 Root    518 :    91.569444433883720
 Root    519 :    91.726811856613340
 Root    520 :    91.946366427235280
 Root    521 :    92.160004713967270
 Root    522 :    92.244191016364680
 Root    523 :    92.303939933421290
 Root    524 :    92.407210406739070
 Root    525 :    92.516646075183970
 Root    526 :    92.657716236798050
 Root    527 :    92.724201164782640
 Root    528 :    92.983995458107640
 Root    529 :    92.994707840364530
 Root    530 :    93.162556971067180
 Root    531 :    93.372646758494270
 Root    532 :    93.829898342262990
 Root    533 :    93.937827522433480
 Root    534 :    94.028932797292500
 Root    535 :    94.041419951373430
 Root    536 :    94.210625758700630
 Root    537 :    94.266882392633970
 Root    538 :    94.425823420761560
 Root    539 :    94.437846204669940
 Root    540 :    94.568270072515350
 Root    541 :    94.735662557204410
 Root    542 :    94.884980306836470
 Root    543 :    95.087471261757390
 Root    544 :    95.143805852778680
 Root    545 :    95.200392577322800
 Root    546 :    95.381699145582600
 Root    547 :    95.428113392163280
 Root    548 :    95.437804336588540
 Root    549 :    95.667305546415220
 Root    550 :    95.739572591873950
 Root    551 :    95.902242216381380
 Root    552 :    95.908462487842090
 Root    553 :    96.178196580911220
 Root    554 :    96.208045355609930
 Root    555 :    96.526137867829220
 Root    556 :    96.625273467790190
 Root    557 :    96.656830590620200
 Root    558 :    96.813944166804210
 Root    559 :    97.055226999554380
 Root    560 :    97.109523385092500
 Root    561 :    97.220214217423530
 Root    562 :    97.374870670358920
 Root    563 :    97.577420504682000
 Root    564 :    97.621389383442090
 Root    565 :    98.033089019686140
 Root    566 :    98.147608779860550
 Root    567 :    98.161410659581580
 Root    568 :    98.438897592010830
 Root    569 :    98.637400829063880
 Root    570 :    98.731154486882700
 Root    571 :    98.795660044286490
 Root    572 :    99.120658284152800
 Root    573 :    99.195507380787650
 Root    574 :    99.285161398626170
 Root    575 :   100.002229764684400
 Root    576 :   100.007078459582300
 Root    577 :   100.132921158773800
 Root    578 :   100.136392119573800
 Root    579 :   100.315546949843700
 Root    580 :   100.373556757582600
 Root    581 :   100.426405968919200
 Root    582 :   100.755486046289300
 Root    583 :   100.839354806444900
 Root    584 :   100.907166786495500
 Root    585 :   101.310901628513700
 Root    586 :   101.412214670766400
 Root    587 :   101.588108750806600
 Root    588 :   101.778185692541300
 Root    589 :   101.839498251682700
 Root    590 :   102.017876233751200
 Root    591 :   102.088445201301600
 Root    592 :   102.193550931832700
 Root    593 :   102.193649808835300
 Root    594 :   102.388774377171500
 Root    595 :   102.610314058240000
 Root    596 :   102.696922642528300
 Root    597 :   102.723931614367000
 Root    598 :   103.054822090607100
 Root    599 :   103.229080592963100
 Root    600 :   103.463801122211400
 Root    601 :   103.465094077389200
 Root    602 :   103.781868833939200
 Root    603 :   104.060370828497000
 Root    604 :   104.225864967362200
 Root    605 :   104.286242477287200
 Root    606 :   104.331918167861800
 Root    607 :   104.479410447108600
 Root    608 :   104.495920986661400
 Root    609 :   104.499348951971500
 Root    610 :   104.806183827819900
 Root    611 :   105.419464611517000
 Root    612 :   105.781660306331600
 Root    613 :   105.827360356805500
 Root    614 :   106.154664094239100
 Root    615 :   106.158091204852300
 Root    616 :   106.492503526956200
 Root    617 :   106.540993606635900
 Root    618 :   106.663429178677600
 Root    619 :   106.888066424851000
 Root    620 :   107.322751112949900
 Root    621 :   107.426206538962800
 Root    622 :   107.839640247830900
 Root    623 :   107.977201881710800
 Root    624 :   108.302503034796600
 Root    625 :   108.355737532772100
 Root    626 :   108.525690086733500
 Root    627 :   108.680066335783000
 Root    628 :   109.010328006198300
 Root    629 :   109.307047847504800
 Root    630 :   109.469407108068400
 Root    631 :   109.499051379924300
 Root    632 :   109.713402048788100
 Root    633 :   109.787813281403100
 Root    634 :   110.100963567673700
 Root    635 :   110.773299022303800
 Root    636 :   110.865393204952300
 Root    637 :   111.133492713066800
 Root    638 :   111.506949316868400
 Root    639 :   111.688303146885100
 Root    640 :   111.721757357999900
 Root    641 :   111.725102913084800
 Root    642 :   111.992051130531200
 Root    643 :   112.313280625535700
 Root    644 :   112.424398703066200
 Root    645 :   113.526948695785300
 Root    646 :   113.811819725547000
 Root    647 :   113.921549623526100
 Root    648 :   114.218261178795900
 Root    649 :   114.312094015890200
 Root    650 :   114.543306227690600
 Root    651 :   114.917282426348200
 Root    652 :   115.265455914532900
 Root    653 :   115.566421042472300
 Root    654 :   115.783890265522200
 Root    655 :   115.828530590203400
 Root    656 :   115.861610141966700
 Root    657 :   116.183006427085200
 Root    658 :   116.663346575139200
 Root    659 :   116.700099329172900
 Root    660 :   116.796474043566200
 Root    661 :   117.203238696194100
 Root    662 :   117.537389057325600
 Root    663 :   117.590074029256000
 Root    664 :   118.163344682938600
 Root    665 :   118.456325964823900
 Root    666 :   118.630226339863900
 Root    667 :   118.664795453698900
 Root    668 :   118.665939948065900
 Root    669 :   119.059044364522900
 Root    670 :   119.523495800680400
 Root    671 :   120.149920303981400
 Root    672 :   120.206732313369700
 Root    673 :   120.886386005757400
 Root    674 :   121.063177507761100
 Root    675 :   121.529384426805100
 Root    676 :   121.604884951903900
 Root    677 :   122.205918005547000
 Root    678 :   122.735827285460800
 Root    679 :   122.819842810970700
 Root    680 :   122.907662681286400
 Root    681 :   123.196505210067300
 Root    682 :   123.265885250022800
 Root    683 :   123.619332445123900
 Root    684 :   123.777354082377400
 Root    685 :   124.060149705351300
 Root    686 :   124.772478877206000
 Root    687 :   124.990106893140700
 Root    688 :   125.001507823852300
 Root    689 :   125.343883498850400
 Root    690 :   125.401823452552200
 Root    691 :   126.030913896627900
 Root    692 :   126.553448760632600
 Root    693 :   126.558343273350500
 Root    694 :   126.972539786501900
 Root    695 :   127.201401540004100
 Root    696 :   127.262575136771300
 Root    697 :   127.427704263181100
 Root    698 :   128.024524562356600
 Root    699 :   128.455669901478000
 Root    700 :   128.681334104108100
 Root    701 :   128.842058857004200
 Root    702 :   129.476748598167300
 Root    703 :   129.572350647722900
 Root    704 :   130.050831023162200
 Root    705 :   130.079492499094400
 Root    706 :   130.468446029628300
 Root    707 :   130.789589598260200
 Root    708 :   130.936987869772200
 Root    709 :   131.043224551024100
 Root    710 :   131.465490071881700
 Root    711 :   132.195459474193000
 Root    712 :   132.684909041394800
 Root    713 :   132.884096980584600
 Root    714 :   133.109643349274000
 Root    715 :   133.713352631248600
 Root    716 :   134.354835965495700
 Root    717 :   134.920763891442600
 Root    718 :   134.972626824255700
 Root    719 :   135.298156565074800
 Root    720 :   135.524904876189100
 Root    721 :   136.385884226083800
 Root    722 :   136.836850738662700
 Root    723 :   136.924000482020400
 Root    724 :   137.233047373016900
 Root    725 :   137.566352903691000
 Root    726 :   137.607132325327000
 Root    727 :   137.669755305126700
 Root    728 :   138.464745010275400
 Root    729 :   138.667026030369500
 Root    730 :   138.971163256879000
 Root    731 :   140.777962732949900
 Root    732 :   141.112505154678200
 Root    733 :   141.715968942081100
 Root    734 :   142.666309357531000
 Root    735 :   143.940846745897000
 Root    736 :   144.018435984948500
 Root    737 :   144.349424150762200
 Root    738 :   144.806134704237100
 Root    739 :   145.464347900316800
 Root    740 :   146.090290326928500
 Root    741 :   147.676126368536900
 Root    742 :   148.905382567183900
 Root    743 :   150.628028262479900
 Root    744 :   151.163207855314600
 Root    745 :   151.339921884061100
 Root    746 :   151.561931123124700
 Root    747 :   153.289866224750300
 Root    748 :   153.471568021938500
 Root    749 :   155.017622448818100
 Root    750 :   155.908538358412200
 Root    751 :   156.127140888245700
 Root    752 :   158.034511972793900
 Root    753 :   158.457828137864000
 Root    754 :   163.107750514161700
 Root    755 :   165.127609658425300
 Root    756 :   174.626438588656000
 Root    757 :   192.145700596773200
 Root    758 :   192.204243563973200
 Root    759 :   194.181012839299200
 Root    760 :   194.210725919196400
 Root    761 :   195.195382255225400
[...]
      1  -0.169295D+03 -0.169215D+03 -0.169197D+03 -0.169172D+03 -0.169104D+03
      2   0.000000D+00 -0.644041D-03  0.000000D+00  0.000000D+00  0.833587D-02
      3   0.000000D+00  0.134906D-01  0.000000D+00  0.000000D+00 -0.170019D-01
      4  -0.457800D-03  0.000000D+00 -0.370422D-01  0.103331D-01  0.000000D+00
      5   0.000000D+00  0.797537D-01  0.000000D+00  0.000000D+00 -0.134949D+00
      6   0.000000D+00 -0.179875D+00  0.000000D+00  0.000000D+00  0.237599D+00
      7   0.164816D+00  0.000000D+00  0.568274D+00 -0.966985D-01  0.000000D+00
      8  -0.841895D-01  0.000000D+00 -0.283451D+00  0.505634D-01  0.000000D+00
      9   0.363752D+00  0.000000D+00  0.119112D+01 -0.200283D+00  0.000000D+00
     10   0.000000D+00  0.423025D+00  0.000000D+00  0.000000D+00 -0.572109D+00
     11   0.000000D+00 -0.356530D+00  0.000000D+00  0.000000D+00  0.585308D+00
     12   0.000000D+00  0.196391D+00  0.000000D+00  0.000000D+00 -0.245761D+00
     13   0.000000D+00 -0.296332D-02  0.000000D+00  0.000000D+00 -0.216254D-02
     14   0.000000D+00  0.352037D+00  0.000000D+00  0.000000D+00 -0.421364D+00
     15  -0.347482D+00  0.000000D+00 -0.117067D+01  0.206779D+00  0.000000D+00
     16  -0.712874D-01  0.000000D+00 -0.280756D+00  0.431473D-01  0.000000D+00
               826           827           828           829           830 
      1  -0.169104D+03 -0.169092D+03 -0.169068D+03 -0.169033D+03 -0.169023D+03
      2   0.000000D+00  0.249550D-01  0.000000D+00  0.000000D+00  0.132742D-01
      3   0.000000D+00 -0.475142D-01  0.000000D+00  0.000000D+00 -0.227641D-01
      4   0.686523D-02  0.000000D+00  0.371743D-01  0.398290D-01  0.000000D+00
      5   0.000000D+00 -0.457022D+00  0.000000D+00  0.000000D+00 -0.206218D+00
      6   0.000000D+00  0.797762D+00  0.000000D+00  0.000000D+00  0.348971D+00
      7  -0.167606D+00  0.000000D+00 -0.596238D+00 -0.667745D+00  0.000000D+00
      8   0.836316D-01  0.000000D+00  0.303996D+00  0.342946D+00  0.000000D+00
      9  -0.363449D+00  0.000000D+00 -0.128418D+01 -0.144160D+01  0.000000D+00
     10   0.000000D+00 -0.195635D+01  0.000000D+00  0.000000D+00 -0.867272D+00
     11   0.000000D+00  0.195005D+01  0.000000D+00  0.000000D+00  0.831274D+00
     12   0.000000D+00 -0.772179D+00  0.000000D+00  0.000000D+00 -0.329765D+00
     13   0.000000D+00 -0.186848D-01  0.000000D+00  0.000000D+00  0.100279D-01
     14   0.000000D+00 -0.149005D+01  0.000000D+00  0.000000D+00 -0.646751D+00
     15   0.344073D+00  0.000000D+00  0.127196D+01  0.141257D+01  0.000000D+00
     16   0.830226D-01  0.000000D+00  0.287071D+00  0.317136D+00  0.000000D+00
               831           832           833           834           835 
      1  -0.168975D+03 -0.168954D+03 -0.168888D+03 -0.168883D+03 -0.168873D+03
      2  -0.124121D-01  0.000000D+00  0.195344D-01 -0.161244D-01  0.000000D+00
      3   0.199069D-01  0.000000D+00  0.119482D-01 -0.162873D-01  0.000000D+00
      4   0.000000D+00 -0.788602D-02  0.000000D+00  0.000000D+00 -0.297903D-02
      5   0.161429D+00  0.000000D+00 -0.228522D+00  0.154591D+00  0.000000D+00
      6  -0.289980D+00  0.000000D+00 -0.957956D-01  0.196557D+00  0.000000D+00
      7   0.000000D+00  0.103751D+00  0.000000D+00  0.000000D+00  0.260754D-01
      8   0.000000D+00 -0.611269D-01  0.000000D+00  0.000000D+00 -0.129768D-01
      9   0.000000D+00  0.247897D+00  0.000000D+00  0.000000D+00  0.555471D-01
     10   0.682542D+00  0.000000D+00  0.707157D-01 -0.357508D+00  0.000000D+00
     11  -0.650363D+00  0.000000D+00  0.102428D+01 -0.612509D+00  0.000000D+00
     12   0.268214D+00  0.000000D+00  0.103893D+00 -0.195062D+00  0.000000D+00
     13  -0.273842D-02  0.000000D+00 -0.320749D-01  0.420371D-02  0.000000D+00
     14   0.507496D+00  0.000000D+00  0.318038D+00 -0.479176D+00  0.000000D+00
     15   0.000000D+00 -0.250585D+00  0.000000D+00  0.000000D+00 -0.673998D-01
     16   0.000000D+00 -0.420756D-01  0.000000D+00  0.000000D+00  0.161134D-01
               836           837           838           839           840 
      1  -0.168790D+03 -0.168773D+03 -0.168765D+03 -0.168723D+03 -0.168697D+03
      2   0.000000D+00  0.345808D-02  0.000000D+00  0.000000D+00  0.643972D-01
      3   0.000000D+00 -0.319826D-02  0.000000D+00  0.000000D+00  0.336641D-01
      4   0.336209D-02  0.000000D+00 -0.949703D-03 -0.369245D-01  0.000000D+00
      5   0.000000D+00 -0.267633D-01  0.000000D+00  0.000000D+00 -0.625758D+00
      6   0.000000D+00  0.332614D-01  0.000000D+00  0.000000D+00 -0.320962D+00
      7   0.595160D-03  0.000000D+00 -0.110204D-02  0.434499D+00  0.000000D+00
      8   0.144490D-02  0.000000D+00 -0.111582D-02 -0.206939D+00  0.000000D+00
      9   0.320325D-02  0.000000D+00 -0.286756D-01  0.916089D+00  0.000000D+00
     10   0.000000D+00 -0.886383D-01  0.000000D+00  0.000000D+00  0.369970D+00
     11   0.000000D+00  0.835843D-01  0.000000D+00  0.000000D+00  0.280427D+01
     12   0.000000D+00 -0.772523D-01  0.000000D+00  0.000000D+00  0.341663D+00
     13   0.000000D+00  0.245503D-01  0.000000D+00  0.000000D+00 -0.324340D-01
     14   0.000000D+00 -0.738388D-01  0.000000D+00  0.000000D+00  0.106057D+01
     15  -0.295588D-01  0.000000D+00  0.121454D-01 -0.928100D+00  0.000000D+00
     16   0.175292D-01  0.000000D+00  0.103388D-01 -0.225366D+00  0.000000D+00
               841           842           843           844           845 
      1  -0.168696D+03 -0.168678D+03 -0.168657D+03 -0.168656D+03 -0.168636D+03
      2  -0.186417D-02  0.000000D+00 -0.975223D-03  0.000000D+00  0.000000D+00
      3   0.126445D-02  0.000000D+00 -0.559133D-02  0.000000D+00  0.000000D+00
      4   0.000000D+00  0.589718D-02  0.000000D+00  0.141612D-02 -0.458411D-01
      5   0.242414D-01  0.000000D+00  0.476244D-01  0.000000D+00  0.000000D+00
      6  -0.139900D-01  0.000000D+00  0.229472D-01  0.000000D+00  0.000000D+00
      7   0.000000D+00 -0.383972D-01  0.000000D+00 -0.321791D-01  0.484912D+00
      8   0.000000D+00  0.336997D-01  0.000000D+00  0.213672D-01 -0.256185D+00
      9   0.000000D+00 -0.113214D+00  0.000000D+00 -0.751726D-01  0.106642D+01
     10   0.111188D-01  0.000000D+00 -0.596374D-01  0.000000D+00  0.000000D+00
     11  -0.119450D-01  0.000000D+00 -0.173275D+00  0.000000D+00  0.000000D+00
     12   0.988726D-02  0.000000D+00 -0.527153D-01  0.000000D+00  0.000000D+00
     13   0.162910D-03  0.000000D+00 -0.632885D-02  0.000000D+00  0.000000D+00
     14   0.198275D-01  0.000000D+00 -0.955331D-01  0.000000D+00  0.000000D+00
     15   0.000000D+00  0.122308D+00  0.000000D+00  0.843065D-01 -0.112145D+01
     16   0.000000D+00  0.565198D-01  0.000000D+00 -0.101772D-01 -0.294616D+00
               846           847           848           849           850 
      1  -0.168609D+03 -0.168583D+03 -0.168535D+03 -0.168535D+03 -0.168500D+03
      2   0.000000D+00 -0.190514D-01 -0.278268D-01  0.000000D+00  0.000000D+00
      3   0.000000D+00  0.345575D-01  0.504794D-01  0.000000D+00  0.000000D+00
      4  -0.535027D-01  0.000000D+00  0.000000D+00  0.174715D-01 -0.784627D-01
      5   0.000000D+00  0.268160D+00  0.298231D+00  0.000000D+00  0.000000D+00
      6   0.000000D+00 -0.373822D+00 -0.533800D+00  0.000000D+00  0.000000D+00
      7   0.592342D+00  0.000000D+00  0.000000D+00 -0.187356D+00  0.848857D+00
      8  -0.310893D+00  0.000000D+00  0.000000D+00  0.720448D-01 -0.411998D+00
      9   0.128539D+01  0.000000D+00  0.000000D+00 -0.367593D+00  0.178645D+01
     10   0.000000D+00  0.916904D+00  0.131552D+01  0.000000D+00  0.000000D+00
     11   0.000000D+00 -0.115154D+01 -0.133530D+01  0.000000D+00  0.000000D+00
     12   0.000000D+00  0.434915D+00  0.616386D+00  0.000000D+00  0.000000D+00
     13   0.000000D+00 -0.208743D-01  0.236051D-02  0.000000D+00  0.000000D+00
     14   0.000000D+00  0.664470D+00  0.106936D+01  0.000000D+00  0.000000D+00
     15  -0.134203D+01  0.000000D+00  0.000000D+00  0.385783D+00 -0.186088D+01
     16  -0.341308D+00  0.000000D+00  0.000000D+00  0.850814D-01 -0.449423D+00
               851           852           853           854           855 
      1  -0.168498D+03 -0.168465D+03 -0.168429D+03 -0.168413D+03 -0.168408D+03
      2  -0.276662D-01  0.352558D-01  0.000000D+00  0.274016D-01  0.678507D-01
      3   0.602062D-01  0.407341D-01  0.000000D+00  0.334938D-01 -0.175467D-01
      4   0.000000D+00  0.000000D+00  0.603833D-03  0.000000D+00  0.000000D+00
      5   0.317964D+00 -0.324905D+00  0.000000D+00 -0.252693D+00 -0.663667D+00
      6  -0.630672D+00 -0.387847D+00  0.000000D+00 -0.318952D+00  0.208458D+00
      7   0.000000D+00  0.000000D+00 -0.758663D-02  0.000000D+00  0.000000D+00
      8   0.000000D+00  0.000000D+00  0.216047D-02  0.000000D+00  0.000000D+00
      9   0.000000D+00  0.000000D+00 -0.162527D-01  0.000000D+00  0.000000D+00
     10   0.153263D+01  0.650509D+00  0.000000D+00  0.561268D+00 -0.722768D+00
     11  -0.148214D+01  0.152620D+01  0.000000D+00  0.107646D+01  0.304465D+01
     12   0.709572D+00  0.402881D+00  0.000000D+00  0.377612D+00 -0.171277D+00
     13   0.145713D-02 -0.178052D-01  0.000000D+00 -0.530065D-02 -0.345848D-01
     14   0.124602D+01  0.109309D+01  0.000000D+00  0.853427D+00  0.120459D-01
     15   0.000000D+00  0.000000D+00  0.463210D-01  0.000000D+00  0.000000D+00
     16   0.000000D+00  0.000000D+00 -0.496397D-01  0.000000D+00  0.000000D+00
               856           857           858           859           860 
      1  -0.168369D+03 -0.168361D+03 -0.168338D+03 -0.168287D+03 -0.168228D+03
      2   0.735222D-01 -0.467646D-02  0.000000D+00  0.666092D-01 -0.108456D-01
      3   0.622653D-01 -0.390888D-02  0.000000D+00  0.302070D-01  0.644302D-02
      4   0.000000D+00  0.000000D+00 -0.101306D-01  0.000000D+00  0.000000D+00
      5  -0.660093D+00  0.411768D-01  0.000000D+00 -0.592965D+00  0.101151D+00
      6  -0.587296D+00  0.416014D-01  0.000000D+00 -0.249526D+00 -0.795026D-01
      7   0.000000D+00  0.000000D+00  0.119106D+00  0.000000D+00  0.000000D+00
      8   0.000000D+00  0.000000D+00 -0.684968D-01  0.000000D+00  0.000000D+00
      9   0.000000D+00  0.000000D+00  0.278718D+00  0.000000D+00  0.000000D+00
     10   0.881741D+00 -0.811790D-01  0.000000D+00  0.264293D+00  0.266352D+00
     11   0.304401D+01 -0.162517D+00  0.000000D+00  0.250588D+01 -0.345978D+00
     12   0.621192D+00 -0.879707D-01  0.000000D+00  0.228699D+00  0.668206D-01
     13  -0.407953D-01  0.699114D-01  0.000000D+00 -0.157741D-01  0.847084D-03
     14   0.170550D+01 -0.844208D-01  0.000000D+00  0.817204D+00  0.141219D+00
     15   0.000000D+00  0.000000D+00 -0.269520D+00  0.000000D+00  0.000000D+00
     16   0.000000D+00  0.000000D+00 -0.639357D-01  0.000000D+00  0.000000D+00
               861           862           863           864           865 
      1  -0.168109D+03 -0.168013D+03 -0.167904D+03 -0.167790D+03 -0.155648D+03
      2   0.221309D-01  0.000000D+00 -0.225220D-02  0.182701D-02  0.000000D+00
      3   0.157301D-01  0.000000D+00  0.588928D-02  0.112117D-02  0.000000D+00
      4   0.000000D+00 -0.786119D-02  0.000000D+00  0.000000D+00  0.349300D-01
      5  -0.178673D+00  0.000000D+00  0.359978D-01  0.903370D-02  0.000000D+00
      6  -0.129305D+00  0.000000D+00 -0.731754D-01  0.796458D-02  0.000000D+00
      7   0.000000D+00  0.105559D+00  0.000000D+00  0.000000D+00 -0.189826D+00
      8   0.000000D+00 -0.517925D-01  0.000000D+00  0.000000D+00 -0.294438D-01
      9   0.000000D+00  0.224363D+00  0.000000D+00  0.000000D+00  0.242728D+00
     10   0.152701D+00  0.000000D+00  0.170046D+00 -0.167270D-01  0.000000D+00
     11   0.608831D+00  0.000000D+00 -0.221563D+00 -0.135749D-01  0.000000D+00
     12   0.566195D-01  0.000000D+00  0.132156D+00 -0.267119D-01  0.000000D+00
     13   0.120198D-01  0.000000D+00  0.970754D-02 -0.245157D-01  0.000000D+00
     14   0.248132D+00  0.000000D+00  0.171146D+00 -0.315787D-02  0.000000D+00
     15   0.000000D+00 -0.290576D+00  0.000000D+00  0.000000D+00 -0.247445D+00
     16   0.000000D+00 -0.906723D-01  0.000000D+00  0.000000D+00 -0.270758D-01
               866           867           868           869           870 
      1  -0.155510D+03 -0.155488D+03 -0.155399D+03 -0.155381D+03 -0.155337D+03
      2  -0.279291D-02  0.358791D-02 -0.413044D-03  0.000000D+00 -0.661516D-02
      3  -0.486775D-02  0.122019D-01 -0.135643D-01  0.000000D+00 -0.593248D-02
      4   0.000000D+00  0.000000D+00  0.000000D+00  0.155349D-01  0.000000D+00
      5   0.996578D-02 -0.645262D-01 -0.295627D-01  0.000000D+00  0.373507D-01
      6  -0.108570D-01 -0.982083D-01  0.802616D-01  0.000000D+00  0.102350D+00
      7   0.000000D+00  0.000000D+00  0.000000D+00 -0.421107D-01  0.000000D+00
      8   0.000000D+00  0.000000D+00  0.000000D+00 -0.340067D-01  0.000000D+00
      9   0.000000D+00  0.000000D+00  0.000000D+00  0.395812D-01  0.000000D+00
     10  -0.156448D+00 -0.219161D+00  0.172565D-01  0.000000D+00  0.887244D-01
     11   0.162855D+00 -0.405233D+00 -0.275306D+00  0.000000D+00  0.103806D+00
     12   0.178813D+00  0.771564D-01  0.857287D-02  0.000000D+00  0.138452D+00
     13  -0.105222D-01  0.216665D-01 -0.245837D-02  0.000000D+00  0.255653D-01
     14  -0.242333D+00 -0.176415D+00  0.108969D+00  0.000000D+00  0.107552D+00
     15   0.000000D+00  0.000000D+00  0.000000D+00 -0.350758D-01  0.000000D+00
     16   0.000000D+00  0.000000D+00  0.000000D+00 -0.329579D-01  0.000000D+00
               871           872           873           874           875 
      1  -0.155249D+03 -0.155104D+03 -0.154943D+03 -0.154810D+03 -0.154762D+03
      2  -0.247164D-02  0.260907D-02  0.000000D+00  0.723231D-02 -0.616567D-02
      3  -0.496374D-03  0.161978D-02  0.000000D+00 -0.718454D-02 -0.586824D-02
      4   0.000000D+00  0.000000D+00  0.571075D-03  0.000000D+00  0.000000D+00
      5   0.741420D-01 -0.182739D-01  0.000000D+00 -0.114837D+00  0.713509D-01
      6  -0.371612D-01 -0.168672D-01  0.000000D+00  0.115523D+00  0.584045D-01
      7   0.000000D+00  0.000000D+00 -0.178099D-01  0.000000D+00  0.000000D+00
      8   0.000000D+00  0.000000D+00 -0.859443D-01  0.000000D+00  0.000000D+00
      9   0.000000D+00  0.000000D+00 -0.170339D+00  0.000000D+00  0.000000D+00
     10  -0.741218D-01  0.569398D-02  0.000000D+00  0.108754D+00  0.120485D+00
     11   0.235306D+00 -0.144279D+00  0.000000D+00 -0.216093D+00  0.231812D+00
     12   0.124867D-01 -0.239375D+00  0.000000D+00  0.118882D+00 -0.835160D-02
     13   0.447684D-01 -0.244593D+00  0.000000D+00  0.140499D-01  0.177437D-01
     14   0.538037D-02 -0.138619D-01  0.000000D+00  0.441106D-01  0.135790D+00
     15   0.000000D+00  0.000000D+00  0.163337D+00  0.000000D+00  0.000000D+00
     16   0.000000D+00  0.000000D+00 -0.925030D-01  0.000000D+00  0.000000D+00
               876           877           878           879           880 
      1  -0.154695D+03 -0.154690D+03 -0.154645D+03 -0.154607D+03 -0.154548D+03
      2  -0.116915D-01  0.000000D+00 -0.684090D-03 -0.323641D-02 -0.434329D-03
      3   0.282237D-02  0.000000D+00 -0.552544D-02 -0.172319D-02  0.150202D-02
      4   0.000000D+00  0.191419D-02  0.000000D+00  0.000000D+00  0.000000D+00
      5   0.121667D+00  0.000000D+00  0.829945D-02  0.539855D-01  0.928196D-02
      6  -0.220536D-01  0.000000D+00  0.440706D-01  0.259098D-01 -0.182090D-01
      7   0.000000D+00 -0.189288D-01  0.000000D+00  0.000000D+00  0.000000D+00
      8   0.000000D+00 -0.404734D-01  0.000000D+00  0.000000D+00  0.000000D+00
      9   0.000000D+00  0.111833D-01  0.000000D+00  0.000000D+00  0.000000D+00
     10  -0.135499D+00  0.000000D+00 -0.648116D-01 -0.257952D-01 -0.555870D-02
     11   0.293530D+00  0.000000D+00 -0.848676D-01 -0.240520D+00 -0.206590D+00
     12   0.116923D+00  0.000000D+00  0.181038D+00 -0.812675D-01 -0.195212D+00
     13   0.526112D-01  0.000000D+00  0.146129D-01 -0.731239D-01 -0.132279D+00
     14  -0.489476D-01  0.000000D+00 -0.447084D-01 -0.226065D-01  0.977116D-01
     15   0.000000D+00  0.151888D-02  0.000000D+00  0.000000D+00  0.000000D+00
     16   0.000000D+00 -0.342295D-01  0.000000D+00  0.000000D+00  0.000000D+00
               881           882           883           884           885 
      1  -0.154403D+03 -0.153917D+03 -0.120577D+03 -0.120562D+03 -0.120423D+03
      2  -0.113213D-02 -0.439415D-02  0.000000D+00 -0.102831D-01  0.000000D+00
      3   0.331859D-02 -0.129999D-02  0.000000D+00  0.125406D-01  0.000000D+00
      4   0.000000D+00  0.000000D+00 -0.243790D-01  0.000000D+00 -0.288623D-02
      5  -0.254682D-01  0.566549D-01  0.000000D+00  0.162469D+00  0.000000D+00
      6  -0.132211D-01  0.286797D-01  0.000000D+00 -0.275925D+00  0.000000D+00
      7   0.000000D+00  0.000000D+00  0.286941D+00  0.000000D+00 -0.152056D+00
      8   0.000000D+00  0.000000D+00 -0.142464D+00  0.000000D+00  0.827525D-01
      9   0.000000D+00  0.000000D+00  0.606407D+00  0.000000D+00 -0.341025D+00
     10   0.244255D-01 -0.544317D-01  0.000000D+00  0.672980D+00  0.000000D+00
     11   0.207528D-01 -0.164789D+00  0.000000D+00 -0.697950D+00  0.000000D+00
     12  -0.236489D-01 -0.438334D-01  0.000000D+00  0.289312D+00  0.000000D+00
     13  -0.254023D-01 -0.414319D-01  0.000000D+00 -0.988858D-02  0.000000D+00
     14   0.416605D-02 -0.338924D-01  0.000000D+00  0.517319D+00  0.000000D+00
     15   0.000000D+00  0.000000D+00 -0.608154D+00  0.000000D+00  0.343512D+00
     16   0.000000D+00  0.000000D+00 -0.129707D+00  0.000000D+00  0.889378D-01
               886           887           888           889           890 
      1  -0.120417D+03 -0.120318D+03 -0.120265D+03 -0.120169D+03 -0.119977D+03
      2   0.449536D-02  0.432907D-02  0.144198D-02  0.453119D-02  0.224192D-02
      3   0.424939D-02  0.117677D-02 -0.269145D-02  0.301905D-02  0.193744D-02
      4   0.000000D+00  0.000000D+00  0.000000D+00  0.000000D+00  0.000000D+00
      5  -0.229187D+00 -0.462534D-01 -0.685902D-01 -0.479526D-01 -0.299762D-01
      6  -0.123059D+00 -0.793844D-01  0.120672D-01 -0.505055D-01 -0.156031D-01
      7   0.000000D+00  0.000000D+00  0.000000D+00  0.000000D+00  0.000000D+00
      8   0.000000D+00  0.000000D+00  0.000000D+00  0.000000D+00  0.000000D+00
      9   0.000000D+00  0.000000D+00  0.000000D+00  0.000000D+00  0.000000D+00
     10   0.145104D+00  0.153951D+00 -0.640566D-01  0.873104D-01  0.173210D-02
     11   0.105828D+01  0.223634D+00  0.329850D+00  0.233201D+00  0.168712D+00
     12   0.173000D+00  0.133926D+00  0.187821D-01  0.879069D-01  0.485775D-01
     13   0.359875D-01  0.263347D-01  0.155913D-01  0.524736D-01  0.572970D-01
     14   0.399884D+00  0.193676D+00  0.968931D-02  0.118112D+00  0.234066D-01
     15   0.000000D+00  0.000000D+00  0.000000D+00  0.000000D+00  0.000000D+00
     16   0.000000D+00  0.000000D+00  0.000000D+00  0.000000D+00  0.000000D+00
               891 
      1  -0.119623D+03
      2  -0.638540D-03
      3  -0.581602D-04
      4   0.000000D+00
      5  -0.315076D-02
      6  -0.607190D-02
      7   0.000000D+00
      8   0.000000D+00
      9   0.000000D+00
     10   0.823861D-02
     11  -0.219564D+00
     12  -0.234357D+00
     13  -0.242556D+00
     14   0.157842D-01
     15   0.000000D+00
     16   0.000000D+00
 Unable to Open any file for archive entry.
 1\1\GINC-HEL16\SP\RwB97XD TD-FC\def2TZVP\C2H3F1\PRAKRITI\14-Aug-2021\0
 \\#P TD(Nstates=10000) wB97XD/def2TZVP SCF(maxcycles=100) Int(Grid=ult
 rafine)\\xGDB7_00001_tier4.com\\0,1\F,0,-1.139724,-0.269725,0.\C,0,0.,
 0.430281,0.\C,0,1.180852,-0.14876,0.\H,0,-0.18045,1.498331,0.\H,0,1.28
 3634,-1.22517,0.\H,0,2.069222,0.465238,0.\\Version=EM64L-G16RevC.01\St
 ate=1-A'\HF=-177.8450938\RMSD=3.031e-09\PG=CS [SG(C2H3F1)]\\@
 The archive entry for this job was punched.


 MICRO CREDO - NEVER TRUST A COMPUTER BIGGER
               BIGGER THAN YOU CAN LIFT.
 Job cpu time:       0 days  0 hours 18 minutes 12.2 seconds.
 Elapsed time:       0 days  0 hours  2 minutes 16.9 seconds.
 File lengths (MBytes):  RWF=    990 Int=      0 D2E=      0 Chk=    260 Scr=      1
 Normal termination of Gaussian 16 at Sat Aug 14 06:23:12 2021.
